                         Program Version 6.0.0  -   RELEASE  -
|  1> ! Engrad def2-TZVPPD wB97M-D3BJ
|  2> %pal nprocs 8 end%pal nprocs 64 end
|  3> %tddft
|  4>  Iroot 1 Nroots 3
|  5> sf true
|  6> end
|  7> *xyz 0 3
|  8> O   1.32959496 0.65291601 0.53504113
|  9> C   0.07624566 0.39850462 0.20217002
| 10> C   -0.18152949 -0.96225916 -0.51002818
| 11> H   -0.29158126 1.14164866 -0.6311675
| 12> H   -0.64522935 0.58977493 1.12047316
| 13> H   -0.95474243 -0.84863052 -1.202659
| 14> H   0.62346661 -1.62215391 -0.91266429
| 15> *
| 16>
| 17>                          ****END OF INPUT****

CARTESIAN COORDINATES (ANGSTROEM)
---------------------------------
  O      1.329595    0.652916    0.535041
  C      0.076246    0.398505    0.202170
  C     -0.181529   -0.962259   -0.510028
  H     -0.291581    1.141649   -0.631167
  H     -0.645229    0.589775    1.120473
  H     -0.954742   -0.848631   -1.202659
  H      0.623467   -1.622154   -0.912664

 Total Charge           Charge          ....    0
 Multiplicity           Mult            ....    3
 Number of Electrons    NEL             ....   24
 Basis Dimension        Dim             ....  182

ORBITAL ENERGIES
----------------
                 SPIN UP ORBITALS
  NO   OCC          E(Eh)            E(eV)
   0   1.0000     -19.392948      -527.7089
   1   1.0000     -10.434781      -283.9448
   2   1.0000     -10.368367      -282.1376
   3   1.0000      -1.188503       -32.3408
   4   1.0000      -0.864587       -23.5266
   5   1.0000      -0.727288       -19.7905
   6   1.0000      -0.609385       -16.5822
   7   1.0000      -0.591299       -16.0901
   8   1.0000      -0.556746       -15.1498
   9   1.0000      -0.508900       -13.8479
  10   1.0000      -0.442890       -12.0516
  11   1.0000      -0.410492       -11.1701
  12   1.0000      -0.325110        -8.8467
  13   0.0000       0.039801         1.0831
  14   0.0000       0.060176         1.6375
  15   0.0000       0.079537         2.1643
  16   0.0000       0.082434         2.2431
  17   0.0000       0.111231         3.0268

                 SPIN DOWN ORBITALS
  NO   OCC          E(Eh)            E(eV)
   0   1.0000     -19.370723      -527.1042
   1   1.0000     -10.436191      -283.9832
   2   1.0000     -10.354884      -281.7707
   3   1.0000      -1.139166       -30.9983
   4   1.0000      -0.833722       -22.6867
   5   1.0000      -0.699627       -19.0378
   6   1.0000      -0.571901       -15.5622
   7   1.0000      -0.548756       -14.9324
   8   1.0000      -0.534301       -14.5391
   9   1.0000      -0.491288       -13.3686
  10   1.0000      -0.378428       -10.2975
  11   0.0000      -0.065693        -1.7876
  12   0.0000      -0.000696        -0.0189
  13   0.0000       0.039829         1.0838
  14   0.0000       0.060717         1.6522
  15   0.0000       0.079316         2.1583

----------------------------------------------------------------------------------------------------
          SPIN FLIP ABSORPTION SPECTRUM VIA TRANSITION ELECTRIC DIPOLE MOMENTS
----------------------------------------------------------------------------------------------------
     Transition      Energy     Energy  Wavelength fosc(D2)      D2        DX        DY        DZ
                      (eV)      (cm-1)    (nm)                 (au**2)    (au)      (au)      (au)
----------------------------------------------------------------------------------------------------
  1-3A  ->  2-3A    0.459411    3705.4  2698.8   0.000299322   0.02659   0.02396  -0.12350  -0.10376
  1-3A  ->  3-3A    0.984896    7943.7  1258.9   0.012041582   0.49904  -0.57056  -0.32561  -0.25976

Dispersion correction             ... done (  0.1 sec)

MULLIKEN ATOMIC CHARGES AND SPIN DENSITIES
------------------------------------------
   0 O :   -0.479800   -0.385552
   1 C :    0.026465   -0.087773
   2 C :   -0.486272    0.396838
   3 H :    0.212932   -0.080764
   4 H :    0.236554    0.098923
   5 H :    0.249768    0.033669
   6 H :    0.240354    0.024658
Sum of atomic charges       :   -0.0000000

LOEWDIN ATOMIC CHARGES AND SPIN DENSITIES
-----------------------------------------
   0 O :   -0.066037   -0.389970
   1 C :   -0.333624   -0.019168
   2 C :    0.345336    0.351055
   3 H :    0.083023   -0.072810
   4 H :    0.083727    0.051998
   5 H :   -0.099519    0.042664
   6 H :   -0.012906    0.036232

  Mayer bond orders larger than 0.100000
B(  0-O ,  1-C ) :   1.2068 B(  0-O ,  2-C ) :   0.2882 B(  1-C ,  2-C ) :   0.8541
B(  1-C ,  3-H ) :   0.8931 B(  1-C ,  4-H ) :   0.9121 B(  2-C ,  5-H ) :   0.9692
B(  2-C ,  6-H ) :   0.9706

Dispersion correction           -0.005468946
FINAL SINGLE POINT ENERGY      -153.749598508479

DIPOLE MOMENT
-------------

Method             : TDA/CIS
Type of density    : Electron Density
Level              : Relaxed density
State              :   1
Multiplicity       :   3
Irrep              :   0
Energy             :     0.0000000000000000 Eh
Relativity type    :
Basis              : AO
                                X                 Y                 Z
Electronic contribution:      1.656335047       0.517745847       1.124755607
Nuclear contribution   :     -2.771797864      -0.934528637      -1.793250812
                        -----------------------------------------
Total Dipole Moment    :     -1.115462817      -0.416782790      -0.668495205
                        -----------------------------------------
Magnitude (a.u.)       :      1.365595485
Magnitude (Debye)      :      3.471067873

Rotational constants in cm-1:             1.438500             0.340488             0.294622
Rotational constants in MHz :         43125.141939         10207.576554          8832.554150

                             ****ORCA TERMINATED NORMALLY****
TOTAL RUN TIME: 0 days 0 hours 0 minutes 26 seconds 702 msec
