                         Program Version 6.0.0  -   RELEASE  -
|  1> ! Engrad def2-TZVPPD wB97M-D3BJ
|  2> %pal nprocs 8 end%pal nprocs 32 end
|  3> %tddft Nroots 2 Iroot 1
|  4> sf true
|  5> end
|  6> *xyz 0 3
|  7> O   -0.21269535 0.91047059 -0.61133757
|  8> C   0.64215791 0.06700615 0.11221319
|  9> C   -0.28390903 -1.03837276 0.58425812
| 10> H   1.20474893 0.60595506 0.86262316
| 11> H   1.32989753 -0.39866615 -0.5323674
| 12> H   -1.20783372 -0.81601938 0.99189375
| 13> H   -0.25196755 -2.01144013 0.09574221
| 14> *
| 15>
| 16>                          ****END OF INPUT****

CARTESIAN COORDINATES (ANGSTROEM)
---------------------------------
  O     -0.212695    0.910471   -0.611338
  C      0.642158    0.067006    0.112213
  C     -0.283909   -1.038373    0.584258
  H      1.204749    0.605955    0.862623
  H      1.329898   -0.398666   -0.532367
  H     -1.207834   -0.816019    0.991894
  H     -0.251968   -2.011440    0.095742

 Total Charge           Charge          ....    0
 Multiplicity           Mult            ....    3
 Number of Electrons    NEL             ....   24
 Basis Dimension        Dim             ....  182

ORBITAL ENERGIES
----------------
                 SPIN UP ORBITALS
  NO   OCC          E(Eh)            E(eV)
   0   1.0000     -19.396991      -527.8190
   1   1.0000     -10.410617      -283.2873
   2   1.0000     -10.357404      -281.8393
   3   1.0000      -1.166118       -31.7317
   4   1.0000      -0.869959       -23.6728
   5   1.0000      -0.748324       -20.3629
   6   1.0000      -0.623239       -16.9592
   7   1.0000      -0.581184       -15.8148
   8   1.0000      -0.545413       -14.8414
   9   1.0000      -0.515489       -14.0272
  10   1.0000      -0.452488       -12.3128
  11   1.0000      -0.423027       -11.5112
  12   1.0000      -0.320375        -8.7178
  13   0.0000       0.041790         1.1372
  14   0.0000       0.063085         1.7166
  15   0.0000       0.078211         2.1282
  16   0.0000       0.086776         2.3613
  17   0.0000       0.115096         3.1319

                 SPIN DOWN ORBITALS
  NO   OCC          E(Eh)            E(eV)
   0   1.0000     -19.371451      -527.1240
   1   1.0000     -10.411812      -283.3198
   2   1.0000     -10.344431      -281.4863
   3   1.0000      -1.107534       -30.1375
   4   1.0000      -0.837798       -22.7976
   5   1.0000      -0.724607       -19.7176
   6   1.0000      -0.587709       -15.9924
   7   1.0000      -0.551644       -15.0110
   8   1.0000      -0.522980       -14.2310
   9   1.0000      -0.486939       -13.2503
  10   1.0000      -0.385771       -10.4974
  11   0.0000      -0.059538        -1.6201
  12   0.0000       0.003538         0.0963
  13   0.0000       0.040895         1.1128
  14   0.0000       0.063711         1.7337
  15   0.0000       0.078296         2.1305

----------------------------------------------------------------------------------------------------
          SPIN FLIP ABSORPTION SPECTRUM VIA TRANSITION ELECTRIC DIPOLE MOMENTS
----------------------------------------------------------------------------------------------------
     Transition      Energy     Energy  Wavelength fosc(D2)      D2        DX        DY        DZ
                      (eV)      (cm-1)    (nm)                 (au**2)    (au)      (au)      (au)
----------------------------------------------------------------------------------------------------
  1-3A  ->  2-3A    0.638511    5149.9  1941.8   0.000104037   0.00665  -0.04911   0.00435   0.06496

Dispersion correction             ... done (  0.1 sec)

MULLIKEN ATOMIC CHARGES AND SPIN DENSITIES
------------------------------------------
   0 O :   -0.475632   -0.528474
   1 C :   -0.052437   -0.064088
   2 C :   -0.481558    0.418399
   3 H :    0.249918    0.059713
   4 H :    0.208595    0.014416
   5 H :    0.324841    0.054130
   6 H :    0.226272    0.045905
Sum of atomic charges       :    0.0000000

LOEWDIN ATOMIC CHARGES AND SPIN DENSITIES
-----------------------------------------
   0 O :   -0.066792   -0.538389
   1 C :   -0.246447    0.024192
   2 C :    0.402540    0.399303
   3 H :    0.020072    0.026089
   4 H :   -0.021653   -0.012754
   5 H :   -0.070893    0.055657
   6 H :   -0.016827    0.045902

  Mayer bond orders larger than 0.100000
B(  0-O ,  1-C ) :   0.8507 B(  0-O ,  2-C ) :   0.5464 B(  1-C ,  2-C ) :   0.7570
B(  1-C ,  3-H ) :   0.9562 B(  1-C ,  4-H ) :   1.0063 B(  2-C ,  5-H ) :   0.9084
B(  2-C ,  6-H ) :   0.9623

Dispersion correction           -0.005565930
FINAL SINGLE POINT ENERGY      -153.763864180221

DIPOLE MOMENT
-------------

Method             : TDA/CIS
Type of density    : Electron Density
Level              : Relaxed density
State              :   1
Multiplicity       :   3
Irrep              :   0
Energy             :     0.0000000000000000 Eh
Relativity type    :
Basis              : AO
                                X                 Y                 Z
Electronic contribution:     -0.481562228       1.286423238      -0.571772353
Nuclear contribution   :      0.835619726      -2.466816121       1.320014369
                        -----------------------------------------
Total Dipole Moment    :      0.354057498      -1.180392883       0.748242016
                        -----------------------------------------
Magnitude (a.u.)       :      1.441717789
Magnitude (Debye)      :      3.664555394

Rotational constants in cm-1:             1.198136             0.385157             0.321351
Rotational constants in MHz :         35919.220803         11546.710823          9633.856686

                             ****ORCA TERMINATED NORMALLY****
TOTAL RUN TIME: 0 days 0 hours 0 minutes 18 seconds 380 msec
