                         Program Version 6.0.0  -   RELEASE  -
|  1> ! Engrad def2-TZVPPD wB97M-D3BJ
|  2> %pal nprocs 8 end%pal nprocs 64 end
|  3> %tddft Nroots 2 Iroot 1
|  4> sf true
|  5> end
|  6> *xyz 0 3
|  7> O   3.21403986 0.40426806 -0.88278825
|  8> O   -0.6466516 1.53252845 -2.31164495
|  9> O   0.39466664 -3.09844184 -0.30288533
| 10> O   -3.02962195 -1.78348916 -0.43765567
| 11> N   0.35451241 -1.42937125 1.2102117
| 12> N   -2.01624703 -0.24534816 0.96693991
| 13> N   1.53414167 -1.12965017 -0.73749631
| 14> N   -1.50319218 -0.31167574 -1.24928819
| 15> C   1.66091611 0.56600691 0.87599933
| 16> C   -0.90075976 1.64675665 0.02857082
| 17> C   0.41102838 -0.04040007 1.50530123
| 18> C   -0.96915526 0.71989037 1.19303856
| 19> C   2.40942654 1.53596359 1.69105723
| 20> C   -0.62959743 3.06859284 0.22548388
| 21> C   2.22301845 -0.00398226 -0.2809491
| 22> C   -1.03130195 1.02275677 -1.27254286
| 23> C   0.72795982 -1.97061091 -0.00753406
| 24> C   -2.28607775 -0.87164155 -0.2330656
| 25> H   0.49016261 0.04274397 2.60706781
| 26> H   -1.15934115 1.33664674 2.08591639
| 27> H   3.36035388 1.58043858 1.18172417
| 28> H   1.95042403 2.49961207 1.65584886
| 29> H   2.57248076 1.21354506 2.69150689
| 30> H   -1.58533714 3.50480515 0.56860999
| 31> H   0.07776924 3.23456063 1.0197529
| 32> H   -0.39606454 3.56636839 -0.67687388
| 33> H   -0.44021204 -1.93904939 1.60412445
| 34> H   -2.6104063 -0.52880646 1.72942486
| 35> H   1.91681848 -1.54622538 -1.59376033
| 36> H   -1.6004802 -0.72012064 -2.16861774
| 37> *
| 38>
| 39>                          ****END OF INPUT****

CARTESIAN COORDINATES (ANGSTROEM)
---------------------------------
  O      3.214040    0.404268   -0.882788
  O     -0.646652    1.532528   -2.311645
  O      0.394667   -3.098442   -0.302885
  O     -3.029622   -1.783489   -0.437656
  N      0.354512   -1.429371    1.210212
  N     -2.016247   -0.245348    0.966940
  N      1.534142   -1.129650   -0.737496
  N     -1.503192   -0.311676   -1.249288
  C      1.660916    0.566007    0.875999
  C     -0.900760    1.646757    0.028571
  C      0.411028   -0.040400    1.505301
  C     -0.969155    0.719890    1.193039
  C      2.409427    1.535964    1.691057
  C     -0.629597    3.068593    0.225484
  C      2.223018   -0.003982   -0.280949
  C     -1.031302    1.022757   -1.272543
  C      0.727960   -1.970611   -0.007534
  C     -2.286078   -0.871642   -0.233066
  H      0.490163    0.042744    2.607068
  H     -1.159341    1.336647    2.085916
  H      3.360354    1.580439    1.181724
  H      1.950424    2.499612    1.655849
  H      2.572481    1.213545    2.691507
  H     -1.585337    3.504805    0.568610
  H      0.077769    3.234561    1.019753
  H     -0.396065    3.566368   -0.676874
  H     -0.440212   -1.939049    1.604124
  H     -2.610406   -0.528806    1.729425
  H      1.916818   -1.546225   -1.593760
  H     -1.600480   -0.720121   -2.168618

 Total Charge           Charge          ....    0
 Multiplicity           Mult            ....    3
 Number of Electrons    NEL             ....  132
 Basis Dimension        Dim             ....  882

ORBITAL ENERGIES
----------------
                 SPIN UP ORBITALS
  NO   OCC          E(Eh)            E(eV)
   0   1.0000     -19.337389      -526.1971
   1   1.0000     -19.334815      -526.1271
   2   1.0000     -19.324954      -525.8587
   3   1.0000     -19.315899      -525.6123
   4   1.0000     -14.563977      -396.3060
   5   1.0000     -14.560019      -396.1983
   6   1.0000     -14.555355      -396.0713
   7   1.0000     -14.549568      -395.9139
   8   1.0000     -10.505949      -285.8814
   9   1.0000     -10.499238      -285.6988
  10   1.0000     -10.479418      -285.1595
  11   1.0000     -10.479313      -285.1566
  12   1.0000     -10.445542      -284.2377
  13   1.0000     -10.439739      -284.0797
  14   1.0000     -10.418507      -283.5020
  15   1.0000     -10.412616      -283.3417
  16   1.0000     -10.374135      -282.2946
  17   1.0000     -10.365975      -282.0725
  18   1.0000      -1.222925       -33.2775
  19   1.0000      -1.214122       -33.0379
  20   1.0000      -1.196923       -32.5699
  21   1.0000      -1.192323       -32.4448
  22   1.0000      -1.122738       -30.5513
  23   1.0000      -1.098405       -29.8891
  24   1.0000      -1.062065       -28.9003
  25   1.0000      -1.046825       -28.4856
  26   1.0000      -0.985005       -26.8033
  27   1.0000      -0.961694       -26.1690
  28   1.0000      -0.890695       -24.2370
  29   1.0000      -0.845151       -22.9977
  30   1.0000      -0.835640       -22.7389
  31   1.0000      -0.801428       -21.8080
  32   1.0000      -0.783427       -21.3181
  33   1.0000      -0.774848       -21.0847
  34   1.0000      -0.698139       -18.9973
  35   1.0000      -0.693361       -18.8673
  36   1.0000      -0.686016       -18.6674
  37   1.0000      -0.659580       -17.9481
  38   1.0000      -0.658883       -17.9291
  39   1.0000      -0.648143       -17.6369
  40   1.0000      -0.614163       -16.7122
  41   1.0000      -0.598304       -16.2807
  42   1.0000      -0.589849       -16.0506
  43   1.0000      -0.586122       -15.9492
  44   1.0000      -0.583547       -15.8791
  45   1.0000      -0.574231       -15.6256
  46   1.0000      -0.569055       -15.4848
  47   1.0000      -0.561882       -15.2896
  48   1.0000      -0.561193       -15.2708
  49   1.0000      -0.555525       -15.1166
  50   1.0000      -0.544085       -14.8053
  51   1.0000      -0.539771       -14.6879
  52   1.0000      -0.535067       -14.5599
  53   1.0000      -0.532151       -14.4806
  54   1.0000      -0.516760       -14.0617
  55   1.0000      -0.509134       -13.8543
  56   1.0000      -0.485242       -13.2041
  57   1.0000      -0.425936       -11.5903
  58   1.0000      -0.417823       -11.3695
  59   1.0000      -0.408985       -11.1290
  60   1.0000      -0.403159       -10.9705
  61   1.0000      -0.397543       -10.8177
  62   1.0000      -0.394759       -10.7419
  63   1.0000      -0.390757       -10.6330
  64   1.0000      -0.385693       -10.4953
  65   1.0000      -0.345261        -9.3950
  66   1.0000      -0.327378        -8.9084
  67   0.0000       0.004769         0.1298
  68   0.0000       0.028304         0.7702
  69   0.0000       0.031752         0.8640
  70   0.0000       0.038644         1.0516
  71   0.0000       0.055394         1.5073

                 SPIN DOWN ORBITALS
  NO   OCC          E(Eh)            E(eV)
   0   1.0000     -19.331970      -526.0496
   1   1.0000     -19.330030      -525.9968
   2   1.0000     -19.324709      -525.8521
   3   1.0000     -19.315716      -525.6074
   4   1.0000     -14.563439      -396.2913
   5   1.0000     -14.559549      -396.1855
   6   1.0000     -14.555059      -396.0633
   7   1.0000     -14.549164      -395.9029
   8   1.0000     -10.505967      -285.8819
   9   1.0000     -10.499271      -285.6997
  10   1.0000     -10.480424      -285.1868
  11   1.0000     -10.480417      -285.1867
  12   1.0000     -10.445314      -284.2314
  13   1.0000     -10.439387      -284.0702
  14   1.0000     -10.407391      -283.1995
  15   1.0000     -10.401337      -283.0348
  16   1.0000     -10.374634      -282.3081
  17   1.0000     -10.366502      -282.0869
  18   1.0000      -1.221706       -33.2443
  19   1.0000      -1.211731       -32.9729
  20   1.0000      -1.190564       -32.3969
  21   1.0000      -1.186470       -32.2855
  22   1.0000      -1.120114       -30.4798
  23   1.0000      -1.095740       -29.8166
  24   1.0000      -1.060181       -28.8490
  25   1.0000      -1.045318       -28.4446
  26   1.0000      -0.970893       -26.4193
  27   1.0000      -0.945291       -25.7227
  28   1.0000      -0.886352       -24.1189
  29   1.0000      -0.839387       -22.8409
  30   1.0000      -0.826358       -22.4864
  31   1.0000      -0.796268       -21.6675
  32   1.0000      -0.781696       -21.2710
  33   1.0000      -0.773008       -21.0346
  34   1.0000      -0.694086       -18.8871
  35   1.0000      -0.686733       -18.6870
  36   1.0000      -0.680053       -18.5052
  37   1.0000      -0.653172       -17.7737
  38   1.0000      -0.647291       -17.6137
  39   1.0000      -0.643581       -17.5127
  40   1.0000      -0.608623       -16.5615
  41   1.0000      -0.594964       -16.1898
  42   1.0000      -0.582479       -15.8501
  43   1.0000      -0.576898       -15.6982
  44   1.0000      -0.574397       -15.6301
  45   1.0000      -0.568309       -15.4645
  46   1.0000      -0.565943       -15.4001
  47   1.0000      -0.556372       -15.1397
  48   1.0000      -0.551900       -15.0180
  49   1.0000      -0.548232       -14.9182
  50   1.0000      -0.539573       -14.6825
  51   1.0000      -0.531387       -14.4598
  52   1.0000      -0.529136       -14.3985
  53   1.0000      -0.520932       -14.1753
  54   1.0000      -0.503464       -13.7000
  55   1.0000      -0.502639       -13.6775
  56   1.0000      -0.479851       -13.0574
  57   1.0000      -0.422096       -11.4858
  58   1.0000      -0.412718       -11.2306
  59   1.0000      -0.397374       -10.8131
  60   1.0000      -0.393841       -10.7170
  61   1.0000      -0.389175       -10.5900
  62   1.0000      -0.386300       -10.5118
  63   1.0000      -0.382812       -10.4169
  64   1.0000      -0.375998       -10.2314
  65   0.0000      -0.069238        -1.8841
  66   0.0000      -0.045976        -1.2511
  67   0.0000       0.004393         0.1195
  68   0.0000       0.028219         0.7679
  69   0.0000       0.031519         0.8577

----------------------------------------------------------------------------------------------------
          SPIN FLIP ABSORPTION SPECTRUM VIA TRANSITION ELECTRIC DIPOLE MOMENTS
----------------------------------------------------------------------------------------------------
     Transition      Energy     Energy  Wavelength fosc(D2)      D2        DX        DY        DZ
                      (eV)      (cm-1)    (nm)                 (au**2)    (au)      (au)      (au)
----------------------------------------------------------------------------------------------------
  1-3A  ->  2-3A    0.065074     524.9  19052.8   0.000000566   0.00035  -0.01309  -0.00966  -0.00950

Dispersion correction             ... done (  0.0 sec)

MULLIKEN ATOMIC CHARGES AND SPIN DENSITIES
------------------------------------------
   0 O :   -0.682358    0.047906
   1 O :   -0.679962   -0.046628
   2 O :   -0.645181   -0.000404
   3 O :   -0.620235   -0.001861
   4 N :   -0.368355    0.012320
   5 N :   -0.353188   -0.001621
   6 N :    0.053707    0.002027
   7 N :    0.038141    0.006946
   8 C :    0.400360    0.493038
   9 C :    0.731955    0.450776
  10 C :    0.253355   -0.210383
  11 C :    0.361725   -0.263460
  12 C :   -1.383695    0.027636
  13 C :   -1.219419   -0.014668
  14 C :    0.105948   -0.200779
  15 C :   -0.087915   -0.386549
  16 C :    0.364056    0.010165
  17 C :    0.411469    0.015808
  18 H :    0.601047    0.010829
  19 H :    0.491375   -0.002128
  20 H :    0.337566   -0.001681
  21 H :    0.248195    0.022808
  22 H :    0.380955    0.008442
  23 H :    0.348577    0.006790
  24 H :    0.320267    0.019323
  25 H :    0.303642   -0.011113
  26 H :    0.129167    0.000784
  27 H :    0.045120   -0.000640
  28 H :    0.064178    0.003556
  29 H :    0.049504    0.002762
Sum of atomic charges       :    0.0000000

LOEWDIN ATOMIC CHARGES AND SPIN DENSITIES
-----------------------------------------
   0 O :    0.093709    0.043130
   1 O :    0.088481   -0.043405
   2 O :    0.095864    0.000223
   3 O :    0.119025   -0.001451
   4 N :    0.255411   -0.000452
   5 N :    0.264121   -0.002493
   6 N :    0.317348    0.003196
   7 N :    0.321004   -0.004531
   8 C :   -0.004519    0.128890
   9 C :   -0.018663   -0.111085
  10 C :   -0.104582    0.005169
  11 C :   -0.103928   -0.006101
  12 C :    0.219281    0.018625
  13 C :    0.202867   -0.020033
  14 C :   -0.401383    0.018115
  15 C :   -0.393983   -0.025142
  16 C :   -0.491803   -0.000252
  17 C :   -0.493194   -0.000396
  18 H :    0.051760    0.000599
  19 H :    0.060417   -0.000584
  20 H :   -0.006244   -0.000032
  21 H :   -0.020000    0.005558
  22 H :   -0.003935    0.003543
  23 H :    0.030036   -0.007931
  24 H :   -0.020608   -0.002798
  25 H :   -0.013539   -0.000166
  26 H :   -0.017059    0.000090
  27 H :   -0.027466   -0.000172
  28 H :    0.011368    0.000269
  29 H :   -0.009787   -0.000383

  Mayer bond orders larger than 0.100000
B(  0-O , 14-C ) :   1.2838 B(  1-O , 15-C ) :   1.4174 B(  2-O , 16-C ) :   1.5381
B(  3-O , 17-C ) :   1.5598 B(  4-N ,  5-N ) :   0.1026 B(  4-N ,  8-C ) :   0.3127
B(  4-N , 16-C ) :   1.0909 B(  4-N , 18-H ) :  -0.1116 B(  4-N , 26-H ) :   1.0232
B(  5-N ,  9-C ) :   0.2646 B(  5-N , 10-C ) :   0.1441 B(  5-N , 17-C ) :   1.1053
B(  5-N , 27-H ) :   1.1279 B(  6-N ,  8-C ) :  -0.1674 B(  6-N , 10-C ) :   0.1588
B(  6-N , 14-C ) :   1.0850 B(  6-N , 16-C ) :   0.9619 B(  6-N , 28-H ) :   1.0755
B(  7-N ,  9-C ) :  -0.1330 B(  7-N , 11-C ) :   0.1770 B(  7-N , 15-C ) :   1.0199
B(  7-N , 17-C ) :   0.9600 B(  7-N , 29-H ) :   1.0657 B(  8-C ,  9-C ) :   0.2280
B(  8-C , 10-C ) :  -0.1307 B(  8-C , 11-C ) :   0.1322 B(  8-C , 12-C ) :   0.4248
B(  8-C , 14-C ) :   0.7797 B(  8-C , 16-C ) :   0.1211 B(  8-C , 18-H ) :  -0.1792
B(  8-C , 20-H ) :  -0.1261 B(  9-C , 11-C ) :   0.2880 B(  9-C , 13-C ) :   0.5335
B(  9-C , 15-C ) :   0.6848 B(  9-C , 25-H ) :  -0.1035 B( 10-C , 11-C ) :   0.6083
B( 10-C , 15-C ) :   0.1289 B( 10-C , 16-C ) :  -0.1973 B( 10-C , 18-H ) :   0.7542
B( 11-C , 15-C ) :  -0.1776 B( 11-C , 17-C ) :  -0.1777 B( 11-C , 19-H ) :   0.8302
B( 12-C , 20-H ) :   1.0067 B( 12-C , 21-H ) :   0.9360 B( 12-C , 22-H ) :   0.8554
B( 13-C , 23-H ) :   0.9338 B( 13-C , 24-H ) :   0.7644 B( 13-C , 25-H ) :   1.0398

Dispersion correction           -0.059510733
FINAL SINGLE POINT ENERGY      -908.787465074774

DIPOLE MOMENT
-------------

Method             : TDA/CIS
Type of density    : Electron Density
Level              : Relaxed density
State              :   1
Multiplicity       :   3
Irrep              :   0
Energy             :     0.0000000000000000 Eh
Relativity type    :
Basis              : AO
                                X                 Y                 Z
Electronic contribution:     -2.872505787     -10.064479358      -7.484218706
Nuclear contribution   :      2.493388110      11.888988154      10.199473157
                        -----------------------------------------
Total Dipole Moment    :     -0.379117677       1.824508796       2.715254451
                        -----------------------------------------
Magnitude (a.u.)       :      3.293200463
Magnitude (Debye)      :      8.370650351

Rotational constants in cm-1:             0.019091             0.015489             0.012338
Rotational constants in MHz :           572.347179           464.358115           369.885683

                             ****ORCA TERMINATED NORMALLY****
TOTAL RUN TIME: 0 days 0 hours 4 minutes 39 seconds 570 msec
