                         Program Version 6.0.0  -   RELEASE  -
|  1> ! Engrad wB97M-D3BJ def2-TZVPPD
|  2> %pal nprocs 8 end%pal nprocs 16 end
|  3> %tddft nroots 2 Iroot 1
|  4>  sf true
|  5> end
|  6> *xyz 0 3
|  7> O   0.51511210308225 0.96927539268205 -0.00030660121695
|  8> C   0.74783832357796 -0.35167133149759 -4.130519251e-05
|  9> C   -0.65785217230533 -0.57368117749422 0.00011479747715
| 10> H   1.27053414036486 -0.72761725253629 0.88818554087058
| 11> H   1.2702165042901 -0.72805485632878 -0.88827774905728
| 12> H   -1.20935959947889 -0.54718561352844 -0.92660695376367
| 13> H   -1.20918060345221 -0.54686415277888 0.92693227088268
| 14> *
| 15>
| 16>                          ****END OF INPUT****

CARTESIAN COORDINATES (ANGSTROEM)
---------------------------------
  O      0.515112    0.969275   -0.000307
  C      0.747838   -0.351671   -0.000041
  C     -0.657852   -0.573681    0.000115
  H      1.270534   -0.727617    0.888186
  H      1.270217   -0.728055   -0.888278
  H     -1.209360   -0.547186   -0.926607
  H     -1.209181   -0.546864    0.926932

 Total Charge           Charge          ....    0
 Multiplicity           Mult            ....    3
 Number of Electrons    NEL             ....   24
 Basis Dimension        Dim             ....  182

ORBITAL ENERGIES
----------------
                 SPIN UP ORBITALS
  NO   OCC          E(Eh)            E(eV)
   0   1.0000     -19.409092      -528.1482
   1   1.0000     -10.407062      -283.1905
   2   1.0000     -10.338730      -281.3311
   3   1.0000      -1.215063       -33.0635
   4   1.0000      -0.866340       -23.5743
   5   1.0000      -0.741082       -20.1659
   6   1.0000      -0.645539       -17.5660
   7   1.0000      -0.608258       -16.5515
   8   1.0000      -0.550848       -14.9893
   9   1.0000      -0.506165       -13.7734
  10   1.0000      -0.453137       -12.3305
  11   1.0000      -0.438769       -11.9395
  12   1.0000      -0.269869        -7.3435
  13   0.0000       0.040885         1.1125
  14   0.0000       0.063714         1.7337
  15   0.0000       0.072807         1.9812
  16   0.0000       0.085906         2.3376
  17   0.0000       0.116677         3.1750

                 SPIN DOWN ORBITALS
  NO   OCC          E(Eh)            E(eV)
   0   1.0000     -19.380599      -527.3729
   1   1.0000     -10.408224      -283.2222
   2   1.0000     -10.326136      -280.9884
   3   1.0000      -1.154631       -31.4191
   4   1.0000      -0.832092       -22.6424
   5   1.0000      -0.719762       -19.5857
   6   1.0000      -0.602448       -16.3934
   7   1.0000      -0.571803       -15.5595
   8   1.0000      -0.527009       -14.3407
   9   1.0000      -0.473256       -12.8780
  10   1.0000      -0.390878       -10.6363
  11   0.0000      -0.075824        -2.0633
  12   0.0000       0.033154         0.9022
  13   0.0000       0.039373         1.0714
  14   0.0000       0.064128         1.7450
  15   0.0000       0.071466         1.9447

----------------------------------------------------------------------------------------------------
          SPIN FLIP ABSORPTION SPECTRUM VIA TRANSITION ELECTRIC DIPOLE MOMENTS
----------------------------------------------------------------------------------------------------
     Transition      Energy     Energy  Wavelength fosc(D2)      D2        DX        DY        DZ
                      (eV)      (cm-1)    (nm)                 (au**2)    (au)      (au)      (au)
----------------------------------------------------------------------------------------------------
  1-3A  ->  2-3A    2.526216   20375.3   490.8   0.000826763   0.01336  -0.00007  -0.00005   0.11558

Dispersion correction             ... done (  0.0 sec)

MULLIKEN ATOMIC CHARGES AND SPIN DENSITIES
------------------------------------------
   0 O :   -0.515944   -0.128107
   1 C :   -0.141926   -0.058228
   2 C :   -0.299323    0.071453
   3 H :    0.234191    0.034513
   4 H :    0.234220    0.034532
   5 H :    0.244401    0.022916
   6 H :    0.244381    0.022921
Sum of atomic charges       :   -0.0000000

LOEWDIN ATOMIC CHARGES AND SPIN DENSITIES
-----------------------------------------
   0 O :   -0.058727   -0.152429
   1 C :   -0.346886   -0.002203
   2 C :    0.348825    0.121007
   3 H :    0.029841    0.005889
   4 H :    0.029840    0.005895
   5 H :   -0.001444    0.010922
   6 H :   -0.001449    0.010919

  Mayer bond orders larger than 0.100000
B(  0-O ,  1-C ) :   0.7318 B(  0-O ,  2-C ) :   0.8923 B(  1-C ,  2-C ) :   0.7870
B(  1-C ,  3-H ) :   1.0269 B(  1-C ,  4-H ) :   1.0269 B(  2-C ,  5-H ) :   0.9377
B(  2-C ,  6-H ) :   0.9377

Dispersion correction           -0.005638474
FINAL SINGLE POINT ENERGY      -153.810328834699

DIPOLE MOMENT
-------------

Method             : TDA/CIS
Type of density    : Electron Density
Level              : Relaxed density
State              :   1
Multiplicity       :   3
Irrep              :   0
Energy             :     0.0000000000000000 Eh
Relativity type    :
Basis              : AO
                                X                 Y                 Z
Electronic contribution:      0.105642126       1.219014618      -0.000222198
Nuclear contribution   :     -0.685505796      -2.533652563       0.000538088
                        -----------------------------------------
Total Dipole Moment    :     -0.579863670      -1.314637945       0.000315889
                        -----------------------------------------
Magnitude (a.u.)       :      1.436841989
Magnitude (Debye)      :      3.652162094

Rotational constants in cm-1:             1.051098             0.510712             0.397566
Rotational constants in MHz :         31511.122156         15310.768179         11918.743716

                             ****ORCA TERMINATED NORMALLY****
TOTAL RUN TIME: 0 days 0 hours 0 minutes 16 seconds 387 msec
