                         Program Version 6.0.0  -   RELEASE  -
|  1> ! Engrad def2-TZVPPD wB97M-D3BJ
|  2> %pal nprocs 8 end%pal nprocs 64 end
|  3>  %tddft nroots 2 Iroot 2
|  4> sf true
|  5> end
|  6> *xyz 0 3
|  7> O   2.33554392534353 -0.32100668490579 -1.14989578568995
|  8> O   -0.16572505216823 2.83065021888886 -2.24696709680022
|  9> O   0.20615564064916 -3.79397392640348 0.79024124423859
| 10> O   -2.11167964840999 -1.06880181013145 -1.42940611196363
| 11> N   0.3957749226555 -1.88618396311114 2.00579998191471
| 12> N   -1.37592305305248 -0.19122652761066 0.51507409848493
| 13> N   1.07175848549176 -1.94832974832784 -0.21829058312442
| 14> N   -0.77121927795639 0.73885773165752 -1.59912638317491
| 15> C   1.39984714101003 0.13855494375032 0.97345423283811
| 16> C   -0.34879012994171 2.72803941547335 -0.08807181208693
| 17> C   0.5897668597483 -0.47414338889895 2.06944252954147
| 18> C   -0.39404799483104 0.40761767140037 1.313177279626
| 19> C   2.28797968026987 1.31133607458169 1.22730309605918
| 20> C   -1.6031761433712 3.38685791123246 0.31821791717461
| 21> C   1.65328765899926 -0.68933062496594 -0.22265875327943
| 22> C   -0.44334626052385 2.05014731549922 -1.34253217023944
| 23> C   0.5249958907301 -2.63106572464735 0.86505865979088
| 24> C   -1.46626401911804 -0.22052099727547 -0.86139078296298
| 25> H   0.83333054555906 -0.14741840746004 3.0715435934969
| 26> H   -0.52965774320672 1.40483165242676 1.69856012291948
| 27> H   2.41937413539734 1.89406850979718 0.32271502176116
| 28> H   1.86338768261108 1.95759101629029 1.99137954198079
| 29> H   3.26453225516124 0.96392779767477 1.56726867851547
| 30> H   -2.5071104505058 2.78266174764506 0.19550561438082
| 31> H   -1.55807005028456 3.84015648920421 1.30410281430683
| 32> H   -1.68236291492605 4.20182701288791 -0.41536298406258
| 33> H   -0.03155502046154 -2.37003176124624 2.77461091467478
| 34> H   -1.83819529357457 -1.00131398107865 0.90100178917675
| 35> H   1.22667639421597 -2.51466639465989 -1.03744327968005
| 36> H   -0.79268816551009 0.53588843231287 -2.58871138781689
| 37> *
| 38>
| 39>                          ****END OF INPUT****

CARTESIAN COORDINATES (ANGSTROEM)
---------------------------------
  O      2.335544   -0.321007   -1.149896
  O     -0.165725    2.830650   -2.246967
  O      0.206156   -3.793974    0.790241
  O     -2.111680   -1.068802   -1.429406
  N      0.395775   -1.886184    2.005800
  N     -1.375923   -0.191227    0.515074
  N      1.071758   -1.948330   -0.218291
  N     -0.771219    0.738858   -1.599126
  C      1.399847    0.138555    0.973454
  C     -0.348790    2.728039   -0.088072
  C      0.589767   -0.474143    2.069443
  C     -0.394048    0.407618    1.313177
  C      2.287980    1.311336    1.227303
  C     -1.603176    3.386858    0.318218
  C      1.653288   -0.689331   -0.222659
  C     -0.443346    2.050147   -1.342532
  C      0.524996   -2.631066    0.865059
  C     -1.466264   -0.220521   -0.861391
  H      0.833331   -0.147418    3.071544
  H     -0.529658    1.404832    1.698560
  H      2.419374    1.894069    0.322715
  H      1.863388    1.957591    1.991380
  H      3.264532    0.963928    1.567269
  H     -2.507110    2.782662    0.195506
  H     -1.558070    3.840156    1.304103
  H     -1.682363    4.201827   -0.415363
  H     -0.031555   -2.370032    2.774611
  H     -1.838195   -1.001314    0.901002
  H      1.226676   -2.514666   -1.037443
  H     -0.792688    0.535888   -2.588711

 Total Charge           Charge          ....    0
 Multiplicity           Mult            ....    3
 Number of Electrons    NEL             ....  132
 Basis Dimension        Dim             ....  882

ORBITAL ENERGIES
----------------
                 SPIN UP ORBITALS
  NO   OCC          E(Eh)            E(eV)
   0   1.0000     -19.336297      -526.1674
   1   1.0000     -19.330466      -526.0087
   2   1.0000     -19.328042      -525.9428
   3   1.0000     -19.321237      -525.7576
   4   1.0000     -14.571152      -396.5012
   5   1.0000     -14.570902      -396.4944
   6   1.0000     -14.566068      -396.3629
   7   1.0000     -14.565080      -396.3360
   8   1.0000     -10.515012      -286.1280
   9   1.0000     -10.508245      -285.9439
  10   1.0000     -10.486235      -285.3449
  11   1.0000     -10.484576      -285.2998
  12   1.0000     -10.445592      -284.2390
  13   1.0000     -10.442831      -284.1639
  14   1.0000     -10.417132      -283.4646
  15   1.0000     -10.403013      -283.0804
  16   1.0000     -10.375630      -282.3352
  17   1.0000     -10.366926      -282.0984
  18   1.0000      -1.227124       -33.3917
  19   1.0000      -1.221270       -33.2324
  20   1.0000      -1.203203       -32.7408
  21   1.0000      -1.198633       -32.6165
  22   1.0000      -1.123804       -30.5803
  23   1.0000      -1.094537       -29.7839
  24   1.0000      -1.073479       -29.2109
  25   1.0000      -1.063545       -28.9405
  26   1.0000      -0.988154       -26.8890
  27   1.0000      -0.939743       -25.5717
  28   1.0000      -0.881983       -24.0000
  29   1.0000      -0.826026       -22.4773
  30   1.0000      -0.815436       -22.1891
  31   1.0000      -0.806864       -21.9559
  32   1.0000      -0.790254       -21.5039
  33   1.0000      -0.779519       -21.2118
  34   1.0000      -0.722233       -19.6530
  35   1.0000      -0.699660       -19.0387
  36   1.0000      -0.692937       -18.8558
  37   1.0000      -0.660886       -17.9836
  38   1.0000      -0.641768       -17.4634
  39   1.0000      -0.633724       -17.2445
  40   1.0000      -0.615881       -16.7590
  41   1.0000      -0.605937       -16.4884
  42   1.0000      -0.600527       -16.3412
  43   1.0000      -0.590897       -16.0791
  44   1.0000      -0.579350       -15.7649
  45   1.0000      -0.569896       -15.5076
  46   1.0000      -0.565142       -15.3783
  47   1.0000      -0.560828       -15.2609
  48   1.0000      -0.558066       -15.1857
  49   1.0000      -0.554780       -15.0963
  50   1.0000      -0.544933       -14.8284
  51   1.0000      -0.543270       -14.7831
  52   1.0000      -0.533121       -14.5070
  53   1.0000      -0.515166       -14.0184
  54   1.0000      -0.509213       -13.8564
  55   1.0000      -0.494063       -13.4441
  56   1.0000      -0.439427       -11.9574
  57   1.0000      -0.425609       -11.5814
  58   1.0000      -0.418020       -11.3749
  59   1.0000      -0.409059       -11.1311
  60   1.0000      -0.404426       -11.0050
  61   1.0000      -0.397801       -10.8247
  62   1.0000      -0.394503       -10.7350
  63   1.0000      -0.391140       -10.6435
  64   1.0000      -0.381889       -10.3917
  65   1.0000      -0.362718        -9.8701
  66   1.0000      -0.300958        -8.1895
  67   0.0000       0.008881         0.2417
  68   0.0000       0.018757         0.5104
  69   0.0000       0.031067         0.8454
  70   0.0000       0.034796         0.9468
  71   0.0000       0.040718         1.1080

                 SPIN DOWN ORBITALS
  NO   OCC          E(Eh)            E(eV)
   0   1.0000     -19.330695      -526.0149
   1   1.0000     -19.330368      -526.0060
   2   1.0000     -19.328040      -525.9427
   3   1.0000     -19.321235      -525.7575
   4   1.0000     -14.571177      -396.5019
   5   1.0000     -14.570847      -396.4929
   6   1.0000     -14.565965      -396.3600
   7   1.0000     -14.565042      -396.3349
   8   1.0000     -10.515042      -286.1288
   9   1.0000     -10.508249      -285.9440
  10   1.0000     -10.486266      -285.3458
  11   1.0000     -10.485096      -285.3140
  12   1.0000     -10.445353      -284.2325
  13   1.0000     -10.442484      -284.1544
  14   1.0000     -10.416703      -283.4529
  15   1.0000     -10.375910      -282.3429
  16   1.0000     -10.375523      -282.3323
  17   1.0000     -10.366826      -282.0957
  18   1.0000      -1.226295       -33.3692
  19   1.0000      -1.220882       -33.2219
  20   1.0000      -1.198565       -32.6146
  21   1.0000      -1.194776       -32.5115
  22   1.0000      -1.123523       -30.5726
  23   1.0000      -1.093868       -29.7656
  24   1.0000      -1.072058       -29.1722
  25   1.0000      -1.063215       -28.9315
  26   1.0000      -0.987397       -26.8684
  27   1.0000      -0.911136       -24.7933
  28   1.0000      -0.881401       -23.9841
  29   1.0000      -0.824678       -22.4406
  30   1.0000      -0.811756       -22.0890
  31   1.0000      -0.802096       -21.8261
  32   1.0000      -0.786842       -21.4111
  33   1.0000      -0.774039       -21.0627
  34   1.0000      -0.714845       -19.4519
  35   1.0000      -0.697071       -18.9683
  36   1.0000      -0.688930       -18.7467
  37   1.0000      -0.658835       -17.9278
  38   1.0000      -0.637407       -17.3447
  39   1.0000      -0.629179       -17.1208
  40   1.0000      -0.613272       -16.6880
  41   1.0000      -0.601041       -16.3551
  42   1.0000      -0.588577       -16.0160
  43   1.0000      -0.583085       -15.8666
  44   1.0000      -0.574257       -15.6263
  45   1.0000      -0.562932       -15.3182
  46   1.0000      -0.558296       -15.1920
  47   1.0000      -0.556652       -15.1473
  48   1.0000      -0.554918       -15.1001
  49   1.0000      -0.552002       -15.0208
  50   1.0000      -0.537490       -14.6259
  51   1.0000      -0.532962       -14.5026
  52   1.0000      -0.528694       -14.3865
  53   1.0000      -0.514628       -14.0037
  54   1.0000      -0.497314       -13.5326
  55   1.0000      -0.493088       -13.4176
  56   1.0000      -0.427726       -11.6390
  57   1.0000      -0.423869       -11.5341
  58   1.0000      -0.417587       -11.3631
  59   1.0000      -0.402096       -10.9416
  60   1.0000      -0.394897       -10.7457
  61   1.0000      -0.392571       -10.6824
  62   1.0000      -0.384416       -10.4605
  63   1.0000      -0.381150       -10.3716
  64   1.0000      -0.359266        -9.7761
  65   0.0000      -0.060916        -1.6576
  66   0.0000       0.006701         0.1823
  67   0.0000       0.014628         0.3981
  68   0.0000       0.030579         0.8321
  69   0.0000       0.033174         0.9027

----------------------------------------------------------------------------------------------------
          SPIN FLIP ABSORPTION SPECTRUM VIA TRANSITION ELECTRIC DIPOLE MOMENTS
----------------------------------------------------------------------------------------------------
     Transition      Energy     Energy  Wavelength fosc(D2)      D2        DX        DY        DZ
                      (eV)      (cm-1)    (nm)                 (au**2)    (au)      (au)      (au)
----------------------------------------------------------------------------------------------------
  1-3A  ->  2-3A    2.118842   17089.6   585.2   0.000441323   0.00850  -0.04346  -0.07114   0.03939

Dispersion correction             ... done (  0.1 sec)

MULLIKEN ATOMIC CHARGES AND SPIN DENSITIES
------------------------------------------
   0 O :   -0.667547   -0.000237
   1 O :   -0.576342   -0.002358
   2 O :   -0.646436    0.000008
   3 O :   -0.645432   -0.000045
   4 N :   -0.216244   -0.000226
   5 N :   -0.145596    0.001472
   6 N :    0.016635   -0.000694
   7 N :    0.062839   -0.001590
   8 C :    1.322069    0.009388
   9 C :    0.017555    0.132861
  10 C :    0.249614   -0.001485
  11 C :   -0.795569   -0.042486
  12 C :   -1.640971    0.005989
  13 C :   -1.049482    0.069873
  14 C :    0.172544    0.005282
  15 C :    0.648074   -0.175259
  16 C :    0.439641    0.000319
  17 C :    0.475095    0.009969
  18 H :    0.309289    0.000854
  19 H :    0.480684    0.002752
  20 H :    0.287372   -0.000248
  21 H :    0.329196   -0.007934
  22 H :    0.413036   -0.002357
  23 H :    0.281890    0.003574
  24 H :    0.303214   -0.014123
  25 H :    0.387506    0.006025
  26 H :    0.035348   -0.000184
  27 H :    0.100676   -0.000741
  28 H :    0.032370   -0.000005
  29 H :    0.018973    0.001606
Sum of atomic charges       :    0.0000000

LOEWDIN ATOMIC CHARGES AND SPIN DENSITIES
-----------------------------------------
   0 O :    0.106037   -0.000862
   1 O :    0.104920   -0.012479
   2 O :    0.093154    0.000028
   3 O :    0.100718   -0.000356
   4 N :    0.283092   -0.000404
   5 N :    0.267024   -0.000645
   6 N :    0.338362   -0.000345
   7 N :    0.334802   -0.001912
   8 C :   -0.118296   -0.002934
   9 C :    0.140410    0.045280
  10 C :   -0.110102   -0.001052
  11 C :    0.023998   -0.001727
  12 C :    0.182813   -0.001616
  13 C :    0.103259   -0.004741
  14 C :   -0.397663   -0.000663
  15 C :   -0.484269   -0.007805
  16 C :   -0.482169   -0.000077
  17 C :   -0.467802   -0.000467
  18 H :    0.054401   -0.000039
  19 H :   -0.011032   -0.001392
  20 H :   -0.006346   -0.000765
  21 H :   -0.001629   -0.000420
  22 H :    0.009473   -0.000401
  23 H :    0.009249   -0.001633
  24 H :   -0.009103   -0.000015
  25 H :    0.001253   -0.002189
  26 H :   -0.027050   -0.000028
  27 H :   -0.025783    0.000004
  28 H :   -0.005706   -0.000040
  29 H :   -0.006016   -0.000305

  Mayer bond orders larger than 0.100000
B(  0-O ,  8-C ) :  -0.1239 B(  0-O , 14-C ) :   1.5418 B(  1-O , 15-C ) :   1.3679
B(  2-O , 16-C ) :   1.5732 B(  3-O , 17-C ) :   1.4946 B(  4-N ,  8-C ) :   0.1565
B(  4-N , 10-C ) :   0.4843 B(  4-N , 16-C ) :   1.0992 B(  4-N , 26-H ) :   1.1206
B(  5-N , 11-C ) :   0.6713 B(  5-N , 17-C ) :   0.9757 B(  5-N , 19-H ) :  -0.1359
B(  5-N , 27-H ) :   1.0400 B(  6-N , 10-C ) :   0.1485 B(  6-N , 14-C ) :   1.0577
B(  6-N , 16-C ) :   0.9415 B(  6-N , 28-H ) :   1.1093 B(  7-N , 15-C ) :   0.9536
B(  7-N , 17-C ) :   0.9638 B(  7-N , 29-H ) :   1.1196 B(  8-C , 10-C ) :   0.5950
B(  8-C , 11-C ) :   0.5255 B(  8-C , 14-C ) :   0.4923 B(  8-C , 18-H ) :  -0.1045
B(  8-C , 20-H ) :  -0.1382 B(  8-C , 21-H ) :  -0.1340 B(  9-C , 13-C ) :   0.4026
B(  9-C , 15-C ) :   0.6943 B( 10-C , 11-C ) :   0.7764 B( 10-C , 12-C ) :  -0.1154
B( 10-C , 14-C ) :  -0.1137 B( 10-C , 16-C ) :  -0.1121 B( 10-C , 18-H ) :   1.0658
B( 11-C , 14-C ) :   0.1251 B( 11-C , 19-H ) :   0.9520 B( 12-C , 20-H ) :   1.0711
B( 12-C , 21-H ) :   1.0508 B( 12-C , 22-H ) :   0.7593 B( 13-C , 23-H ) :   0.9519
B( 13-C , 24-H ) :   0.9809 B( 13-C , 25-H ) :   0.8904

Dispersion correction           -0.056945894
FINAL SINGLE POINT ENERGY      -908.644042733633

DIPOLE MOMENT
-------------

Method             : TDA/CIS
Type of density    : Electron Density
Level              : Relaxed density
State              :   2
Multiplicity       :   3
Irrep              :   0
Energy             :     0.0000000000000000 Eh
Relativity type    :
Basis              : AO
                                X                 Y                 Z
Electronic contribution:     -0.052473996      -9.753891760      -6.298695016
Nuclear contribution   :     -0.353917501      10.775822112       8.844990686
                        -----------------------------------------
Total Dipole Moment    :     -0.406391497       1.021930352       2.546295670
                        -----------------------------------------
Magnitude (a.u.)       :      2.773646937
Magnitude (Debye)      :      7.050050238

Rotational constants in cm-1:             0.022655             0.012319             0.011238
Rotational constants in MHz :           679.182562           369.317797           336.895383

                             ****ORCA TERMINATED NORMALLY****
TOTAL RUN TIME: 0 days 0 hours 4 minutes 38 seconds 895 msec
