                         Program Version 6.0.0  -   RELEASE  -
|  1> ! Opt wB97M-D3BJ def2-TZVPPD
|  2> %pal nprocs 8 end %pal nprocs 64 end
|  3> %geom
|  4> Constraints
|  5>     {A 2 1 0 93.5593220338983 C }
|  6> end
|  7> MaxIter 200
|  8> end
|  9> *xyz 0 1
| 10> O   0.8388426771137811 1.0242456117500627 0.0
| 11> C   0.7509 -0.4065 0.0
| 12> C   -0.7502 -0.4076 0.0
| 13> H   1.2625 -0.6786 0.9136
| 14> H   1.2625 -0.6787 -0.9136
| 15> H   -1.2614 -0.6806 -0.9136
| 16> H   -1.2614 -0.6805 0.9136
| 17> *
| 18>
| 19>                          ****END OF INPUT****
 Total Charge           Charge          ....    0
 Multiplicity           Mult            ....    1
 Number of Electrons    NEL             ....   24
Dispersion correction           -0.005541258
FINAL SINGLE POINT ENERGY      -153.780757215108
Dispersion correction             ... done (  0.1 sec)
Dispersion correction           -0.005623021
FINAL SINGLE POINT ENERGY      -153.798899725469
Dispersion correction             ... done (  0.1 sec)
Dispersion correction           -0.005663292
FINAL SINGLE POINT ENERGY      -153.808199919531
Dispersion correction             ... done (  0.1 sec)
FINAL SINGLE POINT ENERGY      -153.814925059356
FINAL SINGLE POINT ENERGY      -153.815746818108
FINAL SINGLE POINT ENERGY      -153.815782604661
Dispersion correction             ... done (  0.1 sec)
Dispersion correction           -0.005672978
FINAL SINGLE POINT ENERGY      -153.815787295052
Dispersion correction             ... done (  0.1 sec)
Dispersion correction           -0.005672575
FINAL SINGLE POINT ENERGY      -153.815787905557
Dispersion correction             ... done (  0.0 sec)
                    ***********************HURRAY********************

CARTESIAN COORDINATES (ANGSTROEM)
---------------------------------
  O      0.611338    0.988026   -0.000292
  C      0.756434   -0.343380   -0.000094
  C     -0.651569   -0.586049    0.000118
  H      1.269182   -0.743263    0.885343
  H      1.268947   -0.743692   -0.885473
  H     -1.206445   -0.540084   -0.925271
  H     -1.206144   -0.539812    0.925669

 Multiplicity           Mult            ....    1
 Number of Electrons    NEL             ....   24
 Basis Dimension        Dim             ....  182

ORBITAL ENERGIES
----------------

  NO   OCC          E(Eh)            E(eV)
   0   2.0000     -19.334852      -526.1281
   1   2.0000     -10.436341      -283.9873
   2   2.0000     -10.396978      -282.9161
   3   2.0000      -1.138513       -30.9805
   4   2.0000      -0.873445       -23.7677
   5   2.0000      -0.734133       -19.9768
   6   2.0000      -0.625017       -17.0076
   7   2.0000      -0.577610       -15.7176
   8   2.0000      -0.516786       -14.0625
   9   2.0000      -0.509170       -13.8552
  10   2.0000      -0.379474       -10.3260
  11   2.0000      -0.359702        -9.7880
  12   0.0000      -0.034322        -0.9339
  13   0.0000       0.038815         1.0562
  14   0.0000       0.060976         1.6592
  15   0.0000       0.076557         2.0832
  16   0.0000       0.097993         2.6665

MULLIKEN ATOMIC CHARGES
-----------------------
   0 O :   -0.496557
   1 C :   -0.089182
   2 C :   -0.286408
   3 H :    0.217735
   4 H :    0.217722
   5 H :    0.218346
   6 H :    0.218344
Sum of atomic charges:   -0.0000000

LOEWDIN ATOMIC CHARGES
----------------------
   0 O :   -0.015772
   1 C :   -0.372947
   2 C :    0.355999
   3 H :    0.023847
   4 H :    0.023845
   5 H :   -0.007484
   6 H :   -0.007488

  Mayer bond orders larger than 0.100000
B(  0-O ,  1-C ) :   0.6850 B(  0-O ,  2-C ) :   0.9346 B(  1-C ,  2-C ) :   0.7699
B(  1-C ,  3-H ) :   1.0456 B(  1-C ,  4-H ) :   1.0457 B(  2-C ,  5-H ) :   0.9648
B(  2-C ,  6-H ) :   0.9648

Dispersion correction           -0.005672506
FINAL SINGLE POINT ENERGY      -153.815788029930

DIPOLE MOMENT
-------------

Method             : SCF
Type of density    : Electron Density
Multiplicity       :   1
Irrep              :   0
Energy             :  -153.8101155243284381 Eh
Relativity type    :
Basis              : AO
                                X                 Y                 Z
Electronic contribution:      0.240158481       1.403492374      -0.000332441
Nuclear contribution   :     -0.828191840      -2.569437637       0.000599937
                        -----------------------------------------
Total Dipole Moment    :     -0.588033359      -1.165945263       0.000267496
                        -----------------------------------------
Magnitude (a.u.)       :      1.305837532
Magnitude (Debye)      :      3.319175227

Rotational constants in cm-1:             1.102257             0.476378             0.382549
Rotational constants in MHz :         33044.819483         14281.467412         11468.543715

                             ****ORCA TERMINATED NORMALLY****
TOTAL RUN TIME: 0 days 0 hours 1 minutes 56 seconds 797 msec
