                         Program Version 6.0.0  -   RELEASE  -
|  1> ! Opt wB97M-D3BJ def2-TZVPPD
|  2> %pal nprocs 8 end %pal nprocs 64 end
|  3> %geom
|  4> Constraints
|  5>     {A 2 1 0 123.63636363636364 C }
|  6> end
|  7> MaxIter 500
|  8> end
|  9> *xyz 0 1
| 10> O   -0.0007 0.8141 0.0
| 11> C   0.7509 -0.4065 0.0
| 12> C   -0.7502 -0.4076 0.0
| 13> H   1.2625 -0.6786 0.9136
| 14> H   1.2625 -0.6787 -0.9136
| 15> H   -1.2614 -0.6806 -0.9136
| 16> H   -1.2614 -0.6805 0.9136
| 17> *
| 18>
| 19>                          ****END OF INPUT****
 Total Charge           Charge          ....    0
 Multiplicity           Mult            ....    1
 Number of Electrons    NEL             ....   24
Dispersion correction           -0.005760932
FINAL SINGLE POINT ENERGY      -153.598605710462
Dispersion correction             ... done (  0.1 sec)
Dispersion correction           -0.005655867
FINAL SINGLE POINT ENERGY      -153.692041031915
Dispersion correction             ... done (  0.1 sec)
Dispersion correction           -0.005579943
FINAL SINGLE POINT ENERGY      -153.714889923264
Dispersion correction             ... done (  0.1 sec)
FINAL SINGLE POINT ENERGY      -153.727649548745
FINAL SINGLE POINT ENERGY      -153.737871969284
FINAL SINGLE POINT ENERGY      -153.743074902224
FINAL SINGLE POINT ENERGY      -153.746879664006
FINAL SINGLE POINT ENERGY      -153.758183136624
FINAL SINGLE POINT ENERGY      -153.772592800481
FINAL SINGLE POINT ENERGY      -153.791668436724
FINAL SINGLE POINT ENERGY      -153.931775183325
FINAL SINGLE POINT ENERGY      -153.931795421878
FINAL SINGLE POINT ENERGY      -153.931826363863
FINAL SINGLE POINT ENERGY      -153.931861951827
FINAL SINGLE POINT ENERGY      -153.931895850356
FINAL SINGLE POINT ENERGY      -153.931916863180
FINAL SINGLE POINT ENERGY      -153.931927467045
Dispersion correction             ... done (  0.1 sec)
Dispersion correction           -0.005536875
FINAL SINGLE POINT ENERGY      -153.931932731808
Dispersion correction             ... done (  0.1 sec)
Dispersion correction           -0.005537345
FINAL SINGLE POINT ENERGY      -153.931934859458
Dispersion correction             ... done (  0.1 sec)
                    ***********************HURRAY********************

CARTESIAN COORDINATES (ANGSTROEM)
---------------------------------
  O      0.537033    1.350399    0.090108
  C      0.555703    0.201107   -0.262284
  C     -0.428787   -0.828266    0.208039
  H      0.104493   -1.649886    0.688141
  H      1.325956   -0.154727   -0.972840
  H     -0.952758   -1.250596   -0.650523
  H     -1.139440   -0.386431    0.899358

 Multiplicity           Mult            ....    1
 Number of Electrons    NEL             ....   24
 Basis Dimension        Dim             ....  182

ORBITAL ENERGIES
----------------

  NO   OCC          E(Eh)            E(eV)
   0   2.0000     -19.338993      -526.2408
   1   2.0000     -10.442962      -284.1674
   2   2.0000     -10.356447      -281.8132
   3   2.0000      -1.188012       -32.3274
   4   2.0000      -0.882694       -24.0193
   5   2.0000      -0.703409       -19.1407
   6   2.0000      -0.598389       -16.2830
   7   2.0000      -0.560144       -15.2423
   8   2.0000      -0.553106       -15.0508
   9   2.0000      -0.508008       -13.8236
  10   2.0000      -0.475555       -12.9405
  11   2.0000      -0.368583       -10.0297
  12   0.0000       0.037846         1.0298
  13   0.0000       0.054213         1.4752
  14   0.0000       0.059167         1.6100
  15   0.0000       0.083517         2.2726
  16   0.0000       0.086375         2.3504

MULLIKEN ATOMIC CHARGES
-----------------------
   0 O :   -0.474799
   1 C :    0.236789
   2 C :   -0.695551
   3 H :    0.225589
   4 H :    0.241660
   5 H :    0.224813
   6 H :    0.241500
Sum of atomic charges:   -0.0000000

LOEWDIN ATOMIC CHARGES
----------------------
   0 O :    0.066740
   1 C :   -0.226137
   2 C :    0.167856
   3 H :   -0.011509
   4 H :    0.023463
   5 H :   -0.011440
   6 H :   -0.008973

  Mayer bond orders larger than 0.100000
B(  0-O ,  1-C ) :   1.7707 B(  1-C ,  2-C ) :   0.7611 B(  1-C ,  4-H ) :   0.9850
B(  2-C ,  3-H ) :   0.9930 B(  2-C ,  5-H ) :   0.9929 B(  2-C ,  6-H ) :   0.9573

Dispersion correction           -0.005537970
FINAL SINGLE POINT ENERGY      -153.931935770082

DIPOLE MOMENT
-------------

Method             : SCF
Type of density    : Electron Density
Multiplicity       :   1
Irrep              :   0
Energy             :  -153.9263977997603092 Eh
Relativity type    :
Basis              : AO
                                X                 Y                 Z
Electronic contribution:      1.285030895       3.018687641      -0.119539966
Nuclear contribution   :     -1.421019925      -4.115687366      -0.096792770
                        -----------------------------------------
Total Dipole Moment    :     -0.135989030      -1.096999725      -0.216332737
                        -----------------------------------------
Magnitude (a.u.)       :      1.126366400
Magnitude (Debye)      :      2.862995862

Rotational constants in cm-1:             1.890160             0.343191             0.306809
Rotational constants in MHz :         56665.566108         10288.620730          9197.899355

                             ****ORCA TERMINATED NORMALLY****
TOTAL RUN TIME: 0 days 0 hours 9 minutes 21 seconds 68 msec
