                         Program Version 6.0.0  -   RELEASE  -
|  1> ! opt def2-TZVPPD wB97M-D3BJ
|  2> %pal nprocs 8 end%pal nprocs 32 end
|  3> %geom Constraints
|  4> {B 9 8 3.2 C}
|  5> {A 8 9 11 98.0 C}
|  6> end
|  7> MaxIter 300
|  8> end
|  9> *xyz 0 1
| 10> O   2.98579685529314 0.88758230159078 -0.86184571092411
| 11> O   -0.03983205397054 0.68929041702508 -2.10362336723772
| 12> O   0.93431434349854 -3.13274393337945 -0.68767288184107
| 13> O   -3.75829998830163 -0.84727300865116 -0.0472717177755
| 14> N   0.21184538946282 -1.54604804365365 0.7617588924445
| 15> N   -2.13631993928911 0.03188773433438 1.27350571071531
| 16> N   2.02598672506387 -1.14318467211666 -0.64531219127023
| 17> N   -1.91814233924584 0.03137116037665 -1.04498946748291
| 18> C   1.18097737274226 0.71693507080484 0.70173889017321
| 19> C   -0.20686880480777 1.27024627933494 0.21345042231937
| 20> C   0.41441080275909 -0.34173258966541 1.52336266615173
| 21> C   -0.82922175114212 0.58960593673968 1.44434972027296
| 22> C   1.92822011286806 1.69488653817281 1.5963734975385
| 23> C   -0.37809776891576 2.77134929626422 0.04819649358288
| 24> C   2.1403947470937 0.1972384729179 -0.35038567829864
| 25> C   -0.67361678962426 0.6214190571346 -1.0793014500539
| 26> C   1.04142578622994 -2.02697492875068 -0.21027082435993
| 27> C   -2.68467002550422 -0.30396816036989 0.07167054343891
| 28> H   0.80817443950001 -0.54572267081061 2.51895215321335
| 29> H   -0.83785272399001 1.27240685039143 2.28901317073582
| 30> H   2.31167340578204 2.52284411740894 1.00913016264629
| 31> H   1.28982602448342 2.08257620823614 2.38710022492991
| 32> H   2.77390820759972 1.19140411795486 2.06045858523949
| 33> H   -1.41857211141493 3.00964947214868 -0.16882755561625
| 34> H   -0.09065531563179 3.29799318042223 0.95389844358819
| 35> H   0.23426221611057 3.12492645074476 -0.77764887675592
| 36> H   -0.46772570547622 -2.21560145172536 1.0787081584806
| 37> H   -2.71769301149571 -0.17090724573546 2.06627440900372
| 38> H   2.60065167263658 -1.49057255715425 -1.3966820077142
| 39> H   -2.27169977231386 -0.32388339999036 -1.91951041514436
| 40> *
| 41>
| 42>                          ****END OF INPUT****
 Total Charge           Charge          ....    0
 Multiplicity           Mult            ....    1
 Number of Electrons    NEL             ....  132
Dispersion correction           -0.052676169
FINAL SINGLE POINT ENERGY      -908.548057606051
Dispersion correction             ... done (  0.0 sec)
Dispersion correction           -0.053023025
FINAL SINGLE POINT ENERGY      -908.609374939768
Dispersion correction             ... done (  0.0 sec)
Dispersion correction           -0.053471582
FINAL SINGLE POINT ENERGY      -908.664208492846
Dispersion correction             ... done (  0.0 sec)
FINAL SINGLE POINT ENERGY      -908.736424085226
FINAL SINGLE POINT ENERGY      -908.807948836652
FINAL SINGLE POINT ENERGY      -908.849072832600
FINAL SINGLE POINT ENERGY      -908.874193936660
FINAL SINGLE POINT ENERGY      -908.899945406591
FINAL SINGLE POINT ENERGY      -908.915036932229
FINAL SINGLE POINT ENERGY      -908.920725020027
FINAL SINGLE POINT ENERGY      -908.931392517251
FINAL SINGLE POINT ENERGY      -908.931444193238
FINAL SINGLE POINT ENERGY      -908.931397080176
FINAL SINGLE POINT ENERGY      -908.931469273788
FINAL SINGLE POINT ENERGY      -908.931526854558
FINAL SINGLE POINT ENERGY      -908.931572363958
FINAL SINGLE POINT ENERGY      -908.931582212279
Dispersion correction             ... done (  0.0 sec)
Dispersion correction           -0.057562790
FINAL SINGLE POINT ENERGY      -908.931587924729
Dispersion correction             ... done (  0.0 sec)
Dispersion correction           -0.057546573
FINAL SINGLE POINT ENERGY      -908.931591740226
Dispersion correction             ... done (  0.0 sec)
                    ***********************HURRAY********************

CARTESIAN COORDINATES (ANGSTROEM)
---------------------------------
  O      2.922086    1.252178   -0.502064
  O     -0.537996    0.426582   -1.849253
  O      1.419784   -2.833247   -1.813972
  O     -3.092809   -1.364511    1.439540
  N      0.795927   -2.038133    0.226087
  N     -2.375565    0.787512    1.663728
  N      2.214546   -0.811345   -1.108884
  N     -1.915832   -0.389170   -0.254193
  C      1.514508    0.090893    1.013021
  C     -0.988944    1.820051    0.021690
  C      0.833100   -1.049511    1.178970
  C     -1.656703    1.860925    1.178834
  C      1.612571    1.159899    2.052934
  C     -0.181061    2.954946   -0.520127
  C      2.271850    0.264112   -0.230111
  C     -1.095414    0.605935   -0.788504
  C      1.470443   -1.963230   -0.977131
  C     -2.511903   -0.402278    0.986112
  H      0.262944   -1.254562    2.073220
  H     -1.641694    2.729281    1.819729
  H      1.343077    2.128490    1.639683
  H      0.957866    0.939593    2.893515
  H      2.634423    1.245689    2.418741
  H     -0.559030    3.260541   -1.493827
  H     -0.216532    3.807896    0.154037
  H      0.857512    2.661239   -0.659818
  H      0.261044   -2.875193    0.371763
  H     -2.830695    0.829936    2.557310
  H      2.675572   -0.689848   -1.996573
  H     -1.990474   -1.239668   -0.789858

 Multiplicity           Mult            ....    1
 Number of Electrons    NEL             ....  132
 Basis Dimension        Dim             ....  882

ORBITAL ENERGIES
----------------

  NO   OCC          E(Eh)            E(eV)
   0   2.0000     -19.329116      -525.9720
   1   2.0000     -19.326513      -525.9012
   2   2.0000     -19.317158      -525.6466
   3   2.0000     -19.315707      -525.6071
   4   2.0000     -14.586356      -396.9149
   5   2.0000     -14.575867      -396.6295
   6   2.0000     -14.572643      -396.5418
   7   2.0000     -14.559902      -396.1951
   8   2.0000     -10.515948      -286.1535
   9   2.0000     -10.503204      -285.8067
  10   2.0000     -10.481298      -285.2106
  11   2.0000     -10.472940      -284.9832
  12   2.0000     -10.432328      -283.8781
  13   2.0000     -10.428371      -283.7704
  14   2.0000     -10.381217      -282.4873
  15   2.0000     -10.376872      -282.3690
  16   2.0000     -10.358316      -281.8641
  17   2.0000     -10.352076      -281.6943
  18   2.0000      -1.228800       -33.4373
  19   2.0000      -1.216443       -33.1011
  20   2.0000      -1.196773       -32.5658
  21   2.0000      -1.186188       -32.2778
  22   2.0000      -1.124666       -30.6037
  23   2.0000      -1.114849       -30.3366
  24   2.0000      -1.072439       -29.1826
  25   2.0000      -1.061264       -28.8785
  26   2.0000      -0.960046       -26.1242
  27   2.0000      -0.951918       -25.9030
  28   2.0000      -0.848413       -23.0865
  29   2.0000      -0.845845       -23.0166
  30   2.0000      -0.812580       -22.1114
  31   2.0000      -0.805670       -21.9234
  32   2.0000      -0.796576       -21.6759
  33   2.0000      -0.786408       -21.3992
  34   2.0000      -0.697008       -18.9666
  35   2.0000      -0.694414       -18.8960
  36   2.0000      -0.690514       -18.7898
  37   2.0000      -0.685765       -18.6606
  38   2.0000      -0.643643       -17.5144
  39   2.0000      -0.635818       -17.3015
  40   2.0000      -0.629667       -17.1341
  41   2.0000      -0.603376       -16.4187
  42   2.0000      -0.598556       -16.2875
  43   2.0000      -0.590566       -16.0701
  44   2.0000      -0.568870       -15.4797
  45   2.0000      -0.561377       -15.2759
  46   2.0000      -0.557515       -15.1708
  47   2.0000      -0.552717       -15.0402
  48   2.0000      -0.547537       -14.8992
  49   2.0000      -0.537635       -14.6298
  50   2.0000      -0.520253       -14.1568
  51   2.0000      -0.518560       -14.1107
  52   2.0000      -0.515843       -14.0368
  53   2.0000      -0.514421       -13.9981
  54   2.0000      -0.502743       -13.6803
  55   2.0000      -0.499067       -13.5803
  56   2.0000      -0.479533       -13.0488
  57   2.0000      -0.470975       -12.8159
  58   2.0000      -0.421659       -11.4739
  59   2.0000      -0.409136       -11.1332
  60   2.0000      -0.406065       -11.0496
  61   2.0000      -0.391079       -10.6418
  62   2.0000      -0.390062       -10.6141
  63   2.0000      -0.380996       -10.3674
  64   2.0000      -0.352767        -9.5993
  65   2.0000      -0.337617        -9.1870
  66   0.0000       0.011197         0.3047
  67   0.0000       0.017909         0.4873
  68   0.0000       0.023528         0.6402
  69   0.0000       0.031343         0.8529
  70   0.0000       0.039969         1.0876

MULLIKEN ATOMIC CHARGES
-----------------------
   0 O :   -0.680882
   1 O :   -0.661496
   2 O :   -0.656049
   3 O :   -0.665834
   4 N :   -0.051523
   5 N :   -0.022269
   6 N :    0.004644
   7 N :   -0.012936
   8 C :    0.807522
   9 C :    0.498061
  10 C :   -0.061041
  11 C :    0.130565
  12 C :   -1.504623
  13 C :   -1.384340
  14 C :    0.433638
  15 C :    0.526452
  16 C :    0.509534
  17 C :    0.479532
  18 H :    0.210319
  19 H :    0.168855
  20 H :    0.211522
  21 H :    0.306773
  22 H :    0.406955
  23 H :    0.372165
  24 H :    0.319610
  25 H :    0.198547
  26 H :    0.022579
  27 H :    0.018863
  28 H :    0.027724
  29 H :    0.047134
Sum of atomic charges:    0.0000000

LOEWDIN ATOMIC CHARGES
----------------------
   0 O :    0.084990
   1 O :    0.104769
   2 O :    0.089758
   3 O :    0.075773
   4 N :    0.283049
   5 N :    0.281201
   6 N :    0.342724
   7 N :    0.334004
   8 C :   -0.138243
   9 C :   -0.145617
  10 C :    0.044586
  11 C :    0.052632
  12 C :    0.177602
  13 C :    0.183698
  14 C :   -0.397626
  15 C :   -0.396804
  16 C :   -0.474955
  17 C :   -0.488947
  18 H :    0.039914
  19 H :    0.038012
  20 H :   -0.019256
  21 H :   -0.005311
  22 H :    0.003857
  23 H :    0.004312
  24 H :   -0.002667
  25 H :   -0.021173
  26 H :   -0.018471
  27 H :   -0.021690
  28 H :   -0.002961
  29 H :   -0.007161

  Mayer bond orders larger than 0.100000
B(  0-O , 14-C ) :   1.4352 B(  1-O , 15-C ) :   1.4345 B(  2-O , 16-C ) :   1.5556
B(  3-O , 17-C ) :   1.5506 B(  4-N , 10-C ) :   0.9476 B(  4-N , 16-C ) :   1.0180
B(  4-N , 26-H ) :   1.1543 B(  5-N , 11-C ) :   0.9688 B(  5-N , 17-C ) :   1.0412
B(  5-N , 27-H ) :   1.1472 B(  6-N , 14-C ) :   1.0525 B(  6-N , 16-C ) :   0.9777
B(  6-N , 28-H ) :   1.0979 B(  7-N , 15-C ) :   1.0299 B(  7-N , 17-C ) :   0.9571
B(  7-N , 29-H ) :   1.1030 B(  8-C , 10-C ) :   1.0104 B(  8-C , 12-C ) :   0.3344
B(  8-C , 14-C ) :   0.6546 B(  8-C , 18-H ) :  -0.1268 B(  9-C , 11-C ) :   1.1567
B(  9-C , 13-C ) :   0.3537 B(  9-C , 15-C ) :   0.8652 B(  9-C , 24-H ) :  -0.1021
B( 10-C , 12-C ) :  -0.1601 B( 10-C , 18-H ) :   1.1376 B( 11-C , 13-C ) :  -0.1945
B( 11-C , 19-H ) :   1.0678 B( 12-C , 20-H ) :   1.0570 B( 12-C , 21-H ) :   1.0339
B( 12-C , 22-H ) :   0.8437 B( 13-C , 23-H ) :   0.8980 B( 13-C , 24-H ) :   1.0661
B( 13-C , 25-H ) :   0.9741

Dispersion correction           -0.057543457
FINAL SINGLE POINT ENERGY      -908.931592107915

DIPOLE MOMENT
-------------

Method             : SCF
Type of density    : Electron Density
Multiplicity       :   1
Irrep              :   0
Energy             :  -908.8740486508278309 Eh
Relativity type    :
Basis              : AO
                                X                 Y                 Z
Electronic contribution:     -2.046678783      -9.696135757      -5.348742980
Nuclear contribution   :      1.179794000      10.726799940       7.502019916
                        -----------------------------------------
Total Dipole Moment    :     -0.866884783       1.030664182       2.153276936
                        -----------------------------------------
Magnitude (a.u.)       :      2.539755785
Magnitude (Debye)      :      6.455546175

Rotational constants in cm-1:             0.019604             0.013528             0.010975
Rotational constants in MHz :           587.716248           405.571004           329.009364

                             ****ORCA TERMINATED NORMALLY****
TOTAL RUN TIME: 0 days 2 hours 22 minutes 13 seconds 22 msec
