                         Program Version 6.0.0  -   RELEASE  -
|  1> ! Engrad def2-TZVPPD wB97M-D3BJ
|  2> %pal nprocs 8 end%pal nprocs 32 end
|  3> %tddft Nroots 2 Iroot 1
|  4> sf true
|  5> end
|  6> *xyz 0 3
|  7> O   0.11567004 0.89428153 -0.00156514
|  8> C   0.68378396 -0.4042051 -0.00031214
|  9> C   -0.7541319 -0.59145866 0.00146585
| 10> H   1.25419177 -0.59933776 0.91040502
| 11> H   1.24010403 -0.59594212 -0.91953595
| 12> H   -1.26710915 -0.68727505 -0.923988
| 13> H   -1.26824902 -0.64398252 0.93439171
| 14> *
| 15>
| 16>                          ****END OF INPUT****

CARTESIAN COORDINATES (ANGSTROEM)
---------------------------------
  O      0.115670    0.894282   -0.001565
  C      0.683784   -0.404205   -0.000312
  C     -0.754132   -0.591459    0.001466
  H      1.254192   -0.599338    0.910405
  H      1.240104   -0.595942   -0.919536
  H     -1.267109   -0.687275   -0.923988
  H     -1.268249   -0.643983    0.934392

 Total Charge           Charge          ....    0
 Multiplicity           Mult            ....    3
 Number of Electrons    NEL             ....   24
 Basis Dimension        Dim             ....  182

ORBITAL ENERGIES
----------------
                 SPIN UP ORBITALS
  NO   OCC          E(Eh)            E(eV)
   0   1.0000     -19.432477      -528.7846
   1   1.0000     -10.415700      -283.4256
   2   1.0000     -10.340354      -281.3753
   3   1.0000      -1.227165       -33.3929
   4   1.0000      -0.855963       -23.2919
   5   1.0000      -0.754609       -20.5340
   6   1.0000      -0.654904       -17.8209
   7   1.0000      -0.614875       -16.7316
   8   1.0000      -0.537578       -14.6282
   9   1.0000      -0.502898       -13.6846
  10   1.0000      -0.484164       -13.1748
  11   1.0000      -0.461364       -12.5543
  12   1.0000      -0.206387        -5.6161
  13   0.0000       0.039767         1.0821
  14   0.0000       0.062161         1.6915
  15   0.0000       0.073069         1.9883
  16   0.0000       0.085403         2.3239
  17   0.0000       0.111500         3.0341

                 SPIN DOWN ORBITALS
  NO   OCC          E(Eh)            E(eV)
   0   1.0000     -19.399691      -527.8924
   1   1.0000     -10.416469      -283.4465
   2   1.0000     -10.328866      -281.0627
   3   1.0000      -1.157626       -31.5006
   4   1.0000      -0.821539       -22.3552
   5   1.0000      -0.736416       -20.0389
   6   1.0000      -0.610984       -16.6257
   7   1.0000      -0.578535       -15.7427
   8   1.0000      -0.505660       -13.7597
   9   1.0000      -0.481758       -13.1093
  10   1.0000      -0.414423       -11.2770
  11   0.0000      -0.085781        -2.3342
  12   0.0000       0.036254         0.9865
  13   0.0000       0.055227         1.5028
  14   0.0000       0.059752         1.6259
  15   0.0000       0.069415         1.8889

----------------------------------------------------------------------------------------------------
          SPIN FLIP ABSORPTION SPECTRUM VIA TRANSITION ELECTRIC DIPOLE MOMENTS
----------------------------------------------------------------------------------------------------
     Transition      Energy     Energy  Wavelength fosc(D2)      D2        DX        DY        DZ
                      (eV)      (cm-1)    (nm)                 (au**2)    (au)      (au)      (au)
----------------------------------------------------------------------------------------------------
  1-3A  ->  2-3A    4.524656   36493.8   274.0   0.003204043   0.02890  -0.01291  -0.01390   0.16895

Dispersion correction             ... done (  0.1 sec)

MULLIKEN ATOMIC CHARGES AND SPIN DENSITIES
------------------------------------------
   0 O :   -0.420399    0.042155
   1 C :   -0.140992   -0.066117
   2 C :   -0.398126   -0.028230
   3 H :    0.206783    0.022920
   4 H :    0.205486    0.023331
   5 H :    0.273010    0.003512
   6 H :    0.274238    0.002429
Sum of atomic charges       :    0.0000000

LOEWDIN ATOMIC CHARGES AND SPIN DENSITIES
-----------------------------------------
   0 O :   -0.106145    0.000951
   1 C :   -0.150637   -0.014617
   2 C :    0.235218    0.012838
   3 H :    0.021170    0.002160
   4 H :    0.020555    0.002386
   5 H :   -0.011609   -0.001612
   6 H :   -0.008551   -0.002106

  Mayer bond orders larger than 0.100000
B(  0-O ,  1-C ) :   0.7634 B(  0-O ,  2-C ) :   0.8635 B(  1-C ,  2-C ) :   0.8050
B(  1-C ,  3-H ) :   1.0288 B(  1-C ,  4-H ) :   1.0237 B(  2-C ,  5-H ) :   0.9270
B(  2-C ,  6-H ) :   0.9263

Dispersion correction           -0.005256213
FINAL SINGLE POINT ENERGY      -153.843809972031

DIPOLE MOMENT
-------------

Method             : TDA/CIS
Type of density    : Electron Density
Level              : Relaxed density
State              :   1
Multiplicity       :   3
Irrep              :   0
Energy             :     0.0000000000000000 Eh
Relativity type    :
Basis              : AO
                                X                 Y                 Z
Electronic contribution:     -0.085751416       1.143530950      -0.001724658
Nuclear contribution   :     -0.119278814      -2.340173852       0.002017654
                        -----------------------------------------
Total Dipole Moment    :     -0.205030231      -1.196642902       0.000292996
                        -----------------------------------------
Magnitude (a.u.)       :      1.214080605
Magnitude (Debye)      :      3.085947654

Rotational constants in cm-1:             0.875729             0.619887             0.425831
Rotational constants in MHz :         26253.708981         18583.750161         12766.080630

                             ****ORCA TERMINATED NORMALLY****
TOTAL RUN TIME: 0 days 0 hours 0 minutes 17 seconds 464 msec
