                         Program Version 6.0.0  -   RELEASE  -
|  1> ! Engrad def2-TZVPPD wB97M-D3BJ
|  2> %pal nprocs 8 end%pal nprocs 64 end
|  3> %tddft
|  4>  Iroot 2 Nroots 3
|  5> sf true
|  6> end
|  7> *xyz 0 3
|  8> O   3.74791059 0.13249393 0.32369214
|  9> O   -0.84150032 0.84255815 -2.66165269
| 10> O   0.51834391 -2.48711485 -1.36935236
| 11> O   -3.50766411 -1.28910126 0.29835256
| 12> N   -0.00314804 -1.39494752 0.59942502
| 13> N   -2.21003069 0.39914849 1.0249276
| 14> N   2.03085847 -1.11846181 -0.47561491
| 15> N   -2.26403921 -0.14077051 -1.28851207
| 16> C   1.61910834 0.3706539 1.37041937
| 17> C   -0.54539923 1.32499531 -0.41757116
| 18> C   0.22495284 -0.23137368 1.42711121
| 19> C   -0.90788013 0.91604724 0.96010275
| 20> C   2.10888864 1.47527453 2.31872785
| 21> C   0.51626149 2.3394592 -0.67534065
| 22> C   2.54893383 -0.21652813 0.48375543
| 23> C   -1.20332065 0.67502693 -1.51207467
| 24> C   0.78217921 -1.67066708 -0.49229576
| 25> C   -2.75322789 -0.41762443 0.04675146
| 26> H   -0.23104881 -0.42380301 2.45545424
| 27> H   -0.72159452 1.7608956 1.71090661
| 28> H   3.07126804 1.33807141 2.70219571
| 29> H   2.04605464 2.40831979 1.75626123
| 30> H   1.33868831 1.58634896 3.15826873
| 31> H   1.49162041 1.82701022 -0.99960185
| 32> H   0.11486946 2.94099557 -1.42180755
| 33> H   0.83147412 2.83198827 0.22448852
| 34> H   -0.89060633 -1.91125211 0.68519328
| 35> H   -2.57039098 0.13747686 1.92869587
| 36> H   2.59221445 -1.28086847 -1.28398016
| 37> H   -2.40032042 -0.74839473 -2.04548678
| 38> *
| 39>
| 40>                          ****END OF INPUT****

CARTESIAN COORDINATES (ANGSTROEM)
---------------------------------
  O      3.747911    0.132494    0.323692
  O     -0.841500    0.842558   -2.661653
  O      0.518344   -2.487115   -1.369352
  O     -3.507664   -1.289101    0.298353
  N     -0.003148   -1.394948    0.599425
  N     -2.210031    0.399148    1.024928
  N      2.030858   -1.118462   -0.475615
  N     -2.264039   -0.140771   -1.288512
  C      1.619108    0.370654    1.370419
  C     -0.545399    1.324995   -0.417571
  C      0.224953   -0.231374    1.427111
  C     -0.907880    0.916047    0.960103
  C      2.108889    1.475275    2.318728
  C      0.516261    2.339459   -0.675341
  C      2.548934   -0.216528    0.483755
  C     -1.203321    0.675027   -1.512075
  C      0.782179   -1.670667   -0.492296
  C     -2.753228   -0.417624    0.046751
  H     -0.231049   -0.423803    2.455454
  H     -0.721595    1.760896    1.710907
  H      3.071268    1.338071    2.702196
  H      2.046055    2.408320    1.756261
  H      1.338688    1.586349    3.158269
  H      1.491620    1.827010   -0.999602
  H      0.114869    2.940996   -1.421808
  H      0.831474    2.831988    0.224489
  H     -0.890606   -1.911252    0.685193
  H     -2.570391    0.137477    1.928696
  H      2.592214   -1.280868   -1.283980
  H     -2.400320   -0.748395   -2.045487

 Total Charge           Charge          ....    0
 Multiplicity           Mult            ....    3
 Number of Electrons    NEL             ....  132
 Basis Dimension        Dim             ....  882

ORBITAL ENERGIES
----------------
                 SPIN UP ORBITALS
  NO   OCC          E(Eh)            E(eV)
   0   1.0000     -19.341074      -526.2974
   1   1.0000     -19.339439      -526.2529
   2   1.0000     -19.322758      -525.7990
   3   1.0000     -19.312467      -525.5190
   4   1.0000     -14.570756      -396.4904
   5   1.0000     -14.568223      -396.4215
   6   1.0000     -14.560468      -396.2105
   7   1.0000     -14.559382      -396.1809
   8   1.0000     -10.520316      -286.2723
   9   1.0000     -10.502410      -285.7851
  10   1.0000     -10.486165      -285.3431
  11   1.0000     -10.467875      -284.8454
  12   1.0000     -10.462129      -284.6890
  13   1.0000     -10.450925      -284.3841
  14   1.0000     -10.437945      -284.0309
  15   1.0000     -10.413482      -283.3653
  16   1.0000     -10.391680      -282.7720
  17   1.0000     -10.372312      -282.2450
  18   1.0000      -1.242362       -33.8064
  19   1.0000      -1.211198       -32.9584
  20   1.0000      -1.201894       -32.7052
  21   1.0000      -1.181112       -32.1397
  22   1.0000      -1.128468       -30.7072
  23   1.0000      -1.098506       -29.8919
  24   1.0000      -1.066965       -29.0336
  25   1.0000      -1.056530       -28.7496
  26   1.0000      -0.982696       -26.7405
  27   1.0000      -0.957046       -26.0425
  28   1.0000      -0.886839       -24.1321
  29   1.0000      -0.849938       -23.1280
  30   1.0000      -0.831934       -22.6381
  31   1.0000      -0.806774       -21.9534
  32   1.0000      -0.784802       -21.3555
  33   1.0000      -0.781576       -21.2678
  34   1.0000      -0.704536       -19.1714
  35   1.0000      -0.698142       -18.9974
  36   1.0000      -0.693584       -18.8734
  37   1.0000      -0.681668       -18.5491
  38   1.0000      -0.650630       -17.7045
  39   1.0000      -0.648008       -17.6332
  40   1.0000      -0.634716       -17.2715
  41   1.0000      -0.608394       -16.5552
  42   1.0000      -0.594569       -16.1790
  43   1.0000      -0.591684       -16.1005
  44   1.0000      -0.582761       -15.8577
  45   1.0000      -0.571383       -15.5481
  46   1.0000      -0.568076       -15.4581
  47   1.0000      -0.561568       -15.2810
  48   1.0000      -0.558028       -15.1847
  49   1.0000      -0.556443       -15.1416
  50   1.0000      -0.549082       -14.9413
  51   1.0000      -0.538196       -14.6451
  52   1.0000      -0.531551       -14.4642
  53   1.0000      -0.522949       -14.2302
  54   1.0000      -0.521828       -14.1997
  55   1.0000      -0.514531       -14.0011
  56   1.0000      -0.493543       -13.4300
  57   1.0000      -0.438940       -11.9442
  58   1.0000      -0.420616       -11.4455
  59   1.0000      -0.411810       -11.2059
  60   1.0000      -0.410618       -11.1735
  61   1.0000      -0.401889       -10.9360
  62   1.0000      -0.391751       -10.6601
  63   1.0000      -0.387001       -10.5308
  64   1.0000      -0.379979       -10.3397
  65   1.0000      -0.356089        -9.6897
  66   1.0000      -0.319916        -8.7054
  67   0.0000       0.006627         0.1803
  68   0.0000       0.027961         0.7609
  69   0.0000       0.032544         0.8856
  70   0.0000       0.037145         1.0108
  71   0.0000       0.054671         1.4877

                 SPIN DOWN ORBITALS
  NO   OCC          E(Eh)            E(eV)
   0   1.0000     -19.341006      -526.2955
   1   1.0000     -19.333960      -526.1038
   2   1.0000     -19.318160      -525.6739
   3   1.0000     -19.312400      -525.5171
   4   1.0000     -14.570481      -396.4830
   5   1.0000     -14.568315      -396.4240
   6   1.0000     -14.559686      -396.1892
   7   1.0000     -14.558891      -396.1676
   8   1.0000     -10.520368      -286.2738
   9   1.0000     -10.502476      -285.7869
  10   1.0000     -10.487335      -285.3749
  11   1.0000     -10.468898      -284.8732
  12   1.0000     -10.461448      -284.6705
  13   1.0000     -10.450304      -284.3672
  14   1.0000     -10.427078      -283.7352
  15   1.0000     -10.402424      -283.0644
  16   1.0000     -10.392174      -282.7854
  17   1.0000     -10.372803      -282.2583
  18   1.0000      -1.241919       -33.7943
  19   1.0000      -1.209453       -32.9109
  20   1.0000      -1.195918       -32.5426
  21   1.0000      -1.174550       -31.9611
  22   1.0000      -1.126034       -30.6410
  23   1.0000      -1.096526       -29.8380
  24   1.0000      -1.064703       -28.9720
  25   1.0000      -1.054382       -28.6912
  26   1.0000      -0.968508       -26.3544
  27   1.0000      -0.939675       -25.5699
  28   1.0000      -0.881945       -23.9989
  29   1.0000      -0.844791       -22.9879
  30   1.0000      -0.823323       -22.4037
  31   1.0000      -0.802859       -21.8469
  32   1.0000      -0.783164       -21.3110
  33   1.0000      -0.779330       -21.2067
  34   1.0000      -0.700065       -19.0497
  35   1.0000      -0.693012       -18.8578
  36   1.0000      -0.687594       -18.7104
  37   1.0000      -0.676072       -18.3969
  38   1.0000      -0.645046       -17.5526
  39   1.0000      -0.639130       -17.3916
  40   1.0000      -0.629236       -17.1224
  41   1.0000      -0.602670       -16.3995
  42   1.0000      -0.589833       -16.0502
  43   1.0000      -0.585176       -15.9235
  44   1.0000      -0.576521       -15.6879
  45   1.0000      -0.564566       -15.3626
  46   1.0000      -0.562628       -15.3099
  47   1.0000      -0.553388       -15.0584
  48   1.0000      -0.550789       -14.9877
  49   1.0000      -0.546588       -14.8734
  50   1.0000      -0.540552       -14.7092
  51   1.0000      -0.529302       -14.4030
  52   1.0000      -0.523827       -14.2541
  53   1.0000      -0.516294       -14.0491
  54   1.0000      -0.515396       -14.0246
  55   1.0000      -0.504650       -13.7322
  56   1.0000      -0.485610       -13.2141
  57   1.0000      -0.435130       -11.8405
  58   1.0000      -0.417537       -11.3618
  59   1.0000      -0.407585       -11.0909
  60   1.0000      -0.396050       -10.7771
  61   1.0000      -0.385514       -10.4904
  62   1.0000      -0.385056       -10.4779
  63   1.0000      -0.381166       -10.3721
  64   1.0000      -0.364992        -9.9319
  65   0.0000      -0.079132        -2.1533
  66   0.0000      -0.051286        -1.3956
  67   0.0000       0.006277         0.1708
  68   0.0000       0.027894         0.7590
  69   0.0000       0.032969         0.8971

----------------------------------------------------------------------------------------------------
          SPIN FLIP ABSORPTION SPECTRUM VIA TRANSITION ELECTRIC DIPOLE MOMENTS
----------------------------------------------------------------------------------------------------
     Transition      Energy     Energy  Wavelength fosc(D2)      D2        DX        DY        DZ
                      (eV)      (cm-1)    (nm)                 (au**2)    (au)      (au)      (au)
----------------------------------------------------------------------------------------------------
  1-3A  ->  2-3A    0.158931    1281.9  7801.2   0.000136918   0.03516   0.17519  -0.01415   0.06537
  1-3A  ->  3-3A    1.910069   15405.7   649.1   0.027803621   0.59415   0.71584  -0.03175   0.28411

Dispersion correction             ... done (  0.1 sec)

MULLIKEN ATOMIC CHARGES AND SPIN DENSITIES
------------------------------------------
   0 O :   -0.697363    0.015210
   1 O :   -0.692864   -0.004404
   2 O :   -0.693425    0.000073
   3 O :   -0.557234    0.000386
   4 N :   -0.116569   -0.007536
   5 N :   -0.262653   -0.000807
   6 N :    0.041929   -0.004891
   7 N :   -0.010053    0.000037
   8 C :    0.397267    0.294859
   9 C :    0.671036    0.291582
  10 C :    0.060516   -0.131380
  11 C :    0.395183   -0.159666
  12 C :   -1.270177   -0.012131
  13 C :   -1.605547   -0.012743
  14 C :    0.239604   -0.129109
  15 C :    0.128350   -0.172480
  16 C :    0.511197    0.004932
  17 C :    0.287237    0.011527
  18 H :    0.490852   -0.005644
  19 H :    0.515530   -0.002152
  20 H :    0.370775    0.000913
  21 H :    0.228399    0.008759
  22 H :    0.317343    0.003196
  23 H :    0.265462    0.007945
  24 H :    0.474215    0.005005
  25 H :    0.285763   -0.004791
  26 H :    0.112241   -0.000438
  27 H :    0.093472    0.001503
  28 H :    0.004800    0.000443
  29 H :    0.014712    0.001802
Sum of atomic charges       :    0.0000000

LOEWDIN ATOMIC CHARGES AND SPIN DENSITIES
-----------------------------------------
   0 O :    0.051633    0.012739
   1 O :    0.096442   -0.003932
   2 O :    0.073646    0.000133
   3 O :    0.125492    0.000318
   4 N :    0.267627   -0.001205
   5 N :    0.259692   -0.000165
   6 N :    0.328887   -0.003644
   7 N :    0.357861   -0.003331
   8 C :   -0.025666    0.028682
   9 C :   -0.020081   -0.008181
  10 C :   -0.071222   -0.003675
  11 C :   -0.136365   -0.002977
  12 C :    0.214317    0.002776
  13 C :    0.216646   -0.004378
  14 C :   -0.381618   -0.001896
  15 C :   -0.453416   -0.007246
  16 C :   -0.486492   -0.000519
  17 C :   -0.461832   -0.000218
  18 H :    0.078370   -0.001409
  19 H :    0.083983   -0.000748
  20 H :   -0.033653    0.000414
  21 H :   -0.016287    0.001259
  22 H :    0.034980    0.000149
  23 H :    0.058011   -0.001410
  24 H :   -0.031028   -0.001047
  25 H :   -0.033223    0.000312
  26 H :   -0.007938   -0.000078
  27 H :   -0.027543   -0.000062
  28 H :   -0.018063   -0.000335
  29 H :   -0.043160   -0.000327

  Mayer bond orders larger than 0.100000
B(  0-O , 14-C ) :   1.2189 B(  1-O , 15-C ) :   1.2828 B(  2-O , 16-C ) :   1.4624
B(  3-O , 17-C ) :   1.6525 B(  4-N ,  9-C ) :   0.1019 B(  4-N , 10-C ) :   0.7445
B(  4-N , 16-C ) :   0.9766 B(  4-N , 26-H ) :   1.0197 B(  5-N ,  9-C ) :   0.2021
B(  5-N , 11-C ) :   0.1694 B(  5-N , 17-C ) :   1.1544 B(  5-N , 27-H ) :   1.0031
B(  6-N ,  8-C ) :  -0.2012 B(  6-N , 10-C ) :   0.1225 B(  6-N , 14-C ) :   1.0596
B(  6-N , 16-C ) :   0.9343 B(  6-N , 28-H ) :   1.1300 B(  7-N ,  9-C ) :  -0.1570
B(  7-N , 15-C ) :   1.1064 B(  7-N , 17-C ) :   0.8840 B(  7-N , 29-H ) :   1.1105
B(  8-C ,  9-C ) :   0.1098 B(  8-C , 10-C ) :   0.7332 B(  8-C , 11-C ) :   0.2765
B(  8-C , 12-C ) :   0.5069 B(  8-C , 14-C ) :   0.7714 B(  8-C , 22-H ) :  -0.1798
B(  9-C , 10-C ) :   0.1759 B(  9-C , 11-C ) :   0.5242 B(  9-C , 13-C ) :   0.1262
B(  9-C , 15-C ) :   0.8023 B(  9-C , 19-H ) :  -0.1406 B(  9-C , 25-H ) :  -0.1236
B( 10-C , 11-C ) :   0.4877 B( 10-C , 14-C ) :   0.1251 B( 10-C , 18-H ) :   0.7494
B( 11-C , 13-C ) :  -0.2108 B( 11-C , 15-C ) :  -0.1144 B( 11-C , 17-C ) :  -0.1554
B( 11-C , 19-H ) :   0.8715 B( 12-C , 20-H ) :   0.9185 B( 12-C , 21-H ) :   0.8639
B( 12-C , 22-H ) :   1.0616 B( 13-C , 23-H ) :   0.8828 B( 13-C , 24-H ) :   0.8235
B( 13-C , 25-H ) :   1.1136 B( 14-C , 16-C ) :  -0.1069

Dispersion correction           -0.060255418
FINAL SINGLE POINT ENERGY      -908.767851700060

DIPOLE MOMENT
-------------

Method             : TDA/CIS
Type of density    : Electron Density
Level              : Relaxed density
State              :   2
Multiplicity       :   3
Irrep              :   0
Energy             :     0.0000000000000000 Eh
Relativity type    :
Basis              : AO
                                X                 Y                 Z
Electronic contribution:     -4.821326868      -8.760436648      -5.932224259
Nuclear contribution   :      4.466266772      10.261182770       8.513870301
                        -----------------------------------------
Total Dipole Moment    :     -0.355060096       1.500746122       2.581646042
                        -----------------------------------------
Magnitude (a.u.)       :      3.007191860
Magnitude (Debye)      :      7.643674254

Rotational constants in cm-1:             0.022419             0.012567             0.011823
Rotational constants in MHz :           672.103531           376.761333           354.452699

                             ****ORCA TERMINATED NORMALLY****
TOTAL RUN TIME: 0 days 0 hours 5 minutes 14 seconds 995 msec
