                         Program Version 6.0.0  -   RELEASE  -
|  1> ! opt def2-TZVPPD wB97M-D3BJ
|  2> %pal nprocs 8 end%pal nprocs 32 end
|  3> %geom Constraints
|  4> {B 9 8 3.1 C}
|  5> {A 8 9 11 34.0 C}
|  6> end
|  7> MaxIter 300
|  8> end
|  9> *xyz 0 1
| 10> O   2.98579685529314 0.88758230159078 -0.86184571092411
| 11> O   -0.03983205397054 0.68929041702508 -2.10362336723772
| 12> O   0.93431434349854 -3.13274393337945 -0.68767288184107
| 13> O   -3.75829998830163 -0.84727300865116 -0.0472717177755
| 14> N   0.21184538946282 -1.54604804365365 0.7617588924445
| 15> N   -2.13631993928911 0.03188773433438 1.27350571071531
| 16> N   2.02598672506387 -1.14318467211666 -0.64531219127023
| 17> N   -1.91814233924584 0.03137116037665 -1.04498946748291
| 18> C   1.18097737274226 0.71693507080484 0.70173889017321
| 19> C   -0.20686880480777 1.27024627933494 0.21345042231937
| 20> C   0.41441080275909 -0.34173258966541 1.52336266615173
| 21> C   -0.82922175114212 0.58960593673968 1.44434972027296
| 22> C   1.92822011286806 1.69488653817281 1.5963734975385
| 23> C   -0.37809776891576 2.77134929626422 0.04819649358288
| 24> C   2.1403947470937 0.1972384729179 -0.35038567829864
| 25> C   -0.67361678962426 0.6214190571346 -1.0793014500539
| 26> C   1.04142578622994 -2.02697492875068 -0.21027082435993
| 27> C   -2.68467002550422 -0.30396816036989 0.07167054343891
| 28> H   0.80817443950001 -0.54572267081061 2.51895215321335
| 29> H   -0.83785272399001 1.27240685039143 2.28901317073582
| 30> H   2.31167340578204 2.52284411740894 1.00913016264629
| 31> H   1.28982602448342 2.08257620823614 2.38710022492991
| 32> H   2.77390820759972 1.19140411795486 2.06045858523949
| 33> H   -1.41857211141493 3.00964947214868 -0.16882755561625
| 34> H   -0.09065531563179 3.29799318042223 0.95389844358819
| 35> H   0.23426221611057 3.12492645074476 -0.77764887675592
| 36> H   -0.46772570547622 -2.21560145172536 1.0787081584806
| 37> H   -2.71769301149571 -0.17090724573546 2.06627440900372
| 38> H   2.60065167263658 -1.49057255715425 -1.3966820077142
| 39> H   -2.27169977231386 -0.32388339999036 -1.91951041514436
| 40> *
| 41>
| 42>                          ****END OF INPUT****
 Total Charge           Charge          ....    0
 Multiplicity           Mult            ....    1
 Number of Electrons    NEL             ....  132
Dispersion correction           -0.053423255
FINAL SINGLE POINT ENERGY      -908.463259529191
Dispersion correction             ... done (  0.0 sec)
Dispersion correction           -0.053356165
FINAL SINGLE POINT ENERGY      -908.545171757244
Dispersion correction             ... done (  0.0 sec)
Dispersion correction           -0.053288350
FINAL SINGLE POINT ENERGY      -908.594293017806
Dispersion correction             ... done (  0.0 sec)
FINAL SINGLE POINT ENERGY      -908.637751856225
FINAL SINGLE POINT ENERGY      -908.672720880214
FINAL SINGLE POINT ENERGY      -908.691387554554
FINAL SINGLE POINT ENERGY      -908.700781943370
FINAL SINGLE POINT ENERGY      -908.711144601417
FINAL SINGLE POINT ENERGY      -908.716693319373
FINAL SINGLE POINT ENERGY      -908.721296097082
FINAL SINGLE POINT ENERGY      -908.744673998358
FINAL SINGLE POINT ENERGY      -908.744935041093
FINAL SINGLE POINT ENERGY      -908.745056638540
FINAL SINGLE POINT ENERGY      -908.745113140144
FINAL SINGLE POINT ENERGY      -908.745160372295
FINAL SINGLE POINT ENERGY      -908.745178702581
FINAL SINGLE POINT ENERGY      -908.745193550597
Dispersion correction             ... done (  0.0 sec)
Dispersion correction           -0.057829156
FINAL SINGLE POINT ENERGY      -908.745195293694
Dispersion correction             ... done (  0.0 sec)
Dispersion correction           -0.057807848
FINAL SINGLE POINT ENERGY      -908.745198883681
Dispersion correction             ... done (  0.0 sec)
                    ***********************HURRAY********************

CARTESIAN COORDINATES (ANGSTROEM)
---------------------------------
  O      2.277458   -0.236616   -1.173537
  O     -0.194419    2.767452   -2.283083
  O      0.235368   -3.777745    0.737306
  O     -2.175284   -1.095665   -1.359241
  N      0.386559   -1.879311    1.972002
  N     -1.386975   -0.158026    0.536424
  N      1.066450   -1.906929   -0.252341
  N     -0.811145    0.685675   -1.612670
  C      1.313037    0.195408    0.946958
  C     -0.274186    2.641024   -0.106458
  C      0.583677   -0.472036    2.064876
  C     -0.366666    0.440081    1.301525
  C      2.244202    1.333596    1.226463
  C     -1.486133    3.343103    0.355805
  C      1.602404   -0.630618   -0.253565
  C     -0.445404    1.990138   -1.369531
  C      0.530431   -2.609973    0.824740
  C     -1.503349   -0.240001   -0.833264
  H      0.848274   -0.157381    3.064418
  H     -0.537348    1.404850    1.751239
  H      2.395341    1.928808    0.334338
  H      1.839859    1.978018    2.003134
  H      3.204498    0.940578    1.561165
  H     -2.419098    2.779657    0.262675
  H     -1.385252    3.784906    1.343042
  H     -1.554906    4.167549   -0.368068
  H     -0.029984   -2.379474    2.736260
  H     -1.873074   -0.930805    0.965620
  H      1.240289   -2.465479   -1.073149
  H     -0.872026    0.474218   -2.598483

 Multiplicity           Mult            ....    1
 Number of Electrons    NEL             ....  132
 Basis Dimension        Dim             ....  882

ORBITAL ENERGIES
----------------

  NO   OCC          E(Eh)            E(eV)
   0   2.0000     -19.335386      -526.1426
   1   2.0000     -19.333749      -526.0981
   2   2.0000     -19.326352      -525.8968
   3   2.0000     -19.323273      -525.8130
   4   2.0000     -14.570382      -396.4802
   5   2.0000     -14.569657      -396.4605
   6   2.0000     -14.569206      -396.4483
   7   2.0000     -14.568042      -396.4166
   8   2.0000     -10.513892      -286.0975
   9   2.0000     -10.510653      -286.0094
  10   2.0000     -10.489273      -285.4276
  11   2.0000     -10.480351      -285.1849
  12   2.0000     -10.446514      -284.2641
  13   2.0000     -10.444229      -284.2019
  14   2.0000     -10.421049      -283.5712
  15   2.0000     -10.417771      -283.4820
  16   2.0000     -10.380071      -282.4561
  17   2.0000     -10.358506      -281.8693
  18   2.0000      -1.227551       -33.4034
  19   2.0000      -1.222426       -33.2639
  20   2.0000      -1.201857       -32.7042
  21   2.0000      -1.200375       -32.6639
  22   2.0000      -1.127696       -30.6862
  23   2.0000      -1.095302       -29.8047
  24   2.0000      -1.073826       -29.2203
  25   2.0000      -1.065504       -28.9938
  26   2.0000      -0.997253       -27.1366
  27   2.0000      -0.937925       -25.5222
  28   2.0000      -0.878773       -23.9126
  29   2.0000      -0.825003       -22.4495
  30   2.0000      -0.814867       -22.1737
  31   2.0000      -0.808022       -21.9874
  32   2.0000      -0.791445       -21.5363
  33   2.0000      -0.779223       -21.2037
  34   2.0000      -0.722257       -19.6536
  35   2.0000      -0.701005       -19.0753
  36   2.0000      -0.693480       -18.8706
  37   2.0000      -0.665346       -18.1050
  38   2.0000      -0.639344       -17.3974
  39   2.0000      -0.632692       -17.2164
  40   2.0000      -0.616361       -16.7720
  41   2.0000      -0.605735       -16.4829
  42   2.0000      -0.595023       -16.1914
  43   2.0000      -0.589928       -16.0528
  44   2.0000      -0.578520       -15.7423
  45   2.0000      -0.567584       -15.4448
  46   2.0000      -0.563068       -15.3219
  47   2.0000      -0.560944       -15.2641
  48   2.0000      -0.555297       -15.1104
  49   2.0000      -0.553684       -15.0665
  50   2.0000      -0.543104       -14.7786
  51   2.0000      -0.542454       -14.7609
  52   2.0000      -0.531204       -14.4548
  53   2.0000      -0.509395       -13.8613
  54   2.0000      -0.506253       -13.7758
  55   2.0000      -0.487808       -13.2739
  56   2.0000      -0.432515       -11.7693
  57   2.0000      -0.425143       -11.5687
  58   2.0000      -0.419974       -11.4281
  59   2.0000      -0.407465       -11.0877
  60   2.0000      -0.398848       -10.8532
  61   2.0000      -0.395299       -10.7566
  62   2.0000      -0.391187       -10.6448
  63   2.0000      -0.381760       -10.3882
  64   2.0000      -0.377037       -10.2597
  65   2.0000      -0.340743        -9.2721
  66   0.0000      -0.022757        -0.6192
  67   0.0000       0.009017         0.2454
  68   0.0000       0.027349         0.7442
  69   0.0000       0.032447         0.8829
  70   0.0000       0.036057         0.9812

MULLIKEN ATOMIC CHARGES
-----------------------
   0 O :   -0.651667
   1 O :   -0.640787
   2 O :   -0.644656
   3 O :   -0.654214
   4 N :   -0.186435
   5 N :   -0.108795
   6 N :    0.014796
   7 N :    0.059767
   8 C :    1.697639
   9 C :    0.001553
  10 C :    0.058863
  11 C :   -0.874121
  12 C :   -1.671809
  13 C :   -1.120010
  14 C :    0.076650
  15 C :    0.774636
  16 C :    0.448111
  17 C :    0.509413
  18 H :    0.282580
  19 H :    0.419618
  20 H :    0.307591
  21 H :    0.324813
  22 H :    0.434161
  23 H :    0.299699
  24 H :    0.294836
  25 H :    0.362823
  26 H :    0.031383
  27 H :    0.101299
  28 H :    0.033084
  29 H :    0.019178
Sum of atomic charges:   -0.0000000

LOEWDIN ATOMIC CHARGES
----------------------
   0 O :    0.116373
   1 O :    0.096101
   2 O :    0.096339
   3 O :    0.097948
   4 N :    0.286683
   5 N :    0.270501
   6 N :    0.341858
   7 N :    0.337643
   8 C :   -0.145170
   9 C :    0.142257
  10 C :   -0.083782
  11 C :   -0.008680
  12 C :    0.182556
  13 C :    0.107142
  14 C :   -0.385751
  15 C :   -0.509009
  16 C :   -0.477790
  17 C :   -0.474049
  18 H :    0.056189
  19 H :    0.004093
  20 H :   -0.009379
  21 H :    0.000672
  22 H :    0.009860
  23 H :    0.003132
  24 H :   -0.015817
  25 H :    0.020943
  26 H :   -0.025715
  27 H :   -0.025825
  28 H :   -0.004260
  29 H :   -0.005064

  Mayer bond orders larger than 0.100000
B(  0-O ,  8-C ) :  -0.1506 B(  0-O , 14-C ) :   1.5929 B(  1-O ,  9-C ) :   0.2241
B(  1-O , 15-C ) :   1.2292 B(  2-O , 16-C ) :   1.5751 B(  3-O , 17-C ) :   1.4890
B(  4-N ,  8-C ) :   0.1192 B(  4-N , 10-C ) :   0.5842 B(  4-N , 16-C ) :   1.0951
B(  4-N , 26-H ) :   1.1262 B(  5-N , 11-C ) :   0.6472 B(  5-N , 17-C ) :   0.9603
B(  5-N , 19-H ) :  -0.1349 B(  5-N , 27-H ) :   1.0374 B(  6-N , 10-C ) :   0.1293
B(  6-N , 14-C ) :   1.0672 B(  6-N , 16-C ) :   0.9395 B(  6-N , 28-H ) :   1.1098
B(  7-N , 15-C ) :   0.9585 B(  7-N , 17-C ) :   0.9682 B(  7-N , 29-H ) :   1.1081
B(  8-C , 10-C ) :   0.6324 B(  8-C , 11-C ) :   0.3209 B(  8-C , 14-C ) :   0.3015
B(  8-C , 18-H ) :  -0.1007 B(  8-C , 19-H ) :  -0.1032 B(  8-C , 20-H ) :  -0.1104
B(  8-C , 21-H ) :  -0.1296 B(  9-C , 12-C ) :  -0.1107 B(  9-C , 13-C ) :   0.5710
B(  9-C , 15-C ) :   0.7506 B( 10-C , 11-C ) :   0.7387 B( 10-C , 12-C ) :  -0.1413
B( 10-C , 14-C ) :  -0.1154 B( 10-C , 16-C ) :  -0.1099 B( 10-C , 18-H ) :   1.0842
B( 11-C , 19-H ) :   1.0274 B( 12-C , 20-H ) :   1.0659 B( 12-C , 21-H ) :   1.0639
B( 12-C , 22-H ) :   0.7243 B( 13-C , 23-H ) :   0.9646 B( 13-C , 24-H ) :   1.0458
B( 13-C , 25-H ) :   0.8646

Dispersion correction           -0.057801479
FINAL SINGLE POINT ENERGY      -908.745199698922

DIPOLE MOMENT
-------------

Method             : SCF
Type of density    : Electron Density
Multiplicity       :   1
Irrep              :   0
Energy             :  -908.6873982199167585 Eh
Relativity type    :
Basis              : AO
                                X                 Y                 Z
Electronic contribution:     -0.371427724      -9.862051331      -6.538024351
Nuclear contribution   :     -0.057788053      10.740068504       9.139340210
                        -----------------------------------------
Total Dipole Moment    :     -0.429215777       0.878017174       2.601315859
                        -----------------------------------------
Magnitude (a.u.)       :      2.778845901
Magnitude (Debye)      :      7.063264953

Rotational constants in cm-1:             0.022744             0.012681             0.011505
Rotational constants in MHz :           681.835868           380.156018           344.914410

                             ****ORCA TERMINATED NORMALLY****
TOTAL RUN TIME: 0 days 1 hours 25 minutes 32 seconds 651 msec
