                         Program Version 6.0.0  -   RELEASE  -
|  1> ! Engrad def2-TZVPPD wB97M-D3BJ
|  2> %pal nprocs 8 end%pal nprocs 64 end
|  3> %tddft
|  4>  Iroot 2 Nroots 3
|  5> sf true
|  6> end
|  7> *xyz 0 3
|  8> O   3.44376338 -0.33055495 -0.09350378
|  9> O   -0.65355488 0.74302289 -2.80823924
| 10> O   -0.17701691 -2.86020598 -0.62074099
| 11> O   -3.75541604 -0.32239263 0.18185952
| 12> N   -0.22040571 -1.39655951 1.09696364
| 13> N   -1.94106895 0.85055612 0.92792287
| 14> N   1.49567914 -1.35545956 -0.42286462
| 15> N   -1.95895694 -0.05506643 -1.20474545
| 16> C   1.66735308 0.14128535 1.36444376
| 17> C   -0.16857997 1.37487229 -0.55778326
| 18> C   0.2344615 -0.10005302 1.57017025
| 19> C   -0.51767504 1.1145401 0.86180879
| 20> C   2.41352437 1.22980128 2.03972615
| 21> C   1.14429815 2.04787838 -0.98426401
| 22> C   2.28008399 -0.49460353 0.25914966
| 23> C   -0.92659628 0.71581838 -1.61806711
| 24> C   0.2717747 -1.90686524 -0.08033955
| 25> C   -2.62201884 0.0773576 -0.01648832
| 26> H   -0.06696254 0.05206125 2.63069106
| 27> H   -0.34206084 2.03621093 1.42922514
| 28> H   3.40712522 1.38707839 1.61449323
| 29> H   1.83585711 2.25727237 2.05023249
| 30> H   2.45726616 1.10478054 3.17381327
| 31> H   1.72281189 1.34610852 -1.5354691
| 32> H   0.95367852 2.91644571 -1.66204458
| 33> H   1.67524938 2.39012794 -0.10033334
| 34> H   -1.22294056 -1.73982096 1.35128995
| 35> H   -2.37921181 0.82161698 1.88489114
| 36> H   1.94871479 -1.89681554 -1.13945549
| 37> H   -2.46718573 -0.50529984 -1.93733259
| 38> *
| 39>
| 40>                          ****END OF INPUT****

CARTESIAN COORDINATES (ANGSTROEM)
---------------------------------
  O      3.443763   -0.330555   -0.093504
  O     -0.653555    0.743023   -2.808239
  O     -0.177017   -2.860206   -0.620741
  O     -3.755416   -0.322393    0.181860
  N     -0.220406   -1.396560    1.096964
  N     -1.941069    0.850556    0.927923
  N      1.495679   -1.355460   -0.422865
  N     -1.958957   -0.055066   -1.204745
  C      1.667353    0.141285    1.364444
  C     -0.168580    1.374872   -0.557783
  C      0.234461   -0.100053    1.570170
  C     -0.517675    1.114540    0.861809
  C      2.413524    1.229801    2.039726
  C      1.144298    2.047878   -0.984264
  C      2.280084   -0.494604    0.259150
  C     -0.926596    0.715818   -1.618067
  C      0.271775   -1.906865   -0.080340
  C     -2.622019    0.077358   -0.016488
  H     -0.066963    0.052061    2.630691
  H     -0.342061    2.036211    1.429225
  H      3.407125    1.387078    1.614493
  H      1.835857    2.257272    2.050232
  H      2.457266    1.104781    3.173813
  H      1.722812    1.346109   -1.535469
  H      0.953679    2.916446   -1.662045
  H      1.675249    2.390128   -0.100333
  H     -1.222941   -1.739821    1.351290
  H     -2.379212    0.821617    1.884891
  H      1.948715   -1.896816   -1.139455
  H     -2.467186   -0.505300   -1.937333

 Total Charge           Charge          ....    0
 Multiplicity           Mult            ....    3
 Number of Electrons    NEL             ....  132
 Basis Dimension        Dim             ....  882

ORBITAL ENERGIES
----------------
                 SPIN UP ORBITALS
  NO   OCC          E(Eh)            E(eV)
   0   1.0000     -19.330939      -526.0216
   1   1.0000     -19.329847      -525.9919
   2   1.0000     -19.325718      -525.8795
   3   1.0000     -19.325137      -525.8637
   4   1.0000     -14.569689      -396.4614
   5   1.0000     -14.564918      -396.3316
   6   1.0000     -14.564033      -396.3075
   7   1.0000     -14.562682      -396.2707
   8   1.0000     -10.510005      -285.9918
   9   1.0000     -10.505104      -285.8584
  10   1.0000     -10.477783      -285.1150
  11   1.0000     -10.476063      -285.0682
  12   1.0000     -10.451582      -284.4020
  13   1.0000     -10.446761      -284.2708
  14   1.0000     -10.420476      -283.5556
  15   1.0000     -10.419629      -283.5325
  16   1.0000     -10.393535      -282.8225
  17   1.0000     -10.370262      -282.1892
  18   1.0000      -1.234641       -33.5963
  19   1.0000      -1.222964       -33.2785
  20   1.0000      -1.200960       -32.6798
  21   1.0000      -1.194459       -32.5029
  22   1.0000      -1.124594       -30.6017
  23   1.0000      -1.104667       -30.0595
  24   1.0000      -1.074165       -29.2295
  25   1.0000      -1.056109       -28.7382
  26   1.0000      -0.987695       -26.8766
  27   1.0000      -0.950620       -25.8677
  28   1.0000      -0.886430       -24.1210
  29   1.0000      -0.845766       -23.0145
  30   1.0000      -0.831397       -22.6235
  31   1.0000      -0.805035       -21.9061
  32   1.0000      -0.791835       -21.5469
  33   1.0000      -0.786753       -21.4086
  34   1.0000      -0.704580       -19.1726
  35   1.0000      -0.694271       -18.8921
  36   1.0000      -0.689935       -18.7741
  37   1.0000      -0.677158       -18.4264
  38   1.0000      -0.664324       -18.0772
  39   1.0000      -0.637740       -17.3538
  40   1.0000      -0.616966       -16.7885
  41   1.0000      -0.603791       -16.4300
  42   1.0000      -0.599533       -16.3141
  43   1.0000      -0.587953       -15.9990
  44   1.0000      -0.578741       -15.7483
  45   1.0000      -0.571225       -15.5438
  46   1.0000      -0.568745       -15.4763
  47   1.0000      -0.564095       -15.3498
  48   1.0000      -0.560423       -15.2499
  49   1.0000      -0.556784       -15.1509
  50   1.0000      -0.547464       -14.8973
  51   1.0000      -0.535452       -14.5704
  52   1.0000      -0.530887       -14.4462
  53   1.0000      -0.519661       -14.1407
  54   1.0000      -0.513963       -13.9856
  55   1.0000      -0.508015       -13.8238
  56   1.0000      -0.490928       -13.3588
  57   1.0000      -0.424393       -11.5483
  58   1.0000      -0.419833       -11.4242
  59   1.0000      -0.417248       -11.3539
  60   1.0000      -0.408753       -11.1227
  61   1.0000      -0.403779       -10.9874
  62   1.0000      -0.399070       -10.8592
  63   1.0000      -0.393507       -10.7079
  64   1.0000      -0.389411       -10.5964
  65   1.0000      -0.349202        -9.5023
  66   1.0000      -0.325400        -8.8546
  67   0.0000       0.004909         0.1336
  68   0.0000       0.027672         0.7530
  69   0.0000       0.033142         0.9018
  70   0.0000       0.036754         1.0001
  71   0.0000       0.054969         1.4958

                 SPIN DOWN ORBITALS
  NO   OCC          E(Eh)            E(eV)
   0   1.0000     -19.326176      -525.8920
   1   1.0000     -19.326090      -525.8896
   2   1.0000     -19.325653      -525.8777
   3   1.0000     -19.324903      -525.8573
   4   1.0000     -14.569569      -396.4581
   5   1.0000     -14.564519      -396.3207
   6   1.0000     -14.563451      -396.2916
   7   1.0000     -14.561911      -396.2498
   8   1.0000     -10.510062      -285.9933
   9   1.0000     -10.505160      -285.8599
  10   1.0000     -10.478721      -285.1405
  11   1.0000     -10.477034      -285.0946
  12   1.0000     -10.451027      -284.3869
  13   1.0000     -10.446126      -284.2535
  14   1.0000     -10.408917      -283.2410
  15   1.0000     -10.408774      -283.2371
  16   1.0000     -10.394292      -282.8431
  17   1.0000     -10.370779      -282.2032
  18   1.0000      -1.233618       -33.5685
  19   1.0000      -1.221189       -33.2302
  20   1.0000      -1.195179       -32.5225
  21   1.0000      -1.190574       -32.3972
  22   1.0000      -1.121475       -30.5169
  23   1.0000      -1.102000       -29.9869
  24   1.0000      -1.071811       -29.1655
  25   1.0000      -1.054434       -28.6926
  26   1.0000      -0.974203       -26.5094
  27   1.0000      -0.932849       -25.3841
  28   1.0000      -0.880597       -23.9623
  29   1.0000      -0.841300       -22.8929
  30   1.0000      -0.824258       -22.4292
  31   1.0000      -0.800345       -21.7785
  32   1.0000      -0.790122       -21.5003
  33   1.0000      -0.784593       -21.3498
  34   1.0000      -0.698926       -19.0187
  35   1.0000      -0.688529       -18.7358
  36   1.0000      -0.683545       -18.6002
  37   1.0000      -0.671135       -18.2625
  38   1.0000      -0.651871       -17.7383
  39   1.0000      -0.633876       -17.2486
  40   1.0000      -0.612986       -16.6802
  41   1.0000      -0.598663       -16.2905
  42   1.0000      -0.592443       -16.1212
  43   1.0000      -0.583580       -15.8800
  44   1.0000      -0.570736       -15.5305
  45   1.0000      -0.567818       -15.4511
  46   1.0000      -0.559887       -15.2353
  47   1.0000      -0.557484       -15.1699
  48   1.0000      -0.554185       -15.0801
  49   1.0000      -0.551474       -15.0064
  50   1.0000      -0.534824       -14.5533
  51   1.0000      -0.529954       -14.4208
  52   1.0000      -0.520149       -14.1540
  53   1.0000      -0.514398       -13.9975
  54   1.0000      -0.504852       -13.7377
  55   1.0000      -0.500063       -13.6074
  56   1.0000      -0.484836       -13.1931
  57   1.0000      -0.421136       -11.4597
  58   1.0000      -0.416229       -11.3262
  59   1.0000      -0.408772       -11.1233
  60   1.0000      -0.396864       -10.7992
  61   1.0000      -0.392241       -10.6734
  62   1.0000      -0.389351       -10.5948
  63   1.0000      -0.388041       -10.5591
  64   1.0000      -0.379626       -10.3301
  65   0.0000      -0.069050        -1.8789
  66   0.0000      -0.053316        -1.4508
  67   0.0000       0.004325         0.1177
  68   0.0000       0.027483         0.7479
  69   0.0000       0.032942         0.8964

----------------------------------------------------------------------------------------------------
          SPIN FLIP ABSORPTION SPECTRUM VIA TRANSITION ELECTRIC DIPOLE MOMENTS
----------------------------------------------------------------------------------------------------
     Transition      Energy     Energy  Wavelength fosc(D2)      D2        DX        DY        DZ
                      (eV)      (cm-1)    (nm)                 (au**2)    (au)      (au)      (au)
----------------------------------------------------------------------------------------------------
  1-3A  ->  2-3A    0.084782     683.8  14623.8   0.000019556   0.00941   0.08425  -0.03373   0.03434
  1-3A  ->  3-3A    2.143821   17291.1   578.3   0.010937451   0.20824   0.43082  -0.02407   0.14853

Dispersion correction             ... done (  0.1 sec)

MULLIKEN ATOMIC CHARGES AND SPIN DENSITIES
------------------------------------------
   0 O :   -0.698328    0.109039
   1 O :   -0.697723   -0.089197
   2 O :   -0.627215    0.001333
   3 O :   -0.650697    0.000161
   4 N :   -0.264315    0.010845
   5 N :   -0.380258   -0.019340
   6 N :    0.082253    0.000227
   7 N :    0.123338   -0.022239
   8 C :   -0.182632    0.336468
   9 C :    0.441996    0.259952
  10 C :    0.434527   -0.047927
  11 C :    0.327797   -0.309910
  12 C :   -1.324327    0.001300
  13 C :   -1.340380   -0.025808
  14 C :    0.602370    0.049102
  15 C :    0.116987   -0.310279
  16 C :    0.345990   -0.012526
  17 C :    0.299974    0.019464
  18 H :    0.481900    0.013031
  19 H :    0.591724    0.002715
  20 H :    0.290524    0.001105
  21 H :    0.324483    0.020008
  22 H :    0.358314    0.017596
  23 H :    0.304146   -0.003257
  24 H :    0.404317   -0.004528
  25 H :    0.244725   -0.002717
  26 H :    0.189806   -0.001226
  27 H :    0.157521    0.002531
  28 H :    0.023923   -0.001933
  29 H :    0.019261    0.006012
Sum of atomic charges       :   -0.0000000

LOEWDIN ATOMIC CHARGES AND SPIN DENSITIES
-----------------------------------------
   0 O :    0.086510    0.095605
   1 O :    0.090213   -0.075497
   2 O :    0.127324    0.001252
   3 O :    0.080046   -0.000163
   4 N :    0.257494   -0.000353
   5 N :    0.239367    0.002876
   6 N :    0.338853    0.002592
   7 N :    0.324653   -0.016946
   8 C :   -0.070889    0.297654
   9 C :    0.032979   -0.304789
  10 C :   -0.113058    0.012566
  11 C :   -0.133682   -0.019431
  12 C :    0.161652    0.043508
  13 C :    0.217098   -0.037998
  14 C :   -0.457136    0.051558
  15 C :   -0.433404   -0.057909
  16 C :   -0.518412   -0.000932
  17 C :   -0.485057   -0.000253
  18 H :    0.072696    0.002513
  19 H :    0.053325   -0.006320
  20 H :   -0.004321   -0.000838
  21 H :    0.042335    0.016622
  22 H :    0.032663    0.014598
  23 H :   -0.018734   -0.009744
  24 H :    0.035542   -0.011773
  25 H :   -0.026646    0.002074
  26 H :    0.058576    0.000056
  27 H :    0.016915    0.000573
  28 H :   -0.000937    0.000441
  29 H :   -0.005968   -0.001542

  Mayer bond orders larger than 0.100000
B(  0-O , 14-C ) :   1.3758 B(  1-O , 15-C ) :   1.3368 B(  2-O , 16-C ) :   1.5138
B(  3-O , 17-C ) :   1.6046 B(  4-N ,  8-C ) :   0.2850 B(  4-N , 10-C ) :   0.3785
B(  4-N , 16-C ) :   1.0405 B(  4-N , 26-H ) :   0.9120 B(  5-N ,  9-C ) :   0.3567
B(  5-N , 17-C ) :   1.1307 B(  5-N , 27-H ) :   0.9894 B(  6-N ,  8-C ) :  -0.1299
B(  6-N , 10-C ) :   0.1282 B(  6-N , 14-C ) :   1.0885 B(  6-N , 16-C ) :   0.9491
B(  6-N , 28-H ) :   1.0978 B(  7-N , 15-C ) :   1.0338 B(  7-N , 17-C ) :   0.9949
B(  7-N , 29-H ) :   1.0945 B(  8-C ,  9-C ) :   0.1367 B(  8-C , 10-C ) :   0.3956
B(  8-C , 11-C ) :   0.2824 B(  8-C , 12-C ) :   0.4908 B(  8-C , 14-C ) :   0.6955
B(  8-C , 16-C ) :   0.1358 B(  8-C , 18-H ) :  -0.1345 B(  8-C , 20-H ) :  -0.1099
B(  9-C , 11-C ) :   0.4361 B(  9-C , 13-C ) :   0.4386 B(  9-C , 15-C ) :   0.7546
B(  9-C , 17-C ) :   0.1194 B(  9-C , 19-H ) :  -0.2589 B(  9-C , 25-H ) :  -0.1031
B( 10-C , 11-C ) :   0.5156 B( 10-C , 16-C ) :  -0.1571 B( 10-C , 18-H ) :   0.8056
B( 11-C , 13-C ) :  -0.1429 B( 11-C , 17-C ) :  -0.2561 B( 11-C , 19-H ) :   0.7843
B( 12-C , 20-H ) :   1.0299 B( 12-C , 21-H ) :   0.8425 B( 12-C , 22-H ) :   0.9370
B( 13-C , 23-H ) :   0.9439 B( 13-C , 24-H ) :   0.8790 B( 13-C , 25-H ) :   1.0747
B( 15-C , 17-C ) :  -0.1317

Dispersion correction           -0.061570501
FINAL SINGLE POINT ENERGY      -908.781681970714

DIPOLE MOMENT
-------------

Method             : TDA/CIS
Type of density    : Electron Density
Level              : Relaxed density
State              :   2
Multiplicity       :   3
Irrep              :   0
Energy             :     0.0000000000000000 Eh
Relativity type    :
Basis              : AO
                                X                 Y                 Z
Electronic contribution:     -6.653376445      -8.512899981      -5.117062410
Nuclear contribution   :      7.120155718       9.985012208       7.501349749
                        -----------------------------------------
Total Dipole Moment    :      0.466779272       1.472112228       2.384287340
                        -----------------------------------------
Magnitude (a.u.)       :      2.840743462
Magnitude (Debye)      :      7.220596050

Rotational constants in cm-1:             0.022175             0.013267             0.012830
Rotational constants in MHz :           664.785010           397.733483           384.628855

                             ****ORCA TERMINATED NORMALLY****
TOTAL RUN TIME: 0 days 0 hours 5 minutes 3 seconds 905 msec
