                         Program Version 6.0.0  -   RELEASE  -
|  1> ! Engrad def2-TZVPPD wB97M-D3BJ
|  2> %pal nprocs 8 end%pal nprocs 64 end
|  3> %tddft Nroots 2 Iroot 2
|  4> sf true
|  5> end
|  6> *xyz 0 3
|  7> O   2.10449547 -0.38327737 -1.31892038
|  8> O   0.61606161 2.67127546 -1.92057369
|  9> O   0.06869339 -3.93990212 0.74421371
| 10> O   -2.18513741 -0.87230777 -1.29060762
| 11> N   0.28338436 -2.01475997 1.94281169
| 12> N   -1.23249103 0.02844195 0.5082405
| 13> N   1.17139289 -2.19513005 -0.19600712
| 14> N   -0.72560017 0.93149316 -1.62108796
| 15> C   1.30229056 0.0147896 0.92740015
| 16> C   -1.09982838 2.78043278 -0.24574894
| 17> C   0.61428621 -0.62978169 2.07524273
| 18> C   -0.14041495 0.47602273 1.28337713
| 19> C   2.28610341 1.14855 1.03845058
| 20> C   -1.39505447 3.72686642 0.70027422
| 21> C   1.54996124 -0.88320959 -0.29462881
| 22> C   -0.31437467 2.20732967 -1.2834554
| 23> C   0.46214265 -2.81333377 0.88317426
| 24> C   -1.46712672 0.05042386 -0.84501775
| 25> H   0.86242969 -0.24228175 3.07797673
| 26> H   -0.16294967 1.38696704 1.83188453
| 27> H   2.04952635 1.91749236 0.27903809
| 28> H   2.37992484 1.54079723 2.05990704
| 29> H   3.31114983 0.6762667 0.88487151
| 30> H   -2.44929865 3.87490865 0.69327319
| 31> H   -1.22005926 3.35693888 1.72139596
| 32> H   -0.94428011 4.68172402 0.61825628
| 33> H   -0.04615543 -2.40278701 2.76943431
| 34> H   -1.79942477 -0.65498473 0.94260401
| 35> H   1.13433282 -2.88835452 -0.97397024
| 36> H   -0.37389321 0.50671969 -2.45599927
| 37> *
| 38>
| 39>                          ****END OF INPUT****

CARTESIAN COORDINATES (ANGSTROEM)
---------------------------------
  O      2.104495   -0.383277   -1.318920
  O      0.616062    2.671275   -1.920574
  O      0.068693   -3.939902    0.744214
  O     -2.185137   -0.872308   -1.290608
  N      0.283384   -2.014760    1.942812
  N     -1.232491    0.028442    0.508240
  N      1.171393   -2.195130   -0.196007
  N     -0.725600    0.931493   -1.621088
  C      1.302291    0.014790    0.927400
  C     -1.099828    2.780433   -0.245749
  C      0.614286   -0.629782    2.075243
  C     -0.140415    0.476023    1.283377
  C      2.286103    1.148550    1.038451
  C     -1.395054    3.726866    0.700274
  C      1.549961   -0.883210   -0.294629
  C     -0.314375    2.207330   -1.283455
  C      0.462143   -2.813334    0.883174
  C     -1.467127    0.050424   -0.845018
  H      0.862430   -0.242282    3.077977
  H     -0.162950    1.386967    1.831885
  H      2.049526    1.917492    0.279038
  H      2.379925    1.540797    2.059907
  H      3.311150    0.676267    0.884872
  H     -2.449299    3.874909    0.693273
  H     -1.220059    3.356939    1.721396
  H     -0.944280    4.681724    0.618256
  H     -0.046155   -2.402787    2.769434
  H     -1.799425   -0.654985    0.942604
  H      1.134333   -2.888355   -0.973970
  H     -0.373893    0.506720   -2.455999

 Total Charge           Charge          ....    0
 Multiplicity           Mult            ....    3
 Number of Electrons    NEL             ....  132
 Basis Dimension        Dim             ....  882

ORBITAL ENERGIES
----------------
                 SPIN UP ORBITALS
  NO   OCC          E(Eh)            E(eV)
   0   1.0000     -19.329742      -525.9890
   1   1.0000     -19.328487      -525.9549
   2   1.0000     -19.327323      -525.9232
   3   1.0000     -19.311445      -525.4911
   4   1.0000     -14.574772      -396.5997
   5   1.0000     -14.574053      -396.5801
   6   1.0000     -14.552870      -396.0037
   7   1.0000     -14.550362      -395.9355
   8   1.0000     -10.514494      -286.1139
   9   1.0000     -10.502043      -285.7751
  10   1.0000     -10.496346      -285.6201
  11   1.0000     -10.482213      -285.2355
  12   1.0000     -10.445447      -284.2351
  13   1.0000     -10.428856      -283.7836
  14   1.0000     -10.413619      -283.3690
  15   1.0000     -10.409747      -283.2636
  16   1.0000     -10.380691      -282.4730
  17   1.0000     -10.366941      -282.0988
  18   1.0000      -1.227434       -33.4002
  19   1.0000      -1.205473       -32.8026
  20   1.0000      -1.182540       -32.1785
  21   1.0000      -1.170945       -31.8630
  22   1.0000      -1.127295       -30.6752
  23   1.0000      -1.083836       -29.4927
  24   1.0000      -1.065411       -28.9913
  25   1.0000      -1.060995       -28.8711
  26   1.0000      -1.004207       -27.3259
  27   1.0000      -0.962810       -26.1994
  28   1.0000      -0.870206       -23.6795
  29   1.0000      -0.846369       -23.0309
  30   1.0000      -0.820527       -22.3277
  31   1.0000      -0.808285       -21.9946
  32   1.0000      -0.786889       -21.4123
  33   1.0000      -0.766537       -20.8585
  34   1.0000      -0.717540       -19.5253
  35   1.0000      -0.705018       -19.1845
  36   1.0000      -0.691308       -18.8115
  37   1.0000      -0.659549       -17.9472
  38   1.0000      -0.646058       -17.5801
  39   1.0000      -0.626650       -17.0520
  40   1.0000      -0.617120       -16.7927
  41   1.0000      -0.611337       -16.6353
  42   1.0000      -0.603130       -16.4120
  43   1.0000      -0.591543       -16.0967
  44   1.0000      -0.575344       -15.6559
  45   1.0000      -0.573043       -15.5933
  46   1.0000      -0.568624       -15.4731
  47   1.0000      -0.566575       -15.4173
  48   1.0000      -0.553464       -15.0605
  49   1.0000      -0.547258       -14.8917
  50   1.0000      -0.542476       -14.7615
  51   1.0000      -0.534698       -14.5499
  52   1.0000      -0.527081       -14.3426
  53   1.0000      -0.519059       -14.1243
  54   1.0000      -0.490926       -13.3588
  55   1.0000      -0.478083       -13.0093
  56   1.0000      -0.432487       -11.7686
  57   1.0000      -0.421455       -11.4684
  58   1.0000      -0.418593       -11.3905
  59   1.0000      -0.405944       -11.0463
  60   1.0000      -0.392173       -10.6716
  61   1.0000      -0.391706       -10.6589
  62   1.0000      -0.386518       -10.5177
  63   1.0000      -0.376704       -10.2506
  64   1.0000      -0.371000       -10.0954
  65   1.0000      -0.341051        -9.2805
  66   1.0000      -0.338070        -9.1993
  67   0.0000       0.006970         0.1897
  68   0.0000       0.025765         0.7011
  69   0.0000       0.031193         0.8488
  70   0.0000       0.039012         1.0616
  71   0.0000       0.043419         1.1815

                 SPIN DOWN ORBITALS
  NO   OCC          E(Eh)            E(eV)
   0   1.0000     -19.329735      -525.9888
   1   1.0000     -19.328432      -525.9534
   2   1.0000     -19.320874      -525.7477
   3   1.0000     -19.311533      -525.4935
   4   1.0000     -14.574735      -396.5987
   5   1.0000     -14.574056      -396.5802
   6   1.0000     -14.552176      -395.9849
   7   1.0000     -14.549483      -395.9115
   8   1.0000     -10.514492      -286.1139
   9   1.0000     -10.502043      -285.7751
  10   1.0000     -10.496356      -285.6204
  11   1.0000     -10.483465      -285.2696
  12   1.0000     -10.445371      -284.2330
  13   1.0000     -10.428849      -283.7834
  14   1.0000     -10.413545      -283.3670
  15   1.0000     -10.385190      -282.5954
  16   1.0000     -10.381652      -282.4991
  17   1.0000     -10.366941      -282.0988
  18   1.0000      -1.227405       -33.3994
  19   1.0000      -1.199761       -32.6472
  20   1.0000      -1.177768       -32.0487
  21   1.0000      -1.170845       -31.8603
  22   1.0000      -1.127160       -30.6716
  23   1.0000      -1.082575       -29.4584
  24   1.0000      -1.063882       -28.9497
  25   1.0000      -1.058653       -28.8074
  26   1.0000      -1.003737       -27.3131
  27   1.0000      -0.934130       -25.4190
  28   1.0000      -0.870084       -23.6762
  29   1.0000      -0.826518       -22.4907
  30   1.0000      -0.818631       -22.2761
  31   1.0000      -0.808221       -21.9928
  32   1.0000      -0.785542       -21.3757
  33   1.0000      -0.763764       -20.7831
  34   1.0000      -0.713142       -19.4056
  35   1.0000      -0.703750       -19.1500
  36   1.0000      -0.681805       -18.5528
  37   1.0000      -0.658462       -17.9177
  38   1.0000      -0.637391       -17.3443
  39   1.0000      -0.617733       -16.8094
  40   1.0000      -0.611867       -16.6497
  41   1.0000      -0.602775       -16.4023
  42   1.0000      -0.602486       -16.3945
  43   1.0000      -0.573947       -15.6179
  44   1.0000      -0.569633       -15.5005
  45   1.0000      -0.562393       -15.3035
  46   1.0000      -0.561237       -15.2720
  47   1.0000      -0.556432       -15.1413
  48   1.0000      -0.549764       -14.9598
  49   1.0000      -0.545809       -14.8522
  50   1.0000      -0.539211       -14.6727
  51   1.0000      -0.532322       -14.4852
  52   1.0000      -0.526168       -14.3177
  53   1.0000      -0.508113       -13.8265
  54   1.0000      -0.490659       -13.3515
  55   1.0000      -0.477558       -12.9950
  56   1.0000      -0.428401       -11.6574
  57   1.0000      -0.420334       -11.4379
  58   1.0000      -0.408453       -11.1146
  59   1.0000      -0.400073       -10.8865
  60   1.0000      -0.389646       -10.6028
  61   1.0000      -0.382789       -10.4162
  62   1.0000      -0.377487       -10.2719
  63   1.0000      -0.369908       -10.0657
  64   1.0000      -0.369209       -10.0467
  65   0.0000      -0.039813        -1.0834
  66   0.0000      -0.008828        -0.2402
  67   0.0000       0.007203         0.1960
  68   0.0000       0.025592         0.6964
  69   0.0000       0.031878         0.8674

----------------------------------------------------------------------------------------------------
          SPIN FLIP ABSORPTION SPECTRUM VIA TRANSITION ELECTRIC DIPOLE MOMENTS
----------------------------------------------------------------------------------------------------
     Transition      Energy     Energy  Wavelength fosc(D2)      D2        DX        DY        DZ
                      (eV)      (cm-1)    (nm)                 (au**2)    (au)      (au)      (au)
----------------------------------------------------------------------------------------------------
  1-3A  ->  2-1A    0.092204     743.7  13446.7   0.000021492   0.00951   0.04088  -0.00911   0.08809

Dispersion correction             ... done (  0.1 sec)

MULLIKEN ATOMIC CHARGES AND SPIN DENSITIES
------------------------------------------
   0 O :   -0.662555   -0.001734
   1 O :   -0.651175   -0.089908
   2 O :   -0.628393   -0.000039
   3 O :   -0.696741   -0.002410
   4 N :   -0.038527    0.001304
   5 N :   -0.138034    0.021811
   6 N :   -0.030456    0.000271
   7 N :    0.008972   -0.031595
   8 C :    1.851272    0.012996
   9 C :    0.591848    0.387773
  10 C :   -0.393095   -0.021845
  11 C :   -0.334929   -0.009652
  12 C :   -1.524389    0.026950
  13 C :   -0.885320    0.098539
  14 C :   -0.153606   -0.011410
  15 C :    0.210679   -0.382236
  16 C :    0.475700    0.000154
  17 C :    0.529305   -0.015098
  18 H :    0.242929    0.000120
  19 H :    0.257014   -0.017421
  20 H :    0.261673   -0.002729
  21 H :    0.373256   -0.001183
  22 H :    0.347162    0.000216
  23 H :    0.259344   -0.000695
  24 H :    0.238862    0.029661
  25 H :    0.290029    0.001195
  26 H :   -0.037737    0.000170
  27 H :    0.064321    0.002237
  28 H :    0.105629   -0.000045
  29 H :    0.066964    0.004604
Sum of atomic charges       :   -0.0000000

LOEWDIN ATOMIC CHARGES AND SPIN DENSITIES
-----------------------------------------
   0 O :    0.050013   -0.000215
   1 O :    0.080736   -0.087559
   2 O :    0.106862    0.000015
   3 O :    0.048219   -0.003468
   4 N :    0.312197    0.000163
   5 N :    0.272337    0.008721
   6 N :    0.328046   -0.000003
   7 N :    0.301528   -0.004699
   8 C :   -0.214222   -0.000027
   9 C :    0.232560    0.088781
  10 C :   -0.030415   -0.000323
  11 C :   -0.053201    0.000742
  12 C :    0.188515   -0.000106
  13 C :    0.122839    0.009960
  14 C :   -0.312178    0.000007
  15 C :   -0.541399   -0.015338
  16 C :   -0.472050    0.000028
  17 C :   -0.434474   -0.001101
  18 H :    0.064636   -0.000018
  19 H :    0.007242   -0.000236
  20 H :    0.006732    0.000017
  21 H :   -0.000117    0.000007
  22 H :    0.035411    0.000019
  23 H :   -0.009218   -0.006264
  24 H :   -0.003249    0.008154
  25 H :    0.021785    0.002522
  26 H :   -0.062978    0.000013
  27 H :   -0.052819    0.000506
  28 H :    0.025027   -0.000004
  29 H :   -0.018367   -0.000293

  Mayer bond orders larger than 0.100000
B(  0-O , 14-C ) :   1.4810 B(  1-O ,  9-C ) :   0.1494 B(  1-O , 15-C ) :   1.3269
B(  2-O , 16-C ) :   1.5810 B(  3-O , 17-C ) :   1.4861 B(  4-N , 10-C ) :   0.7812
B(  4-N , 16-C ) :   1.0618 B(  4-N , 26-H ) :   1.2022 B(  5-N ,  9-C ) :   0.1269
B(  5-N , 11-C ) :   0.5054 B(  5-N , 17-C ) :   0.9509 B(  5-N , 19-H ) :  -0.1266
B(  5-N , 27-H ) :   1.1050 B(  6-N , 14-C ) :   1.0575 B(  6-N , 16-C ) :   0.9593
B(  6-N , 28-H ) :   1.0205 B(  7-N , 11-C ) :   0.1040 B(  7-N , 15-C ) :   0.7961
B(  7-N , 17-C ) :   0.9906 B(  7-N , 29-H ) :   1.0678 B(  8-C , 10-C ) :   0.4029
B(  8-C , 11-C ) :   0.1398 B(  8-C , 12-C ) :   0.1306 B(  8-C , 14-C ) :   0.1038
B(  8-C , 21-H ) :  -0.1017 B(  9-C , 13-C ) :   0.4612 B(  9-C , 15-C ) :   1.0483
B( 10-C , 11-C ) :   0.9454 B( 10-C , 12-C ) :  -0.1378 B( 10-C , 14-C ) :  -0.1313
B( 10-C , 18-H ) :   1.1015 B( 11-C , 12-C ) :   0.1425 B( 11-C , 14-C ) :   0.1097
B( 11-C , 17-C ) :  -0.1133 B( 11-C , 19-H ) :   1.1831 B( 12-C , 20-H ) :   0.9516
B( 12-C , 21-H ) :   1.0382 B( 12-C , 22-H ) :   0.8965 B( 13-C , 23-H ) :   1.0250
B( 13-C , 24-H ) :   0.9919 B( 13-C , 25-H ) :   0.9047

Dispersion correction           -0.055966072
FINAL SINGLE POINT ENERGY      -908.657216404888

DIPOLE MOMENT
-------------

Method             : TDA/CIS
Type of density    : Electron Density
Level              : Relaxed density
State              :   2
Multiplicity       :   3
Irrep              :   0
Energy             :     0.0000000000000000 Eh
Relativity type    :
Basis              : AO
                                X                 Y                 Z
Electronic contribution:     -1.658206019      -9.602589880      -6.991566185
Nuclear contribution   :      1.365334550      11.018997362      10.204415521
                        -----------------------------------------
Total Dipole Moment    :     -0.292871468       1.416407482       3.212849336
                        -----------------------------------------
Magnitude (a.u.)       :      3.523405272
Magnitude (Debye)      :      8.955784473

Rotational constants in cm-1:             0.023231             0.011647             0.011129
Rotational constants in MHz :           696.462723           349.176668           333.652583

                             ****ORCA TERMINATED NORMALLY****
TOTAL RUN TIME: 0 days 0 hours 4 minutes 39 seconds 676 msec
