                         Program Version 6.0.0  -   RELEASE  -
|  1> ! Opt wB97M-D3BJ def2-TZVPPD
|  2> %pal nprocs 8 end %pal nprocs 64 end
|  3> %geom
|  4> Constraints
|  5>     {A 2 1 0 116.4406779661017 C }
|  6> end
|  7> MaxIter 200
|  8> end
|  9> *xyz 0 1
| 10> O   1.388231124591707 0.877468830473182 0.0
| 11> C   0.7509 -0.4065 0.0
| 12> C   -0.7502 -0.4076 0.0
| 13> H   1.2625 -0.6786 0.9136
| 14> H   1.2625 -0.6787 -0.9136
| 15> H   -1.2614 -0.6806 -0.9136
| 16> H   -1.2614 -0.6805 0.9136
| 17> *
| 18>
| 19>                          ****END OF INPUT****
 Total Charge           Charge          ....    0
 Multiplicity           Mult            ....    1
 Number of Electrons    NEL             ....   24
Dispersion correction           -0.005410585
FINAL SINGLE POINT ENERGY      -153.699337743110
Dispersion correction             ... done (  0.1 sec)
Dispersion correction           -0.005468278
FINAL SINGLE POINT ENERGY      -153.723922098309
Dispersion correction             ... done (  0.1 sec)
Dispersion correction           -0.005526841
FINAL SINGLE POINT ENERGY      -153.737658806564
Dispersion correction             ... done (  0.1 sec)
FINAL SINGLE POINT ENERGY      -153.748315413611
FINAL SINGLE POINT ENERGY      -153.753896424063
FINAL SINGLE POINT ENERGY      -153.759578306586
FINAL SINGLE POINT ENERGY      -153.765057010244
FINAL SINGLE POINT ENERGY      -153.770122742523
FINAL SINGLE POINT ENERGY      -153.777109504912
FINAL SINGLE POINT ENERGY      -153.786774925105
FINAL SINGLE POINT ENERGY      -153.928510772244
FINAL SINGLE POINT ENERGY      -153.928585289126
FINAL SINGLE POINT ENERGY      -153.928681698522
FINAL SINGLE POINT ENERGY      -153.928776525914
FINAL SINGLE POINT ENERGY      -153.928809187637
FINAL SINGLE POINT ENERGY      -153.928820399489
FINAL SINGLE POINT ENERGY      -153.928823115908
Dispersion correction             ... done (  0.1 sec)
Dispersion correction           -0.005551853
FINAL SINGLE POINT ENERGY      -153.928824308868
Dispersion correction             ... done (  0.1 sec)
Dispersion correction           -0.005552013
FINAL SINGLE POINT ENERGY      -153.928824527651
Dispersion correction             ... done (  0.1 sec)
                    ***********************HURRAY********************

CARTESIAN COORDINATES (ANGSTROEM)
---------------------------------
  O      1.019388    1.175893   -0.070195
  C      0.889326    0.038018    0.308502
  C     -0.309652   -0.711756   -0.216632
  H      1.596492   -0.446655    1.000255
  H      0.003861   -1.608545   -0.754017
  H     -0.865522   -0.054050   -0.874327
  H     -0.942762   -1.047936    0.606414

 Multiplicity           Mult            ....    1
 Number of Electrons    NEL             ....   24
 Basis Dimension        Dim             ....  182

ORBITAL ENERGIES
----------------

  NO   OCC          E(Eh)            E(eV)
   0   2.0000     -19.337310      -526.1949
   1   2.0000     -10.443288      -284.1763
   2   2.0000     -10.352760      -281.7129
   3   2.0000      -1.186608       -32.2892
   4   2.0000      -0.874709       -23.8021
   5   2.0000      -0.707848       -19.2615
   6   2.0000      -0.598753       -16.2929
   7   2.0000      -0.556576       -15.1452
   8   2.0000      -0.547709       -14.9039
   9   2.0000      -0.507292       -13.8041
  10   2.0000      -0.472424       -12.8553
  11   2.0000      -0.367585       -10.0025
  12   0.0000       0.038980         1.0607
  13   0.0000       0.051548         1.4027
  14   0.0000       0.058987         1.6051
  15   0.0000       0.084541         2.3005
  16   0.0000       0.087001         2.3674

MULLIKEN ATOMIC CHARGES
-----------------------
   0 O :   -0.473376
   1 C :    0.242516
   2 C :   -0.691303
   3 H :    0.243889
   4 H :    0.219543
   5 H :    0.239191
   6 H :    0.219539
Sum of atomic charges:   -0.0000000

LOEWDIN ATOMIC CHARGES
----------------------
   0 O :    0.054983
   1 C :   -0.203011
   2 C :    0.164838
   3 H :    0.023188
   4 H :   -0.014315
   5 H :   -0.011333
   6 H :   -0.014350

  Mayer bond orders larger than 0.100000
B(  0-O ,  1-C ) :   1.7718 B(  1-C ,  2-C ) :   0.7766 B(  1-C ,  3-H ) :   0.9815
B(  2-C ,  4-H ) :   0.9940 B(  2-C ,  5-H ) :   0.9594 B(  2-C ,  6-H ) :   0.9940

Dispersion correction           -0.005552052
FINAL SINGLE POINT ENERGY      -153.928824592744

DIPOLE MOMENT
-------------

Method             : SCF
Type of density    : Electron Density
Multiplicity       :   1
Irrep              :   0
Energy             :  -153.9232725410113005 Eh
Relativity type    :
Basis              : AO
                                X                 Y                 Z
Electronic contribution:      1.888628448       2.562406404       0.257720074
Nuclear contribution   :     -2.152310105      -3.589305013      -0.017829472
                        -----------------------------------------
Total Dipole Moment    :     -0.263681656      -1.026898609       0.239890602
                        -----------------------------------------
Magnitude (a.u.)       :      1.087012544
Magnitude (Debye)      :      2.762966309

Rotational constants in cm-1:             1.706872             0.362905             0.316619
Rotational constants in MHz :         51170.746038         10879.607855          9491.997581

                             ****ORCA TERMINATED NORMALLY****
TOTAL RUN TIME: 0 days 0 hours 9 minutes 9 seconds 382 msec
