                         Program Version 6.0.0  -   RELEASE  -
|  1> ! Engrad def2-TZVPPD wB97M-D3BJ
|  2> %pal nprocs 8 end%pal nprocs 64 end
|  3> %tddft Nroots 2 Iroot 1
|  4> sf true
|  5> end
|  6> *xyz 0 3
|  7> O   4.0436657 0.10120528 0.51509808
|  8> O   -1.69562871 1.49404014 -2.45815017
|  9> O   1.15417661 -2.98873328 -1.03396611
| 10> O   -3.72626436 -1.27934523 0.46891147
| 11> N   0.31280024 -1.27241792 0.23903772
| 12> N   -2.00666435 -0.06694091 1.2597869
| 13> N   2.53930927 -1.47483601 -0.26855156
| 14> N   -2.58144343 0.02966538 -0.95562992
| 15> C   1.80744451 0.50862375 0.96344178
| 16> C   -0.97139384 1.52366476 -0.20244441
| 17> C   0.46040016 -0.16283627 1.14694663
| 18> C   -0.81586369 0.7155912 1.03170923
| 19> C   2.16036044 1.56645782 1.88612744
| 20> C   -0.18419284 2.7978874 -0.32855672
| 21> C   2.89657825 -0.29150875 0.4098137
| 22> C   -1.73444939 1.02950809 -1.32482374
| 23> C   1.32037266 -1.9829726 -0.41361923
| 24> C   -2.81669104 -0.5282028 0.27994889
| 25> H   0.4096252 -0.5500829 2.1857666
| 26> H   -0.68680284 1.45061246 1.80984957
| 27> H   2.74846236 1.1747562 2.68719087
| 28> H   2.72873857 2.37258935 1.40024656
| 29> H   1.20080355 2.00650094 2.28245831
| 30> H   -0.78320368 3.72997387 -0.02665257
| 31> H   0.6819503 2.78553492 0.32763233
| 32> H   0.13207552 3.09468851 -1.31316762
| 33> H   -0.56884542 -1.76572303 0.23786101
| 34> H   -2.05599233 -0.54189938 2.15435264
| 35> H   3.26799765 -1.97504157 -0.68208707
| 36> H   -3.15375539 -0.40299204 -1.66038141
| 37> *
| 38>
| 39>                          ****END OF INPUT****

CARTESIAN COORDINATES (ANGSTROEM)
---------------------------------
  O      4.043666    0.101205    0.515098
  O     -1.695629    1.494040   -2.458150
  O      1.154177   -2.988733   -1.033966
  O     -3.726264   -1.279345    0.468911
  N      0.312800   -1.272418    0.239038
  N     -2.006664   -0.066941    1.259787
  N      2.539309   -1.474836   -0.268552
  N     -2.581443    0.029665   -0.955630
  C      1.807445    0.508624    0.963442
  C     -0.971394    1.523665   -0.202444
  C      0.460400   -0.162836    1.146947
  C     -0.815864    0.715591    1.031709
  C      2.160360    1.566458    1.886127
  C     -0.184193    2.797887   -0.328557
  C      2.896578   -0.291509    0.409814
  C     -1.734449    1.029508   -1.324824
  C      1.320373   -1.982973   -0.413619
  C     -2.816691   -0.528203    0.279949
  H      0.409625   -0.550083    2.185767
  H     -0.686803    1.450612    1.809850
  H      2.748462    1.174756    2.687191
  H      2.728739    2.372589    1.400247
  H      1.200804    2.006501    2.282458
  H     -0.783204    3.729974   -0.026653
  H      0.681950    2.785535    0.327632
  H      0.132076    3.094689   -1.313168
  H     -0.568845   -1.765723    0.237861
  H     -2.055992   -0.541899    2.154353
  H      3.267998   -1.975042   -0.682087
  H     -3.153755   -0.402992   -1.660381

 Total Charge           Charge          ....    0
 Multiplicity           Mult            ....    3
 Number of Electrons    NEL             ....  132
 Basis Dimension        Dim             ....  882

ORBITAL ENERGIES
----------------
                 SPIN UP ORBITALS
  NO   OCC          E(Eh)            E(eV)
   0   1.0000     -19.344878      -526.4009
   1   1.0000     -19.331647      -526.0409
   2   1.0000     -19.324777      -525.8539
   3   1.0000     -19.316193      -525.6203
   4   1.0000     -14.569397      -396.4534
   5   1.0000     -14.565105      -396.3367
   6   1.0000     -14.563900      -396.3039
   7   1.0000     -14.554513      -396.0484
   8   1.0000     -10.508531      -285.9517
   9   1.0000     -10.500612      -285.7362
  10   1.0000     -10.491832      -285.4973
  11   1.0000     -10.480094      -285.1779
  12   1.0000     -10.451066      -284.3880
  13   1.0000     -10.446032      -284.2510
  14   1.0000     -10.425710      -283.6980
  15   1.0000     -10.418551      -283.5032
  16   1.0000     -10.382130      -282.5121
  17   1.0000     -10.377186      -282.3776
  18   1.0000      -1.233683       -33.5702
  19   1.0000      -1.229765       -33.4636
  20   1.0000      -1.205886       -32.8138
  21   1.0000      -1.195198       -32.5230
  22   1.0000      -1.129144       -30.7256
  23   1.0000      -1.106773       -30.1168
  24   1.0000      -1.079584       -29.3770
  25   1.0000      -1.063181       -28.9306
  26   1.0000      -0.988216       -26.8907
  27   1.0000      -0.962030       -26.1782
  28   1.0000      -0.896216       -24.3873
  29   1.0000      -0.846191       -23.0260
  30   1.0000      -0.838631       -22.8203
  31   1.0000      -0.805296       -21.9132
  32   1.0000      -0.798149       -21.7187
  33   1.0000      -0.792283       -21.5591
  34   1.0000      -0.713408       -19.4128
  35   1.0000      -0.704627       -19.1739
  36   1.0000      -0.696893       -18.9634
  37   1.0000      -0.681635       -18.5482
  38   1.0000      -0.653621       -17.7859
  39   1.0000      -0.649950       -17.6861
  40   1.0000      -0.628518       -17.1028
  41   1.0000      -0.608311       -16.5530
  42   1.0000      -0.604396       -16.4465
  43   1.0000      -0.588526       -16.0146
  44   1.0000      -0.587228       -15.9793
  45   1.0000      -0.580113       -15.7857
  46   1.0000      -0.574304       -15.6276
  47   1.0000      -0.566475       -15.4146
  48   1.0000      -0.564308       -15.3556
  49   1.0000      -0.557132       -15.1603
  50   1.0000      -0.556118       -15.1327
  51   1.0000      -0.534271       -14.5382
  52   1.0000      -0.531522       -14.4634
  53   1.0000      -0.526939       -14.3387
  54   1.0000      -0.517347       -14.0777
  55   1.0000      -0.511966       -13.9313
  56   1.0000      -0.497785       -13.5454
  57   1.0000      -0.427303       -11.6275
  58   1.0000      -0.420974       -11.4553
  59   1.0000      -0.414201       -11.2710
  60   1.0000      -0.410309       -11.1651
  61   1.0000      -0.403780       -10.9874
  62   1.0000      -0.395821       -10.7708
  63   1.0000      -0.394002       -10.7214
  64   1.0000      -0.386482       -10.5167
  65   1.0000      -0.352891        -9.6027
  66   1.0000      -0.334393        -9.0993
  67   0.0000       0.007495         0.2040
  68   0.0000       0.027569         0.7502
  69   0.0000       0.030346         0.8258
  70   0.0000       0.033884         0.9220
  71   0.0000       0.052791         1.4365

                 SPIN DOWN ORBITALS
  NO   OCC          E(Eh)            E(eV)
   0   1.0000     -19.340995      -526.2952
   1   1.0000     -19.327639      -525.9318
   2   1.0000     -19.324642      -525.8502
   3   1.0000     -19.316170      -525.6197
   4   1.0000     -14.569234      -396.4490
   5   1.0000     -14.564569      -396.3221
   6   1.0000     -14.563215      -396.2852
   7   1.0000     -14.554543      -396.0493
   8   1.0000     -10.508578      -285.9529
   9   1.0000     -10.500633      -285.7367
  10   1.0000     -10.492714      -285.5213
  11   1.0000     -10.481117      -285.2057
  12   1.0000     -10.450562      -284.3742
  13   1.0000     -10.446148      -284.2541
  14   1.0000     -10.414143      -283.3832
  15   1.0000     -10.407009      -283.1891
  16   1.0000     -10.382605      -282.5251
  17   1.0000     -10.377770      -282.3935
  18   1.0000      -1.232844       -33.5474
  19   1.0000      -1.228377       -33.4258
  20   1.0000      -1.201212       -32.6866
  21   1.0000      -1.189945       -32.3801
  22   1.0000      -1.126890       -30.6642
  23   1.0000      -1.104812       -30.0635
  24   1.0000      -1.077578       -29.3224
  25   1.0000      -1.061881       -28.8953
  26   1.0000      -0.975996       -26.5582
  27   1.0000      -0.945181       -25.7197
  28   1.0000      -0.890245       -24.2248
  29   1.0000      -0.840988       -22.8845
  30   1.0000      -0.830834       -22.6081
  31   1.0000      -0.800797       -21.7908
  32   1.0000      -0.796219       -21.6662
  33   1.0000      -0.790876       -21.5208
  34   1.0000      -0.709410       -19.3040
  35   1.0000      -0.697696       -18.9853
  36   1.0000      -0.689924       -18.7738
  37   1.0000      -0.675809       -18.3897
  38   1.0000      -0.649327       -17.6691
  39   1.0000      -0.636549       -17.3214
  40   1.0000      -0.623538       -16.9673
  41   1.0000      -0.604173       -16.4404
  42   1.0000      -0.598920       -16.2975
  43   1.0000      -0.583278       -15.8718
  44   1.0000      -0.579751       -15.7758
  45   1.0000      -0.571710       -15.5570
  46   1.0000      -0.567280       -15.4365
  47   1.0000      -0.562527       -15.3071
  48   1.0000      -0.561030       -15.2664
  49   1.0000      -0.550927       -14.9915
  50   1.0000      -0.542000       -14.7486
  51   1.0000      -0.528171       -14.3723
  52   1.0000      -0.520843       -14.1729
  53   1.0000      -0.517682       -14.0869
  54   1.0000      -0.511039       -13.9061
  55   1.0000      -0.505240       -13.7483
  56   1.0000      -0.493313       -13.4237
  57   1.0000      -0.423825       -11.5329
  58   1.0000      -0.418616       -11.3911
  59   1.0000      -0.404659       -11.0113
  60   1.0000      -0.399464       -10.8700
  61   1.0000      -0.395488       -10.7618
  62   1.0000      -0.391663       -10.6577
  63   1.0000      -0.388638       -10.5754
  64   1.0000      -0.379780       -10.3343
  65   0.0000      -0.066116        -1.7991
  66   0.0000      -0.055560        -1.5119
  67   0.0000       0.007511         0.2044
  68   0.0000       0.027057         0.7363
  69   0.0000       0.029981         0.8158

----------------------------------------------------------------------------------------------------
          SPIN FLIP ABSORPTION SPECTRUM VIA TRANSITION ELECTRIC DIPOLE MOMENTS
----------------------------------------------------------------------------------------------------
     Transition      Energy     Energy  Wavelength fosc(D2)      D2        DX        DY        DZ
                      (eV)      (cm-1)    (nm)                 (au**2)    (au)      (au)      (au)
----------------------------------------------------------------------------------------------------
  1-3A  ->  2-3A    0.014603     117.8  84901.6   0.000002857   0.00798   0.08915   0.00161   0.00595

Dispersion correction             ... done (  0.1 sec)

MULLIKEN ATOMIC CHARGES AND SPIN DENSITIES
------------------------------------------
   0 O :   -0.636082   -0.012610
   1 O :   -0.676690    0.007454
   2 O :   -0.651740   -0.000478
   3 O :   -0.631567   -0.000204
   4 N :   -0.192898    0.002739
   5 N :   -0.342660   -0.005382
   6 N :    0.007410   -0.001712
   7 N :   -0.009821   -0.001405
   8 C :    0.885060    0.291609
   9 C :    0.413638    0.357123
  10 C :    0.371138   -0.229387
  11 C :    0.272200   -0.161721
  12 C :   -1.636700    0.003674
  13 C :   -1.182704   -0.009311
  14 C :   -0.082814   -0.123215
  15 C :    0.322814   -0.166560
  16 C :    0.448381    0.011454
  17 C :    0.467175    0.010625
  18 H :    0.415244   -0.010278
  19 H :    0.506585   -0.001716
  20 H :    0.377601    0.005316
  21 H :    0.334088    0.005093
  22 H :    0.357712   -0.001090
  23 H :    0.315646    0.011045
  24 H :    0.168839    0.013378
  25 H :    0.290897    0.000776
  26 H :    0.009486   -0.000813
  27 H :    0.081128    0.000735
  28 H :   -0.010993    0.002654
  29 H :    0.009626    0.002206
Sum of atomic charges       :   -0.0000000

LOEWDIN ATOMIC CHARGES AND SPIN DENSITIES
-----------------------------------------
   0 O :    0.096746   -0.009716
   1 O :    0.088951    0.006495
   2 O :    0.113762   -0.000355
   3 O :    0.110731   -0.000308
   4 N :    0.288755   -0.000451
   5 N :    0.278858   -0.000263
   6 N :    0.345175   -0.002737
   7 N :    0.327039   -0.000056
   8 C :   -0.016169   -0.019887
   9 C :    0.009534    0.037444
  10 C :   -0.107870   -0.003517
  11 C :   -0.134301    0.001746
  12 C :    0.151131   -0.003546
  13 C :    0.206827    0.003401
  14 C :   -0.364011   -0.008858
  15 C :   -0.415015    0.001225
  16 C :   -0.509314   -0.000270
  17 C :   -0.524981   -0.000270
  18 H :    0.073768   -0.001478
  19 H :    0.030005    0.000368
  20 H :    0.003314   -0.000729
  21 H :    0.025202   -0.000623
  22 H :    0.015250   -0.000011
  23 H :    0.055033    0.002206
  24 H :   -0.043624   -0.000010
  25 H :   -0.008817    0.000554
  26 H :   -0.038297   -0.000031
  27 H :   -0.011164   -0.000090
  28 H :   -0.040569   -0.000245
  29 H :   -0.005948    0.000013

  Mayer bond orders larger than 0.100000
B(  0-O , 12-C ) :   0.1043 B(  0-O , 14-C ) :   1.4745 B(  1-O , 15-C ) :   1.3524
B(  2-O , 16-C ) :   1.5766 B(  3-O , 17-C ) :   1.6186 B(  4-N , 10-C ) :   0.5081
B(  4-N , 11-C ) :   0.1496 B(  4-N , 16-C ) :   1.1395 B(  4-N , 26-H ) :   1.1471
B(  5-N ,  9-C ) :   0.1638 B(  5-N , 10-C ) :   0.1639 B(  5-N , 17-C ) :   1.1651
B(  5-N , 27-H ) :   1.0875 B(  6-N , 14-C ) :   1.0141 B(  6-N , 16-C ) :   0.9398
B(  6-N , 28-H ) :   1.1711 B(  7-N , 15-C ) :   1.0014 B(  7-N , 17-C ) :   0.9280
B(  7-N , 29-H ) :   1.1243 B(  8-C , 10-C ) :   0.6727 B(  8-C , 14-C ) :   0.7811
B(  8-C , 21-H ) :  -0.1472 B(  8-C , 22-H ) :  -0.2049 B(  9-C , 10-C ) :   0.1395
B(  9-C , 11-C ) :   0.2369 B(  9-C , 13-C ) :   0.5912 B(  9-C , 15-C ) :   0.7023
B(  9-C , 19-H ) :  -0.2986 B(  9-C , 24-H ) :  -0.1248 B( 10-C , 11-C ) :   0.6991
B( 10-C , 18-H ) :   0.7420 B( 11-C , 12-C ) :   0.1006 B( 11-C , 13-C ) :  -0.1538
B( 11-C , 17-C ) :  -0.2369 B( 11-C , 19-H ) :   0.9034 B( 12-C , 20-H ) :   0.8251
B( 12-C , 21-H ) :   1.0308 B( 12-C , 22-H ) :   1.0575 B( 13-C , 15-C ) :  -0.1011
B( 13-C , 23-H ) :   0.9103 B( 13-C , 24-H ) :   0.9615 B( 13-C , 25-H ) :   1.0573
B( 18-H , 19-H ) :   0.1326

Dispersion correction           -0.056991350
FINAL SINGLE POINT ENERGY      -908.784560554926

DIPOLE MOMENT
-------------

Method             : TDA/CIS
Type of density    : Electron Density
Level              : Relaxed density
State              :   1
Multiplicity       :   3
Irrep              :   0
Energy             :     0.0000000000000000 Eh
Relativity type    :
Basis              : AO
                                X                 Y                 Z
Electronic contribution:     -3.264378421      -9.626058408      -5.911422680
Nuclear contribution   :      3.596271874      10.985798748       8.128965901
                        -----------------------------------------
Total Dipole Moment    :      0.331893453       1.359740340       2.217543222
                        -----------------------------------------
Magnitude (a.u.)       :      2.622316723
Magnitude (Debye)      :      6.665399403

Rotational constants in cm-1:             0.021031             0.011134             0.009522
Rotational constants in MHz :           630.481360           333.796212           285.452302

                             ****ORCA TERMINATED NORMALLY****
TOTAL RUN TIME: 0 days 0 hours 4 minutes 25 seconds 59 msec
