                         Program Version 6.0.0  -   RELEASE  -
|  1> ! opt def2-TZVPPD wB97M-D3BJ
|  2> %pal nprocs 8 end%pal nprocs 64 end
|  3>  %geom Constraints
|  4>  {B 9 8 2.6 C}
|  5>  {A 8 9 11 52.285714285714285 C}
|  6>  end
|  7>  end
|  8> *xyz 0 1
|  9> O   2.98579685529314 0.88758230159078 -0.86184571092411
| 10> O   -0.03983205397054 0.68929041702508 -2.10362336723772
| 11> O   0.93431434349854 -3.13274393337945 -0.68767288184107
| 12> O   -3.75829998830163 -0.84727300865116 -0.0472717177755
| 13> N   0.21184538946282 -1.54604804365365 0.7617588924445
| 14> N   -2.13631993928911 0.03188773433438 1.27350571071531
| 15> N   2.02598672506387 -1.14318467211666 -0.64531219127023
| 16> N   -1.91814233924584 0.03137116037665 -1.04498946748291
| 17> C   1.18097737274226 0.71693507080484 0.70173889017321
| 18> C   -0.20686880480777 1.27024627933494 0.21345042231937
| 19> C   0.41441080275909 -0.34173258966541 1.52336266615173
| 20> C   -0.82922175114212 0.58960593673968 1.44434972027296
| 21> C   1.92822011286806 1.69488653817281 1.5963734975385
| 22> C   -0.37809776891576 2.77134929626422 0.04819649358288
| 23> C   2.1403947470937 0.1972384729179 -0.35038567829864
| 24> C   -0.67361678962426 0.6214190571346 -1.0793014500539
| 25> C   1.04142578622994 -2.02697492875068 -0.21027082435993
| 26> C   -2.68467002550422 -0.30396816036989 0.07167054343891
| 27> H   0.80817443950001 -0.54572267081061 2.51895215321335
| 28> H   -0.83785272399001 1.27240685039143 2.28901317073582
| 29> H   2.31167340578204 2.52284411740894 1.00913016264629
| 30> H   1.28982602448342 2.08257620823614 2.38710022492991
| 31> H   2.77390820759972 1.19140411795486 2.06045858523949
| 32> H   -1.41857211141493 3.00964947214868 -0.16882755561625
| 33> H   -0.09065531563179 3.29799318042223 0.95389844358819
| 34> H   0.23426221611057 3.12492645074476 -0.77764887675592
| 35> H   -0.46772570547622 -2.21560145172536 1.0787081584806
| 36> H   -2.71769301149571 -0.17090724573546 2.06627440900372
| 37> H   2.60065167263658 -1.49057255715425 -1.3966820077142
| 38> H   -2.27169977231386 -0.32388339999036 -1.91951041514436
| 39> *
| 40>
| 41>                          ****END OF INPUT****
 Total Charge           Charge          ....    0
 Multiplicity           Mult            ....    1
 Number of Electrons    NEL             ....  132
Dispersion correction           -0.055047284
FINAL SINGLE POINT ENERGY      -908.690549364816
Dispersion correction             ... done (  0.1 sec)
Dispersion correction           -0.055557291
FINAL SINGLE POINT ENERGY      -908.719196708116
Dispersion correction             ... done (  0.1 sec)
Dispersion correction           -0.056112461
FINAL SINGLE POINT ENERGY      -908.739590402925
Dispersion correction             ... done (  0.1 sec)
FINAL SINGLE POINT ENERGY      -908.759420571141
FINAL SINGLE POINT ENERGY      -908.772177990178
FINAL SINGLE POINT ENERGY      -908.777162557543
FINAL SINGLE POINT ENERGY      -908.779038740401
FINAL SINGLE POINT ENERGY      -908.779925497426
FINAL SINGLE POINT ENERGY      -908.780600564389
FINAL SINGLE POINT ENERGY      -908.781125209583
FINAL SINGLE POINT ENERGY      -908.782772908512
FINAL SINGLE POINT ENERGY      -908.782817106214
FINAL SINGLE POINT ENERGY      -908.782863761187
FINAL SINGLE POINT ENERGY      -908.782911878815
FINAL SINGLE POINT ENERGY      -908.782946144857
FINAL SINGLE POINT ENERGY      -908.782968389745
FINAL SINGLE POINT ENERGY      -908.782976572875
Dispersion correction             ... done (  0.1 sec)
Dispersion correction           -0.059754678
FINAL SINGLE POINT ENERGY      -908.782982900150
Dispersion correction             ... done (  0.1 sec)
Dispersion correction           -0.059752359
FINAL SINGLE POINT ENERGY      -908.782985007323
Dispersion correction             ... done (  0.1 sec)
                    ***********************HURRAY********************

CARTESIAN COORDINATES (ANGSTROEM)
---------------------------------
  O      3.320769    0.756158   -0.261825
  O     -0.678015    0.827335   -2.514649
  O      0.680860   -2.828499   -1.149929
  O     -3.549732   -1.087017    0.391673
  N      0.221736   -1.606196    0.701723
  N     -2.008983    0.357231    1.258796
  N      2.015717   -1.053398   -0.672034
  N     -1.917340   -0.311934   -0.983930
  C      1.471303    0.421035    1.166800
  C     -0.484755    1.427214   -0.219361
  C      0.331786   -0.413400    1.487925
  C     -0.561501    0.738377    1.152836
  C      1.964740    1.473808    2.085053
  C     -0.376640    2.895963   -0.324284
  C      2.350890    0.088454    0.035699
  C     -0.978427    0.641398   -1.356744
  C      0.940031   -1.895047   -0.427684
  C     -2.565246   -0.395055    0.254368
  H      0.261832   -0.652616    2.551005
  H     -0.419736    1.506266    1.905764
  H      1.804724    2.471616    1.666335
  H      1.480864    1.424285    3.057530
  H      3.043012    1.375451    2.198752
  H     -1.272734    3.383717    0.074794
  H      0.470749    3.274023    0.252352
  H     -0.259850    3.189811   -1.363402
  H     -0.599934   -2.174955    0.810763
  H     -2.453462    0.198976    2.149034
  H      2.546985   -1.251694   -1.503737
  H     -2.327044   -0.866306   -1.719026

 Multiplicity           Mult            ....    1
 Number of Electrons    NEL             ....  132
 Basis Dimension        Dim             ....  882

ORBITAL ENERGIES
----------------

  NO   OCC          E(Eh)            E(eV)
   0   2.0000     -19.333890      -526.1019
   1   2.0000     -19.328703      -525.9607
   2   2.0000     -19.323720      -525.8251
   3   2.0000     -19.317727      -525.6621
   4   2.0000     -14.561050      -396.2263
   5   2.0000     -14.560866      -396.2213
   6   2.0000     -14.560510      -396.2116
   7   2.0000     -14.550470      -395.9384
   8   2.0000     -10.505017      -285.8560
   9   2.0000     -10.504883      -285.8524
  10   2.0000     -10.485338      -285.3206
  11   2.0000     -10.484198      -285.2895
  12   2.0000     -10.445861      -284.2463
  13   2.0000     -10.440505      -284.1006
  14   2.0000     -10.438908      -284.0571
  15   2.0000     -10.423175      -283.6290
  16   2.0000     -10.387030      -282.6455
  17   2.0000     -10.374928      -282.3161
  18   2.0000      -1.221058       -33.2267
  19   2.0000      -1.217006       -33.1164
  20   2.0000      -1.197169       -32.5766
  21   2.0000      -1.194923       -32.5155
  22   2.0000      -1.121766       -30.5248
  23   2.0000      -1.094555       -29.7843
  24   2.0000      -1.065755       -29.0007
  25   2.0000      -1.053606       -28.6701
  26   2.0000      -1.003317       -27.3016
  27   2.0000      -0.944884       -25.7116
  28   2.0000      -0.896954       -24.4074
  29   2.0000      -0.840421       -22.8690
  30   2.0000      -0.827696       -22.5227
  31   2.0000      -0.799294       -21.7499
  32   2.0000      -0.785950       -21.3868
  33   2.0000      -0.779892       -21.2220
  34   2.0000      -0.708443       -19.2777
  35   2.0000      -0.697394       -18.9771
  36   2.0000      -0.689684       -18.7672
  37   2.0000      -0.671886       -18.2830
  38   2.0000      -0.653963       -17.7952
  39   2.0000      -0.634167       -17.2566
  40   2.0000      -0.619329       -16.8528
  41   2.0000      -0.598536       -16.2870
  42   2.0000      -0.591556       -16.0970
  43   2.0000      -0.585174       -15.9234
  44   2.0000      -0.580817       -15.8048
  45   2.0000      -0.573507       -15.6059
  46   2.0000      -0.566880       -15.4256
  47   2.0000      -0.564793       -15.3688
  48   2.0000      -0.554468       -15.0878
  49   2.0000      -0.547885       -14.9087
  50   2.0000      -0.546466       -14.8701
  51   2.0000      -0.541945       -14.7471
  52   2.0000      -0.536129       -14.5888
  53   2.0000      -0.521408       -14.1882
  54   2.0000      -0.513417       -13.9708
  55   2.0000      -0.507908       -13.8209
  56   2.0000      -0.492600       -13.4043
  57   2.0000      -0.420304       -11.4371
  58   2.0000      -0.418649       -11.3920
  59   2.0000      -0.409019       -11.1300
  60   2.0000      -0.397789       -10.8244
  61   2.0000      -0.392853       -10.6901
  62   2.0000      -0.391046       -10.6409
  63   2.0000      -0.388430       -10.5697
  64   2.0000      -0.376909       -10.2562
  65   2.0000      -0.299776        -8.1573
  66   0.0000      -0.085267        -2.3202
  67   0.0000       0.006870         0.1869
  68   0.0000       0.028335         0.7710
  69   0.0000       0.031998         0.8707
  70   0.0000       0.036327         0.9885

MULLIKEN ATOMIC CHARGES
-----------------------
   0 O :   -0.687363
   1 O :   -0.646552
   2 O :   -0.658564
   3 O :   -0.641300
   4 N :   -0.205216
   5 N :   -0.367572
   6 N :   -0.026973
   7 N :    0.067495
   8 C :    0.244897
   9 C :    0.455554
  10 C :    0.757487
  11 C :    0.370926
  12 C :   -1.619535
  13 C :   -1.541604
  14 C :    0.463938
  15 C :    0.025227
  16 C :    0.483379
  17 C :    0.346234
  18 H :    0.342897
  19 H :    0.650071
  20 H :    0.260421
  21 H :    0.365444
  22 H :    0.393769
  23 H :    0.357448
  24 H :    0.232246
  25 H :    0.382603
  26 H :    0.034384
  27 H :    0.106153
  28 H :    0.023787
  29 H :    0.030321
Sum of atomic charges:   -0.0000000

LOEWDIN ATOMIC CHARGES
----------------------
   0 O :    0.095846
   1 O :    0.112817
   2 O :    0.095299
   3 O :    0.086596
   4 N :    0.304397
   5 N :    0.292241
   6 N :    0.332499
   7 N :    0.325384
   8 C :   -0.039331
   9 C :    0.005643
  10 C :   -0.142452
  11 C :   -0.161150
  12 C :    0.198542
  13 C :    0.193850
  14 C :   -0.389436
  15 C :   -0.403501
  16 C :   -0.481733
  17 C :   -0.493320
  18 H :    0.071961
  19 H :    0.041331
  20 H :    0.003025
  21 H :    0.007757
  22 H :    0.015299
  23 H :    0.015573
  24 H :   -0.012115
  25 H :    0.004302
  26 H :   -0.026425
  27 H :   -0.037403
  28 H :   -0.007837
  29 H :   -0.007661

  Mayer bond orders larger than 0.100000
B(  0-O , 12-C ) :   0.1041 B(  0-O , 14-C ) :   1.2799 B(  1-O , 15-C ) :   1.4575
B(  2-O , 16-C ) :   1.5183 B(  3-O , 17-C ) :   1.5837 B(  4-N ,  8-C ) :   0.1806
B(  4-N ,  9-C ) :   0.1158 B(  4-N , 10-C ) :   0.5224 B(  4-N , 16-C ) :   1.0258
B(  4-N , 26-H ) :   1.0897 B(  5-N ,  9-C ) :   0.2516 B(  5-N , 10-C ) :   0.1636
B(  5-N , 11-C ) :  -0.1942 B(  5-N , 15-C ) :   0.1064 B(  5-N , 17-C ) :   1.2348
B(  5-N , 27-H ) :   1.0192 B(  6-N , 14-C ) :   1.0056 B(  6-N , 16-C ) :   0.9264
B(  6-N , 28-H ) :   1.1065 B(  7-N , 10-C ) :  -0.1298 B(  7-N , 11-C ) :   0.1606
B(  7-N , 15-C ) :   0.9818 B(  7-N , 17-C ) :   0.9661 B(  7-N , 29-H ) :   1.0990
B(  8-C ,  9-C ) :   0.7438 B(  8-C , 10-C ) :   0.1975 B(  8-C , 11-C ) :   0.5426
B(  8-C , 12-C ) :   0.3662 B(  8-C , 14-C ) :   0.6971 B(  8-C , 15-C ) :   0.1345
B(  8-C , 18-H ) :  -0.2736 B(  8-C , 21-H ) :  -0.1788 B(  9-C , 11-C ) :   0.5161
B(  9-C , 12-C ) :   0.1119 B(  9-C , 13-C ) :   0.2122 B(  9-C , 15-C ) :   0.6432
B(  9-C , 25-H ) :  -0.1126 B( 10-C , 11-C ) :   0.2374 B( 10-C , 12-C ) :  -0.4674
B( 10-C , 15-C ) :  -0.1054 B( 10-C , 18-H ) :   1.1614 B( 10-C , 19-H ) :  -0.1319
B( 11-C , 12-C ) :   0.2206 B( 11-C , 13-C ) :  -0.1883 B( 11-C , 15-C ) :  -0.2007
B( 11-C , 17-C ) :  -0.2098 B( 11-C , 18-H ) :  -0.1441 B( 11-C , 19-H ) :   0.7445
B( 12-C , 20-H ) :   0.8546 B( 12-C , 21-H ) :   1.1096 B( 12-C , 22-H ) :   0.8439
B( 13-C , 23-H ) :   0.8691 B( 13-C , 24-H ) :   1.0870 B( 13-C , 25-H ) :   0.9323

Dispersion correction           -0.059748153
FINAL SINGLE POINT ENERGY      -908.782985587958

DIPOLE MOMENT
-------------

Method             : SCF
Type of density    : Electron Density
Multiplicity       :   1
Irrep              :   0
Energy             :  -908.7232374346838242 Eh
Relativity type    :
Basis              : AO
                                X                 Y                 Z
Electronic contribution:     -2.007094549      -9.866639308      -6.670451559
Nuclear contribution   :      2.115382960      11.190040170       9.218803850
                        -----------------------------------------
Total Dipole Moment    :      0.108288411       1.323400862       2.548352291
                        -----------------------------------------
Magnitude (a.u.)       :      2.873537127
Magnitude (Debye)      :      7.303950923

Rotational constants in cm-1:             0.020241             0.014259             0.012488
Rotational constants in MHz :           606.806077           427.484007           374.367603

                             ****ORCA TERMINATED NORMALLY****
TOTAL RUN TIME: 0 days 0 hours 45 minutes 11 seconds 428 msec
