                         Program Version 6.0.0  -   RELEASE  -
|  1> ! opt def2-TZVPPD wB97M-D3BJ
|  2> %pal nprocs 8 end%pal nprocs 32 end
|  3> %geom Constraints
|  4> {B 9 8 3.3 C}
|  5> {A 8 9 11 52.285714285714285 C}
|  6> end
|  7> MaxIter 300
|  8> end
|  9> *xyz 0 1
| 10> O   2.98579685529314 0.88758230159078 -0.86184571092411
| 11> O   -0.03983205397054 0.68929041702508 -2.10362336723772
| 12> O   0.93431434349854 -3.13274393337945 -0.68767288184107
| 13> O   -3.75829998830163 -0.84727300865116 -0.0472717177755
| 14> N   0.21184538946282 -1.54604804365365 0.7617588924445
| 15> N   -2.13631993928911 0.03188773433438 1.27350571071531
| 16> N   2.02598672506387 -1.14318467211666 -0.64531219127023
| 17> N   -1.91814233924584 0.03137116037665 -1.04498946748291
| 18> C   1.18097737274226 0.71693507080484 0.70173889017321
| 19> C   -0.20686880480777 1.27024627933494 0.21345042231937
| 20> C   0.41441080275909 -0.34173258966541 1.52336266615173
| 21> C   -0.82922175114212 0.58960593673968 1.44434972027296
| 22> C   1.92822011286806 1.69488653817281 1.5963734975385
| 23> C   -0.37809776891576 2.77134929626422 0.04819649358288
| 24> C   2.1403947470937 0.1972384729179 -0.35038567829864
| 25> C   -0.67361678962426 0.6214190571346 -1.0793014500539
| 26> C   1.04142578622994 -2.02697492875068 -0.21027082435993
| 27> C   -2.68467002550422 -0.30396816036989 0.07167054343891
| 28> H   0.80817443950001 -0.54572267081061 2.51895215321335
| 29> H   -0.83785272399001 1.27240685039143 2.28901317073582
| 30> H   2.31167340578204 2.52284411740894 1.00913016264629
| 31> H   1.28982602448342 2.08257620823614 2.38710022492991
| 32> H   2.77390820759972 1.19140411795486 2.06045858523949
| 33> H   -1.41857211141493 3.00964947214868 -0.16882755561625
| 34> H   -0.09065531563179 3.29799318042223 0.95389844358819
| 35> H   0.23426221611057 3.12492645074476 -0.77764887675592
| 36> H   -0.46772570547622 -2.21560145172536 1.0787081584806
| 37> H   -2.71769301149571 -0.17090724573546 2.06627440900372
| 38> H   2.60065167263658 -1.49057255715425 -1.3966820077142
| 39> H   -2.27169977231386 -0.32388339999036 -1.91951041514436
| 40> *
| 41>
| 42>                          ****END OF INPUT****
 Total Charge           Charge          ....    0
 Multiplicity           Mult            ....    1
 Number of Electrons    NEL             ....  132
Dispersion correction           -0.051536229
FINAL SINGLE POINT ENERGY      -908.628813124911
Dispersion correction             ... done (  0.0 sec)
Dispersion correction           -0.052266091
FINAL SINGLE POINT ENERGY      -908.665325331425
Dispersion correction             ... done (  0.0 sec)
Dispersion correction           -0.053060288
FINAL SINGLE POINT ENERGY      -908.691714206377
Dispersion correction             ... done (  0.0 sec)
FINAL SINGLE POINT ENERGY      -908.719530452950
FINAL SINGLE POINT ENERGY      -908.741473807798
FINAL SINGLE POINT ENERGY      -908.749214747554
FINAL SINGLE POINT ENERGY      -908.752881031666
FINAL SINGLE POINT ENERGY      -908.754403211780
FINAL SINGLE POINT ENERGY      -908.755463398221
FINAL SINGLE POINT ENERGY      -908.756079170689
FINAL SINGLE POINT ENERGY      -908.760530320140
FINAL SINGLE POINT ENERGY      -908.760616689529
FINAL SINGLE POINT ENERGY      -908.760854319589
FINAL SINGLE POINT ENERGY      -908.760937179143
FINAL SINGLE POINT ENERGY      -908.760995555787
FINAL SINGLE POINT ENERGY      -908.761015614175
FINAL SINGLE POINT ENERGY      -908.761021794354
Dispersion correction             ... done (  0.1 sec)
Dispersion correction           -0.056888297
FINAL SINGLE POINT ENERGY      -908.761027050338
Dispersion correction             ... done (  0.0 sec)
Dispersion correction           -0.056890402
FINAL SINGLE POINT ENERGY      -908.761029728984
Dispersion correction             ... done (  0.0 sec)
                    ***********************HURRAY********************

CARTESIAN COORDINATES (ANGSTROEM)
---------------------------------
  O      4.151456   -0.110280    0.863751
  O     -2.033128    1.814483   -2.177637
  O      1.287428   -2.964683   -1.126229
  O     -3.644174   -1.481119    0.433657
  N      0.395388   -1.106567   -0.149325
  N     -1.948163   -0.230573    1.274787
  N      2.636166   -1.650914    0.149586
  N     -2.584829   -0.011589   -0.945259
  C      1.854902    0.435503    1.011522
  C     -1.046057    1.599601   -0.046456
  C      0.491771   -0.244141    1.018540
  C     -0.794042    0.641121    1.101218
  C      2.083948    1.807187    1.413267
  C     -0.584490    2.982088    0.016888
  C      2.989249   -0.425392    0.691244
  C     -1.892123    1.183476   -1.146850
  C      1.405560   -1.985481   -0.429916
  C     -2.791679   -0.635713    0.279545
  H      0.492434   -0.897248    1.916222
  H     -0.697069    1.242239    2.008942
  H      3.112662    1.952946    1.730924
  H      1.905504    2.508580    0.565311
  H      1.371602    2.142683    2.173105
  H     -0.680981    3.395873    1.024196
  H      0.501496    3.070263   -0.208119
  H     -1.103264    3.600756   -0.708631
  H     -0.510751   -1.475663   -0.385622
  H     -2.078589   -0.716749    2.143805
  H      3.398500   -2.253705   -0.119062
  H     -3.236127   -0.271982   -1.668804

 Multiplicity           Mult            ....    1
 Number of Electrons    NEL             ....  132
 Basis Dimension        Dim             ....  882

ORBITAL ENERGIES
----------------

  NO   OCC          E(Eh)            E(eV)
   0   2.0000     -19.340784      -526.2895
   1   2.0000     -19.329399      -525.9797
   2   2.0000     -19.323890      -525.8298
   3   2.0000     -19.322998      -525.8055
   4   2.0000     -14.573781      -396.5727
   5   2.0000     -14.566717      -396.3805
   6   2.0000     -14.565644      -396.3513
   7   2.0000     -14.560947      -396.2235
   8   2.0000     -10.509437      -285.9763
   9   2.0000     -10.508126      -285.9406
  10   2.0000     -10.492328      -285.5108
  11   2.0000     -10.482280      -285.2373
  12   2.0000     -10.455246      -284.5017
  13   2.0000     -10.452032      -284.4142
  14   2.0000     -10.438974      -284.0589
  15   2.0000     -10.419493      -283.5288
  16   2.0000     -10.392732      -282.8006
  17   2.0000     -10.381183      -282.4864
  18   2.0000      -1.225446       -33.3461
  19   2.0000      -1.221750       -33.2455
  20   2.0000      -1.202749       -32.7285
  21   2.0000      -1.194764       -32.5112
  22   2.0000      -1.122949       -30.5570
  23   2.0000      -1.103260       -30.0212
  24   2.0000      -1.070759       -29.1368
  25   2.0000      -1.060149       -28.8481
  26   2.0000      -0.983303       -26.7570
  27   2.0000      -0.957658       -26.0592
  28   2.0000      -0.899847       -24.4861
  29   2.0000      -0.850612       -23.1463
  30   2.0000      -0.831307       -22.6210
  31   2.0000      -0.797799       -21.7092
  32   2.0000      -0.791852       -21.5474
  33   2.0000      -0.785082       -21.3632
  34   2.0000      -0.706801       -19.2330
  35   2.0000      -0.698224       -18.9996
  36   2.0000      -0.693866       -18.8811
  37   2.0000      -0.678759       -18.4700
  38   2.0000      -0.646299       -17.5867
  39   2.0000      -0.638879       -17.3848
  40   2.0000      -0.625659       -17.0250
  41   2.0000      -0.608829       -16.5671
  42   2.0000      -0.601406       -16.3651
  43   2.0000      -0.583872       -15.8880
  44   2.0000      -0.583174       -15.8690
  45   2.0000      -0.578729       -15.7480
  46   2.0000      -0.573746       -15.6124
  47   2.0000      -0.569112       -15.4863
  48   2.0000      -0.561842       -15.2885
  49   2.0000      -0.559184       -15.2162
  50   2.0000      -0.550634       -14.9835
  51   2.0000      -0.539432       -14.6787
  52   2.0000      -0.538091       -14.6422
  53   2.0000      -0.526300       -14.3213
  54   2.0000      -0.517329       -14.0772
  55   2.0000      -0.508044       -13.8246
  56   2.0000      -0.494524       -13.4567
  57   2.0000      -0.429038       -11.6747
  58   2.0000      -0.420763       -11.4496
  59   2.0000      -0.408302       -11.1105
  60   2.0000      -0.404953       -11.0193
  61   2.0000      -0.399360       -10.8671
  62   2.0000      -0.393215       -10.6999
  63   2.0000      -0.390894       -10.6368
  64   2.0000      -0.384503       -10.4628
  65   2.0000      -0.279468        -7.6047
  66   0.0000      -0.130404        -3.5485
  67   0.0000       0.006097         0.1659
  68   0.0000       0.028142         0.7658
  69   0.0000       0.030892         0.8406
  70   0.0000       0.033689         0.9167

MULLIKEN ATOMIC CHARGES
-----------------------
   0 O :   -0.631589
   1 O :   -0.660087
   2 O :   -0.631074
   3 O :   -0.648389
   4 N :   -0.194409
   5 N :   -0.242936
   6 N :   -0.026180
   7 N :    0.000645
   8 C :    0.384222
   9 C :    0.340303
  10 C :    0.413418
  11 C :    0.472937
  12 C :   -1.436378
  13 C :   -1.421971
  14 C :    0.358406
  15 C :    0.350680
  16 C :    0.302872
  17 C :    0.378052
  18 H :    0.399945
  19 H :    0.577340
  20 H :    0.324456
  21 H :    0.173718
  22 H :    0.294918
  23 H :    0.324958
  24 H :    0.183749
  25 H :    0.344087
  26 H :    0.109559
  27 H :    0.039414
  28 H :    0.074552
  29 H :    0.044780
Sum of atomic charges:   -0.0000000

LOEWDIN ATOMIC CHARGES
----------------------
   0 O :    0.095355
   1 O :    0.092160
   2 O :    0.100175
   3 O :    0.088477
   4 N :    0.285196
   5 N :    0.273988
   6 N :    0.331915
   7 N :    0.319113
   8 C :    0.029329
   9 C :   -0.004207
  10 C :   -0.115114
  11 C :   -0.106983
  12 C :    0.183428
  13 C :    0.169774
  14 C :   -0.398060
  15 C :   -0.403388
  16 C :   -0.469953
  17 C :   -0.502340
  18 H :    0.061356
  19 H :    0.042206
  20 H :    0.007530
  21 H :   -0.000948
  22 H :    0.009722
  23 H :    0.011875
  24 H :   -0.011743
  25 H :    0.004003
  26 H :   -0.043993
  27 H :   -0.027433
  28 H :   -0.010288
  29 H :   -0.011150

  Mayer bond orders larger than 0.100000
B(  0-O , 14-C ) :   1.3433 B(  1-O , 15-C ) :   1.3686 B(  2-O , 16-C ) :   1.5889
B(  3-O , 17-C ) :   1.5944 B(  4-N ,  8-C ) :   0.2700 B(  4-N ,  9-C ) :   0.1040
B(  4-N , 10-C ) :   0.1891 B(  4-N , 11-C ) :   0.1295 B(  4-N , 16-C ) :   1.1862
B(  4-N , 26-H ) :   0.9955 B(  5-N ,  9-C ) :   0.1321 B(  5-N , 10-C ) :   0.2557
B(  5-N , 11-C ) :   0.1107 B(  5-N , 17-C ) :   1.1081 B(  5-N , 27-H ) :   1.1342
B(  6-N ,  8-C ) :  -0.1214 B(  6-N , 14-C ) :   1.0326 B(  6-N , 16-C ) :   0.9146
B(  6-N , 28-H ) :   1.0726 B(  7-N , 15-C ) :   1.0512 B(  7-N , 17-C ) :   0.9927
B(  7-N , 29-H ) :   1.0867 B(  8-C ,  9-C ) :   0.5494 B(  8-C , 11-C ) :   0.1348
B(  8-C , 12-C ) :   0.4450 B(  8-C , 14-C ) :   0.7478 B(  8-C , 22-H ) :  -0.1423
B(  9-C , 10-C ) :   0.2215 B(  9-C , 13-C ) :   0.3352 B(  9-C , 15-C ) :   0.7024
B(  9-C , 19-H ) :  -0.1763 B(  9-C , 23-H ) :  -0.1179 B( 10-C , 11-C ) :   0.6564
B( 10-C , 16-C ) :  -0.1033 B( 10-C , 18-H ) :   0.7927 B( 11-C , 12-C ) :  -0.1152
B( 11-C , 13-C ) :  -0.2844 B( 11-C , 17-C ) :  -0.1792 B( 11-C , 19-H ) :   0.7357
B( 12-C , 13-C ) :   0.1289 B( 12-C , 14-C ) :  -0.2500 B( 12-C , 20-H ) :   1.0041
B( 12-C , 21-H ) :   0.9170 B( 12-C , 22-H ) :   0.9795 B( 13-C , 23-H ) :   1.0041
B( 13-C , 24-H ) :   0.9297 B( 13-C , 25-H ) :   0.9106

Dispersion correction           -0.056891661
FINAL SINGLE POINT ENERGY      -908.761030327350

DIPOLE MOMENT
-------------

Method             : SCF
Type of density    : Electron Density
Multiplicity       :   1
Irrep              :   0
Energy             :  -908.7041386662426703 Eh
Relativity type    :
Basis              : AO
                                X                 Y                 Z
Electronic contribution:     -2.077459098     -10.415727505      -4.640796671
Nuclear contribution   :      2.388201532      11.890825397       6.661442017
                        -----------------------------------------
Total Dipole Moment    :      0.310742434       1.475097892       2.020645346
                        -----------------------------------------
Magnitude (a.u.)       :      2.521008185
Magnitude (Debye)      :      6.407893562

Rotational constants in cm-1:             0.021160             0.010936             0.008888
Rotational constants in MHz :           634.349856           327.864475           266.469542

                             ****ORCA TERMINATED NORMALLY****
TOTAL RUN TIME: 0 days 5 hours 28 minutes 17 seconds 412 msec
