                         Program Version 6.0.0  -   RELEASE  -
|  1> ! EnGrad wB97M-D3BJ def2-TZVPPD
|  2> %pal nprocs 8 end%pal nprocs 16 end
|  3> %tddft
|  4>  sf true
|  5>  nroots 2 Iroot 1 end
|  6> *xyz 0 3
|  7> O   0.51016498854051 1.33413689015081 0.09041610650684
|  8> C   0.56698275218257 0.18921364929043 -0.27666143102802
|  9> C   -0.42838049594851 -0.82685591886906 0.20756781552015
| 10> H   0.08992553579456 -1.64097579750666 0.7161124527491
| 11> H   1.3509159317152 -0.15102976246905 -0.97635854169386
| 12> H   -0.95176434568457 -1.26932879591332 -0.64129413820584
| 13> H   -1.13564436659977 -0.35356026468316 0.88021773615163
| 14> *
| 15>
| 16>                          ****END OF INPUT****

CARTESIAN COORDINATES (ANGSTROEM)
---------------------------------
  O      0.510165    1.334137    0.090416
  C      0.566983    0.189214   -0.276661
  C     -0.428380   -0.826856    0.207568
  H      0.089926   -1.640976    0.716112
  H      1.350916   -0.151030   -0.976359
  H     -0.951764   -1.269329   -0.641294
  H     -1.135644   -0.353560    0.880218

 Total Charge           Charge          ....    0
 Multiplicity           Mult            ....    3
 Number of Electrons    NEL             ....   24
 Basis Dimension        Dim             ....  182

ORBITAL ENERGIES
----------------
                 SPIN UP ORBITALS
  NO   OCC          E(Eh)            E(eV)
   0   1.0000     -19.410467      -528.1857
   1   1.0000     -10.379594      -282.4431
   2   1.0000     -10.366392      -282.0839
   3   1.0000      -1.246758       -33.9260
   4   1.0000      -0.880152       -23.9502
   5   1.0000      -0.719178       -19.5698
   6   1.0000      -0.636725       -17.3262
   7   1.0000      -0.585522       -15.9329
   8   1.0000      -0.582254       -15.8439
   9   1.0000      -0.514461       -13.9992
  10   1.0000      -0.512436       -13.9441
  11   1.0000      -0.435502       -11.8506
  12   1.0000      -0.221905        -6.0383
  13   0.0000       0.041722         1.1353
  14   0.0000       0.060375         1.6429
  15   0.0000       0.078920         2.1475
  16   0.0000       0.088150         2.3987
  17   0.0000       0.108208         2.9445

                 SPIN DOWN ORBITALS
  NO   OCC          E(Eh)            E(eV)
   0   1.0000     -19.382638      -527.4284
   1   1.0000     -10.369285      -282.1626
   2   1.0000     -10.364144      -282.0227
   3   1.0000      -1.188546       -32.3420
   4   1.0000      -0.860763       -23.4226
   5   1.0000      -0.675051       -18.3691
   6   1.0000      -0.585956       -15.9447
   7   1.0000      -0.540499       -14.7077
   8   1.0000      -0.534609       -14.5474
   9   1.0000      -0.500363       -13.6156
  10   1.0000      -0.470781       -12.8106
  11   0.0000      -0.082325        -2.2402
  12   0.0000       0.041862         1.1391
  13   0.0000       0.060035         1.6336
  14   0.0000       0.078983         2.1492
  15   0.0000       0.083440         2.2705

----------------------------------------------------------------------------------------------------
          SPIN FLIP ABSORPTION SPECTRUM VIA TRANSITION ELECTRIC DIPOLE MOMENTS
----------------------------------------------------------------------------------------------------
     Transition      Energy     Energy  Wavelength fosc(D2)      D2        DX        DY        DZ
                      (eV)      (cm-1)    (nm)                 (au**2)    (au)      (au)      (au)
----------------------------------------------------------------------------------------------------
  1-3A  ->  2-3A    4.523475   36484.3   274.1   0.000037930   0.00034   0.01141  -0.00398   0.01401

Dispersion correction             ... done (  0.0 sec)

MULLIKEN ATOMIC CHARGES AND SPIN DENSITIES
------------------------------------------
   0 O :   -0.511535    0.056540
   1 C :    0.207241   -0.174320
   2 C :   -0.682653    0.048066
   3 H :    0.225112   -0.005373
   4 H :    0.295374    0.076143
   5 H :    0.225149   -0.005286
   6 H :    0.241311    0.004231
Sum of atomic charges       :   -0.0000000

LOEWDIN ATOMIC CHARGES AND SPIN DENSITIES
-----------------------------------------
   0 O :    0.035481    0.022008
   1 C :   -0.212184   -0.014701
   2 C :    0.174900   -0.001644
   3 H :   -0.010591   -0.001279
   4 H :    0.030291   -0.003802
   5 H :   -0.010667   -0.001277
   6 H :   -0.007230    0.000695

  Mayer bond orders larger than 0.100000
B(  0-O ,  1-C ) :   1.7865 B(  1-C ,  2-C ) :   0.7470 B(  1-C ,  4-H ) :   0.9308
B(  2-C ,  3-H ) :   0.9930 B(  2-C ,  5-H ) :   0.9937 B(  2-C ,  6-H ) :   0.9588

Dispersion correction           -0.005543969
FINAL SINGLE POINT ENERGY      -153.923791734289

DIPOLE MOMENT
-------------

Method             : TDA/CIS
Type of density    : Electron Density
Level              : Relaxed density
State              :   1
Multiplicity       :   3
Irrep              :   0
Energy             :     0.0000000000000000 Eh
Relativity type    :
Basis              : AO
                                X                 Y                 Z
Electronic contribution:      1.275920222       2.853917206      -0.186844249
Nuclear contribution   :     -1.383724428      -4.060121937      -0.069568898
                        -----------------------------------------
Total Dipole Moment    :     -0.107804206      -1.206204731      -0.256413147
                        -----------------------------------------
Magnitude (a.u.)       :      1.237860777
Magnitude (Debye)      :      3.146392047

Rotational constants in cm-1:             1.818187             0.350400             0.310505
Rotational constants in MHz :         54507.874565         10504.718263          9308.696021

                             ****ORCA TERMINATED NORMALLY****
TOTAL RUN TIME: 0 days 0 hours 0 minutes 16 seconds 433 msec
