                         Program Version 6.0.0  -   RELEASE  -
|  1> ! Opt wB97M-D3BJ def2-TZVPPD
|  2> %pal nprocs 8 end %pal nprocs 64 end
|  3> %geom
|  4> Constraints
|  5>     {A 2 1 0 55.45454545454545 C }
|  6> end
|  7> MaxIter 500
|  8> end
|  9> *xyz 0 1
| 10> O   -0.0007 0.8141 0.0
| 11> C   0.7509 -0.4065 0.0
| 12> C   -0.7502 -0.4076 0.0
| 13> H   1.2625 -0.6786 0.9136
| 14> H   1.2625 -0.6787 -0.9136
| 15> H   -1.2614 -0.6806 -0.9136
| 16> H   -1.2614 -0.6805 0.9136
| 17> *
| 18>
| 19>                          ****END OF INPUT****
 Total Charge           Charge          ....    0
 Multiplicity           Mult            ....    1
 Number of Electrons    NEL             ....   24
Dispersion correction           -0.005186874
FINAL SINGLE POINT ENERGY      -153.885146263133
Dispersion correction             ... done (  0.1 sec)
Dispersion correction           -0.005199106
FINAL SINGLE POINT ENERGY      -153.886946119016
Dispersion correction             ... done (  0.1 sec)
Dispersion correction           -0.005209936
FINAL SINGLE POINT ENERGY      -153.887298447428
Dispersion correction             ... done (  0.1 sec)
Dispersion correction           -0.005211693
FINAL SINGLE POINT ENERGY      -153.887346163835
Dispersion correction             ... done (  0.1 sec)
Dispersion correction           -0.005212633
FINAL SINGLE POINT ENERGY      -153.887371802820
Dispersion correction             ... done (  0.1 sec)
                    ***********************HURRAY********************

CARTESIAN COORDINATES (ANGSTROEM)
---------------------------------
  O     -0.033652    0.766965   -0.000030
  C      0.751053   -0.461240   -0.000001
  C     -0.734536   -0.410121    0.000015
  H      1.275776   -0.653963    0.924012
  H      1.275748   -0.654151   -0.923995
  H     -1.266078   -0.652920   -0.914800
  H     -1.266112   -0.652969    0.914798

 Multiplicity           Mult            ....    1
 Number of Electrons    NEL             ....   24
 Basis Dimension        Dim             ....  182

ORBITAL ENERGIES
----------------

  NO   OCC          E(Eh)            E(eV)
   0   2.0000     -19.353062      -526.6236
   1   2.0000     -10.401359      -283.0354
   2   2.0000     -10.399867      -282.9948
   3   2.0000      -1.216182       -33.0940
   4   2.0000      -0.799767       -21.7628
   5   2.0000      -0.759193       -20.6587
   6   2.0000      -0.632041       -17.1987
   7   2.0000      -0.595291       -16.1987
   8   2.0000      -0.514058       -13.9882
   9   2.0000      -0.494172       -13.4471
  10   2.0000      -0.414453       -11.2778
  11   2.0000      -0.385250       -10.4832
  12   0.0000       0.042709         1.1622
  13   0.0000       0.058728         1.5981
  14   0.0000       0.075414         2.0521
  15   0.0000       0.078120         2.1258
  16   0.0000       0.113034         3.0758

MULLIKEN ATOMIC CHARGES
-----------------------
   0 O :   -0.378365
   1 C :   -0.202678
   2 C :   -0.150443
   3 H :    0.181606
   4 H :    0.181599
   5 H :    0.184141
   6 H :    0.184141
Sum of atomic charges:   -0.0000000

LOEWDIN ATOMIC CHARGES
----------------------
   0 O :   -0.030411
   1 C :    0.056669
   2 C :   -0.060188
   3 H :    0.003970
   4 H :    0.003973
   5 H :    0.012992
   6 H :    0.012994

  Mayer bond orders larger than 0.100000
B(  0-O ,  1-C ) :   0.8481 B(  0-O ,  2-C ) :   0.8054 B(  1-C ,  2-C ) :   0.8103
B(  1-C ,  3-H ) :   1.0075 B(  1-C ,  4-H ) :   1.0075 B(  2-C ,  5-H ) :   1.0253
B(  2-C ,  6-H ) :   1.0253

Dispersion correction           -0.005212478
FINAL SINGLE POINT ENERGY      -153.887372313637

DIPOLE MOMENT
-------------

Method             : SCF
Type of density    : Electron Density
Multiplicity       :   1
Irrep              :   0
Energy             :  -153.8821598359293148 Eh
Relativity type    :
Basis              : AO
                                X                 Y                 Z
Electronic contribution:     -0.011137373       1.657412689      -0.000018226
Nuclear contribution   :      0.045052766      -2.370056481       0.000039044
                        -----------------------------------------
Total Dipole Moment    :      0.033915393      -0.712643792       0.000020818
                        -----------------------------------------
Magnitude (a.u.)       :      0.713450369
Magnitude (Debye)      :      1.813446721

Rotational constants in cm-1:             0.892888             0.719984             0.475169
Rotational constants in MHz :         26768.115890         21584.568995         14245.202252

                             ****ORCA TERMINATED NORMALLY****
TOTAL RUN TIME: 0 days 0 hours 1 minutes 19 seconds 941 msec
