                         Program Version 6.0.0  -   RELEASE  -
|  1> ! Engrad def2-TZVPPD wB97M-D3BJ
|  2> %pal nprocs 8 end%pal nprocs 32 end
|  3> %tddft Nroots 2 Iroot 2
|  4> sf true
|  5> end
|  6> *xyz 0 3
|  7> O   0.34220078 1.14977484 0.13515732
|  8> C   0.53993301 -0.19361352 -0.01505828
|  9> C   -0.73040695 -0.97561081 -0.11471483
| 10> H   1.21129358 -0.72360808 0.7268026
| 11> H   1.10944054 -0.36324327 -1.00639172
| 12> H   -1.56911262 -0.31982023 -0.40347076
| 13> H   -0.77743983 -1.99211968 0.07424226
| 14> *
| 15>
| 16>                          ****END OF INPUT****

CARTESIAN COORDINATES (ANGSTROEM)
---------------------------------
  O      0.342201    1.149775    0.135157
  C      0.539933   -0.193614   -0.015058
  C     -0.730407   -0.975611   -0.114715
  H      1.211294   -0.723608    0.726803
  H      1.109441   -0.363243   -1.006392
  H     -1.569113   -0.319820   -0.403471
  H     -0.777440   -1.992120    0.074242

 Total Charge           Charge          ....    0
 Multiplicity           Mult            ....    3
 Number of Electrons    NEL             ....   24
 Basis Dimension        Dim             ....  182

ORBITAL ENERGIES
----------------
                 SPIN UP ORBITALS
  NO   OCC          E(Eh)            E(eV)
   0   1.0000     -19.395350      -527.7743
   1   1.0000     -10.421307      -283.5782
   2   1.0000     -10.365047      -282.0473
   3   1.0000      -1.171963       -31.8907
   4   1.0000      -0.877588       -23.8804
   5   1.0000      -0.730140       -19.8681
   6   1.0000      -0.606616       -16.5069
   7   1.0000      -0.600386       -16.3373
   8   1.0000      -0.554207       -15.0807
   9   1.0000      -0.511983       -13.9318
  10   1.0000      -0.449134       -12.2215
  11   1.0000      -0.414920       -11.2905
  12   1.0000      -0.316588        -8.6148
  13   0.0000       0.040411         1.0996
  14   0.0000       0.060546         1.6475
  15   0.0000       0.078724         2.1422
  16   0.0000       0.083777         2.2797
  17   0.0000       0.108815         2.9610

                 SPIN DOWN ORBITALS
  NO   OCC          E(Eh)            E(eV)
   0   1.0000     -19.372402      -527.1499
   1   1.0000     -10.422898      -283.6215
   2   1.0000     -10.351455      -281.6774
   3   1.0000      -1.119602       -30.4659
   4   1.0000      -0.844922       -22.9915
   5   1.0000      -0.702624       -19.1194
   6   1.0000      -0.590209       -16.0604
   7   1.0000      -0.542523       -14.7628
   8   1.0000      -0.526700       -14.3322
   9   1.0000      -0.497087       -13.5264
  10   1.0000      -0.386698       -10.5226
  11   0.0000      -0.060886        -1.6568
  12   0.0000       0.004495         0.1223
  13   0.0000       0.039844         1.0842
  14   0.0000       0.060167         1.6372
  15   0.0000       0.078983         2.1492

----------------------------------------------------------------------------------------------------
          SPIN FLIP ABSORPTION SPECTRUM VIA TRANSITION ELECTRIC DIPOLE MOMENTS
----------------------------------------------------------------------------------------------------
     Transition      Energy     Energy  Wavelength fosc(D2)      D2        DX        DY        DZ
                      (eV)      (cm-1)    (nm)                 (au**2)    (au)      (au)      (au)
----------------------------------------------------------------------------------------------------
  1-3A  ->  2-3A    0.289197    2332.5  4287.2   0.000748067   0.10558   0.14997   0.27995  -0.06867

Dispersion correction             ... done (  0.1 sec)

MULLIKEN ATOMIC CHARGES AND SPIN DENSITIES
------------------------------------------
   0 O :   -0.328593    0.481027
   1 C :   -0.032236    0.014622
   2 C :   -0.357225   -0.311408
   3 H :    0.210050   -0.058779
   4 H :    0.194410   -0.009164
   5 H :    0.141168   -0.058814
   6 H :    0.172425   -0.057483
Sum of atomic charges       :    0.0000000

LOEWDIN ATOMIC CHARGES AND SPIN DENSITIES
-----------------------------------------
   0 O :    0.051786    0.448356
   1 C :   -0.296068   -0.036883
   2 C :    0.298926   -0.289335
   3 H :    0.036687   -0.032565
   4 H :    0.060767    0.000950
   5 H :   -0.044193   -0.042603
   6 H :   -0.107905   -0.047921

  Mayer bond orders larger than 0.100000
B(  0-O ,  1-C ) :   0.8654 B(  0-O ,  2-C ) :   0.1117 B(  1-C ,  2-C ) :   0.8573
B(  1-C ,  3-H ) :   0.9507 B(  1-C ,  4-H ) :   0.9405 B(  2-C ,  5-H ) :   1.0236
B(  2-C ,  6-H ) :   1.0184

Dispersion correction           -0.005552631
FINAL SINGLE POINT ENERGY      -153.745983334931

DIPOLE MOMENT
-------------

Method             : TDA/CIS
Type of density    : Electron Density
Level              : Relaxed density
State              :   2
Multiplicity       :   3
Irrep              :   0
Energy             :     0.0000000000000000 Eh
Relativity type    :
Basis              : AO
                                X                 Y                 Z
Electronic contribution:      0.451035498       2.482876488       0.403109012
Nuclear contribution   :     -0.289501252      -3.250830119      -0.568323290
                        -----------------------------------------
Total Dipole Moment    :      0.161534246      -0.767953631      -0.165214278
                        -----------------------------------------
Magnitude (a.u.)       :      0.801961252
Magnitude (Debye)      :      2.038423507

Rotational constants in cm-1:             1.432450             0.356225             0.303470
Rotational constants in MHz :         42943.761820         10679.361883          9097.812685

                             ****ORCA TERMINATED NORMALLY****
TOTAL RUN TIME: 0 days 0 hours 0 minutes 17 seconds 282 msec
