                         Program Version 6.0.0  -   RELEASE  -
|  1> ! EnGrad wB97M-D3BJ def2-TZVPPD
|  2> %pal nprocs 8 end%pal nprocs 16 end
|  3> %tddft
|  4>  sf true
|  5>  nroots 2 Iroot 1 end
|  6> *xyz 0 3
|  7> O   0.45805047985848 1.07832083449737 -0.00292595185202
|  8> C   0.60831497455908 -0.25258208359471 -0.00058590305993
|  9> C   -0.74772323088973 -0.74822989497733 0.00084435098266
| 10> H   1.15649623044657 -0.62317894955932 0.88018935448424
| 11> H   1.15611002549365 -0.62636969591474 -0.88023805485237
| 12> H   -1.3152492335023 -0.77530114057062 -0.92086909833225
| 13> H   -1.31379924596574 -0.77105906988065 0.92358530262968
| 14> *
| 15>
| 16>                          ****END OF INPUT****

CARTESIAN COORDINATES (ANGSTROEM)
---------------------------------
  O      0.458050    1.078321   -0.002926
  C      0.608315   -0.252582   -0.000586
  C     -0.747723   -0.748230    0.000844
  H      1.156496   -0.623179    0.880189
  H      1.156110   -0.626370   -0.880238
  H     -1.315249   -0.775301   -0.920869
  H     -1.313799   -0.771059    0.923585

 Total Charge           Charge          ....    0
 Multiplicity           Mult            ....    3
 Number of Electrons    NEL             ....   24
 Basis Dimension        Dim             ....  182

ORBITAL ENERGIES
----------------
                 SPIN UP ORBITALS
  NO   OCC          E(Eh)            E(eV)
   0   1.0000     -19.394376      -527.7478
   1   1.0000     -10.407336      -283.1980
   2   1.0000     -10.352954      -281.7182
   3   1.0000      -1.190865       -32.4051
   4   1.0000      -0.876247       -23.8439
   5   1.0000      -0.734832       -19.9958
   6   1.0000      -0.633640       -17.2422
   7   1.0000      -0.592288       -16.1170
   8   1.0000      -0.556418       -15.1409
   9   1.0000      -0.515880       -14.0378
  10   1.0000      -0.437704       -11.9105
  11   1.0000      -0.421633       -11.4732
  12   1.0000      -0.314502        -8.5580
  13   0.0000       0.041123         1.1190
  14   0.0000       0.063225         1.7204
  15   0.0000       0.073926         2.0116
  16   0.0000       0.087137         2.3711
  17   0.0000       0.117126         3.1872

                 SPIN DOWN ORBITALS
  NO   OCC          E(Eh)            E(eV)
   0   1.0000     -19.368825      -527.0525
   1   1.0000     -10.408665      -283.2342
   2   1.0000     -10.340095      -281.3683
   3   1.0000      -1.134988       -30.8846
   4   1.0000      -0.842634       -22.9292
   5   1.0000      -0.710825       -19.3425
   6   1.0000      -0.595189       -16.1959
   7   1.0000      -0.559600       -15.2275
   8   1.0000      -0.534469       -14.5436
   9   1.0000      -0.478189       -13.0122
  10   1.0000      -0.383544       -10.4368
  11   0.0000      -0.064585        -1.7575
  12   0.0000       0.007441         0.2025
  13   0.0000       0.040047         1.0897
  14   0.0000       0.063878         1.7382
  15   0.0000       0.073485         1.9996

----------------------------------------------------------------------------------------------------
          SPIN FLIP ABSORPTION SPECTRUM VIA TRANSITION ELECTRIC DIPOLE MOMENTS
----------------------------------------------------------------------------------------------------
     Transition      Energy     Energy  Wavelength fosc(D2)      D2        DX        DY        DZ
                      (eV)      (cm-1)    (nm)                 (au**2)    (au)      (au)      (au)
----------------------------------------------------------------------------------------------------
  1-3A  ->  2-3A    0.938932    7573.0  1320.5   0.000134477   0.00585  -0.00004  -0.00018  -0.07646

Dispersion correction             ... done (  0.0 sec)

MULLIKEN ATOMIC CHARGES AND SPIN DENSITIES
------------------------------------------
   0 O :   -0.514872   -0.421634
   1 C :   -0.114521   -0.042833
   2 C :   -0.314215    0.305315
   3 H :    0.224936    0.042220
   4 H :    0.225068    0.042130
   5 H :    0.246830    0.037378
   6 H :    0.246774    0.037425
Sum of atomic charges       :   -0.0000000

LOEWDIN ATOMIC CHARGES AND SPIN DENSITIES
-----------------------------------------
   0 O :   -0.042784   -0.427142
   1 C :   -0.389671    0.024883
   2 C :    0.393273    0.315419
   3 H :    0.027524    0.008107
   4 H :    0.027521    0.008065
   5 H :   -0.007931    0.035334
   6 H :   -0.007932    0.035334

  Mayer bond orders larger than 0.100000
B(  0-O ,  1-C ) :   0.8168 B(  0-O ,  2-C ) :   0.6711 B(  1-C ,  2-C ) :   0.7571
B(  1-C ,  3-H ) :   1.0177 B(  1-C ,  4-H ) :   1.0175 B(  2-C ,  5-H ) :   0.9431
B(  2-C ,  6-H ) :   0.9432

Dispersion correction           -0.005634007
FINAL SINGLE POINT ENERGY      -153.776972554016

DIPOLE MOMENT
-------------

Method             : TDA/CIS
Type of density    : Electron Density
Level              : Relaxed density
State              :   1
Multiplicity       :   3
Irrep              :   0
Energy             :     0.0000000000000000 Eh
Relativity type    :
Basis              : AO
                                X                 Y                 Z
Electronic contribution:      0.144700170       1.351994132      -0.003058728
Nuclear contribution   :     -0.746358716      -2.813474660       0.005967359
                        -----------------------------------------
Total Dipole Moment    :     -0.601658546      -1.461480528       0.002908631
                        -----------------------------------------
Magnitude (a.u.)       :      1.580483091
Magnitude (Debye)      :      4.017268759

Rotational constants in cm-1:             1.237969             0.411770             0.351175
Rotational constants in MHz :         37113.387511         12344.545456         10527.967896

                             ****ORCA TERMINATED NORMALLY****
TOTAL RUN TIME: 0 days 0 hours 0 minutes 16 seconds 596 msec
