                         Program Version 6.0.0  -   RELEASE  -
|  1> ! SP wB97M-D3BJ def2-TZVPPD
|  2> %pal nprocs 8 end
|  3> *xyz 0 1
|  4> C   0.0 0.0 0.0
|  5> *
|  6>
|  7>                          ****END OF INPUT****

CARTESIAN COORDINATES (ANGSTROEM)
---------------------------------
  C      0.000000    0.000000    0.000000

 Total Charge           Charge          ....    0
 Multiplicity           Mult            ....    1
 Number of Electrons    NEL             ....    6
 Basis Dimension        Dim             ....   37

ORBITAL ENERGIES
----------------

  NO   OCC          E(Eh)            E(eV)
   0   2.0000     -10.495527      -285.5978
   1   2.0000      -0.660973       -17.9860
   2   2.0000      -0.316493        -8.6122
   3   0.0000      -0.054586        -1.4854
   4   0.0000      -0.054585        -1.4853
   5   0.0000       0.057513         1.5650
   6   0.0000       0.237998         6.4762
   7   0.0000       0.237998         6.4763

MULLIKEN ATOMIC CHARGES
-----------------------
   0 C :   -0.000000
Sum of atomic charges:   -0.0000000

LOEWDIN ATOMIC CHARGES
----------------------
   0 C :   -0.000000

Dispersion correction            0.000000000
FINAL SINGLE POINT ENERGY       -37.814213126648

DIPOLE MOMENT
-------------

Method             : SCF
Type of density    : Electron Density
Multiplicity       :   1
Irrep              :   0
Energy             :   -37.8142131266481982 Eh
Relativity type    :
Basis              : AO
                                X                 Y                 Z
Electronic contribution:     -0.000000087       0.000000057       0.000000051
Nuclear contribution   :      0.000000000       0.000000000       0.000000000
                        -----------------------------------------
Total Dipole Moment    :     -0.000000087       0.000000057       0.000000051
                        -----------------------------------------
Magnitude (a.u.)       :      0.000000116
Magnitude (Debye)      :      0.000000295

Rotational constants in cm-1:             0.000000             0.000000             0.000000
Rotational constants in MHz :             0.000000             0.000000             0.000000

                             ****ORCA TERMINATED NORMALLY****
TOTAL RUN TIME: 0 days 0 hours 0 minutes 2 seconds 201 msec
