                         Program Version 6.0.0  -   RELEASE  -
|  1> ! Engrad def2-TZVPPD wB97M-D3BJ
|  2> %pal nprocs 8 end%pal nprocs 64 end
|  3> %tddft
|  4>  Iroot 1 Nroots 3
|  5> sf true
|  6> end
|  7> *xyz 0 3
|  8> O   3.20108036 0.39189787 -0.90704502
|  9> O   -0.64193018 1.53518483 -2.31271664
| 10> O   0.41244517 -3.07920949 -0.35378061
| 11> O   -3.00354552 -1.77532544 -0.4222574
| 12> N   0.33344522 -1.4439819 1.20830403
| 13> N   -2.15815521 -0.18188537 0.95951559
| 14> N   1.55017785 -1.15274083 -0.76256946
| 15> N   -1.49622525 -0.29173717 -1.25195905
| 16> C   1.74606101 0.50755938 0.95690465
| 17> C   -0.86588624 1.61383793 0.04529598
| 18> C   0.39828077 -0.04227444 1.56370619
| 19> C   -1.06726834 0.73309115 1.22795244
| 20> C   2.48577896 1.56857207 1.64963438
| 21> C   -0.69027191 3.06461767 0.19154548
| 22> C   2.24718571 -0.04251832 -0.30009308
| 23> C   -0.96989265 1.00317586 -1.26355357
| 24> C   0.72803272 -1.96933691 0.00990141
| 25> C   -2.2767523 -0.83989415 -0.23850508
| 26> H   0.48770373 0.02493906 2.65373517
| 27> H   -1.32455593 1.29858108 2.1166557
| 28> H   3.4719596 1.73850885 1.19846645
| 29> H   1.93321735 2.4949393 1.56967096
| 30> H   2.57628627 1.33707319 2.72121451
| 31> H   -1.5770727 3.49589325 0.67650475
| 32> H   0.15322981 3.27965663 0.83328889
| 33> H   -0.52762694 3.54076529 -0.7683859
| 34> H   -0.28452789 -2.05335035 1.71756063
| 35> H   -2.68302448 -0.57665667 1.72015309
| 36> H   1.89819959 -1.6151915 -1.58629613
| 37> H   -1.58292036 -0.76297324 -2.14285403
| 38> *
| 39>
| 40>                          ****END OF INPUT****

CARTESIAN COORDINATES (ANGSTROEM)
---------------------------------
  O      3.201080    0.391898   -0.907045
  O     -0.641930    1.535185   -2.312717
  O      0.412445   -3.079209   -0.353781
  O     -3.003546   -1.775325   -0.422257
  N      0.333445   -1.443982    1.208304
  N     -2.158155   -0.181885    0.959516
  N      1.550178   -1.152741   -0.762569
  N     -1.496225   -0.291737   -1.251959
  C      1.746061    0.507559    0.956905
  C     -0.865886    1.613838    0.045296
  C      0.398281   -0.042274    1.563706
  C     -1.067268    0.733091    1.227952
  C      2.485779    1.568572    1.649634
  C     -0.690272    3.064618    0.191545
  C      2.247186   -0.042518   -0.300093
  C     -0.969893    1.003176   -1.263554
  C      0.728033   -1.969337    0.009901
  C     -2.276752   -0.839894   -0.238505
  H      0.487704    0.024939    2.653735
  H     -1.324556    1.298581    2.116656
  H      3.471960    1.738509    1.198466
  H      1.933217    2.494939    1.569671
  H      2.576286    1.337073    2.721215
  H     -1.577073    3.495893    0.676505
  H      0.153230    3.279657    0.833289
  H     -0.527627    3.540765   -0.768386
  H     -0.284528   -2.053350    1.717561
  H     -2.683024   -0.576657    1.720153
  H      1.898200   -1.615191   -1.586296
  H     -1.582920   -0.762973   -2.142854

 Total Charge           Charge          ....    0
 Multiplicity           Mult            ....    3
 Number of Electrons    NEL             ....  132
 Basis Dimension        Dim             ....  882

ORBITAL ENERGIES
----------------
                 SPIN UP ORBITALS
  NO   OCC          E(Eh)            E(eV)
   0   1.0000     -19.332296      -526.0585
   1   1.0000     -19.331741      -526.0434
   2   1.0000     -19.318154      -525.6737
   3   1.0000     -19.314404      -525.5716
   4   1.0000     -14.563323      -396.2882
   5   1.0000     -14.558501      -396.1570
   6   1.0000     -14.556920      -396.1139
   7   1.0000     -14.556705      -396.1081
   8   1.0000     -10.501009      -285.7470
   9   1.0000     -10.499688      -285.7110
  10   1.0000     -10.479128      -285.1516
  11   1.0000     -10.477587      -285.1096
  12   1.0000     -10.452975      -284.4399
  13   1.0000     -10.447998      -284.3045
  14   1.0000     -10.423695      -283.6432
  15   1.0000     -10.412296      -283.3330
  16   1.0000     -10.374264      -282.2981
  17   1.0000     -10.372155      -282.2407
  18   1.0000      -1.220762       -33.2186
  19   1.0000      -1.215532       -33.0763
  20   1.0000      -1.196086       -32.5471
  21   1.0000      -1.193593       -32.4793
  22   1.0000      -1.115108       -30.3436
  23   1.0000      -1.095348       -29.8059
  24   1.0000      -1.062377       -28.9087
  25   1.0000      -1.052400       -28.6373
  26   1.0000      -0.975922       -26.5562
  27   1.0000      -0.953313       -25.9410
  28   1.0000      -0.882770       -24.0214
  29   1.0000      -0.839041       -22.8315
  30   1.0000      -0.828018       -22.5315
  31   1.0000      -0.803562       -21.8660
  32   1.0000      -0.782666       -21.2974
  33   1.0000      -0.774838       -21.0844
  34   1.0000      -0.697889       -18.9905
  35   1.0000      -0.691312       -18.8116
  36   1.0000      -0.682847       -18.5812
  37   1.0000      -0.661235       -17.9931
  38   1.0000      -0.650649       -17.7051
  39   1.0000      -0.645131       -17.5549
  40   1.0000      -0.614827       -16.7303
  41   1.0000      -0.603382       -16.4189
  42   1.0000      -0.590322       -16.0635
  43   1.0000      -0.584533       -15.9060
  44   1.0000      -0.582889       -15.8612
  45   1.0000      -0.569203       -15.4888
  46   1.0000      -0.564350       -15.3568
  47   1.0000      -0.557871       -15.1804
  48   1.0000      -0.555915       -15.1272
  49   1.0000      -0.552449       -15.0329
  50   1.0000      -0.544189       -14.8081
  51   1.0000      -0.540932       -14.7195
  52   1.0000      -0.532677       -14.4949
  53   1.0000      -0.525556       -14.3011
  54   1.0000      -0.514754       -14.0072
  55   1.0000      -0.507579       -13.8119
  56   1.0000      -0.490431       -13.3453
  57   1.0000      -0.420555       -11.4439
  58   1.0000      -0.417080       -11.3493
  59   1.0000      -0.408630       -11.1194
  60   1.0000      -0.405954       -11.0466
  61   1.0000      -0.394577       -10.7370
  62   1.0000      -0.391887       -10.6638
  63   1.0000      -0.387611       -10.5474
  64   1.0000      -0.382566       -10.4102
  65   1.0000      -0.338523        -9.2117
  66   1.0000      -0.327034        -8.8991
  67   0.0000       0.005894         0.1604
  68   0.0000       0.028499         0.7755
  69   0.0000       0.031478         0.8566
  70   0.0000       0.039578         1.0770
  71   0.0000       0.056279         1.5314

                 SPIN DOWN ORBITALS
  NO   OCC          E(Eh)            E(eV)
   0   1.0000     -19.327984      -525.9412
   1   1.0000     -19.327103      -525.9172
   2   1.0000     -19.317930      -525.6676
   3   1.0000     -19.314175      -525.5654
   4   1.0000     -14.562777      -396.2733
   5   1.0000     -14.558063      -396.1450
   6   1.0000     -14.556554      -396.1040
   7   1.0000     -14.556318      -396.0976
   8   1.0000     -10.501036      -285.7477
   9   1.0000     -10.499710      -285.7116
  10   1.0000     -10.480188      -285.1804
  11   1.0000     -10.478607      -285.1374
  12   1.0000     -10.452585      -284.4293
  13   1.0000     -10.447861      -284.3007
  14   1.0000     -10.412084      -283.3272
  15   1.0000     -10.400962      -283.0246
  16   1.0000     -10.374836      -282.3136
  17   1.0000     -10.372709      -282.2558
  18   1.0000      -1.219373       -33.1808
  19   1.0000      -1.213423       -33.0189
  20   1.0000      -1.191483       -32.4219
  21   1.0000      -1.187695       -32.3188
  22   1.0000      -1.112620       -30.2759
  23   1.0000      -1.093114       -29.7452
  24   1.0000      -1.060672       -28.8624
  25   1.0000      -1.050900       -28.5964
  26   1.0000      -0.961304       -26.1584
  27   1.0000      -0.936602       -25.4862
  28   1.0000      -0.878650       -23.9093
  29   1.0000      -0.833967       -22.6934
  30   1.0000      -0.819077       -22.2882
  31   1.0000      -0.798048       -21.7160
  32   1.0000      -0.781339       -21.2613
  33   1.0000      -0.773249       -21.0412
  34   1.0000      -0.691870       -18.8268
  35   1.0000      -0.685065       -18.6416
  36   1.0000      -0.677201       -18.4276
  37   1.0000      -0.654499       -17.8098
  38   1.0000      -0.642156       -17.4740
  39   1.0000      -0.638787       -17.3823
  40   1.0000      -0.612276       -16.6609
  41   1.0000      -0.598782       -16.2937
  42   1.0000      -0.583411       -15.8754
  43   1.0000      -0.575191       -15.6517
  44   1.0000      -0.572145       -15.5689
  45   1.0000      -0.563985       -15.3468
  46   1.0000      -0.560039       -15.2394
  47   1.0000      -0.554235       -15.0815
  48   1.0000      -0.548165       -14.9163
  49   1.0000      -0.540971       -14.7206
  50   1.0000      -0.539481       -14.6800
  51   1.0000      -0.533747       -14.5240
  52   1.0000      -0.525500       -14.2996
  53   1.0000      -0.514923       -14.0118
  54   1.0000      -0.504370       -13.7246
  55   1.0000      -0.501825       -13.6553
  56   1.0000      -0.485211       -13.2033
  57   1.0000      -0.416394       -11.3307
  58   1.0000      -0.413334       -11.2474
  59   1.0000      -0.401981       -10.9385
  60   1.0000      -0.392826       -10.6893
  61   1.0000      -0.386055       -10.5051
  62   1.0000      -0.383677       -10.4404
  63   1.0000      -0.381106       -10.3704
  64   1.0000      -0.372433       -10.1344
  65   0.0000      -0.062523        -1.7013
  66   0.0000      -0.044051        -1.1987
  67   0.0000       0.005542         0.1508
  68   0.0000       0.028378         0.7722
  69   0.0000       0.031115         0.8467

----------------------------------------------------------------------------------------------------
          SPIN FLIP ABSORPTION SPECTRUM VIA TRANSITION ELECTRIC DIPOLE MOMENTS
----------------------------------------------------------------------------------------------------
     Transition      Energy     Energy  Wavelength fosc(D2)      D2        DX        DY        DZ
                      (eV)      (cm-1)    (nm)                 (au**2)    (au)      (au)      (au)
----------------------------------------------------------------------------------------------------
  1-3A  ->  2-3A    0.056306     454.1  22019.8   0.000000350   0.00025  -0.00431   0.00454  -0.01465
  1-3A  ->  3-3A    2.242718   18088.7   552.8   0.003901228   0.07100   0.23352  -0.05909   0.11392

Dispersion correction             ... done (  0.1 sec)

MULLIKEN ATOMIC CHARGES AND SPIN DENSITIES
------------------------------------------
   0 O :   -0.666158    0.049265
   1 O :   -0.689928   -0.059827
   2 O :   -0.654422    0.000742
   3 O :   -0.631637   -0.002053
   4 N :   -0.273403    0.009971
   5 N :   -0.294963   -0.002411
   6 N :    0.085676    0.002394
   7 N :    0.055266   -0.000365
   8 C :    0.409816    0.480846
   9 C :    0.847317    0.500293
  10 C :    0.038136   -0.160548
  11 C :    0.223754   -0.333292
  12 C :   -1.161287    0.028754
  13 C :   -1.177283   -0.009062
  14 C :    0.235322   -0.171934
  15 C :   -0.195540   -0.434195
  16 C :    0.395523    0.010024
  17 C :    0.393767    0.017118
  18 H :    0.600833    0.014078
  19 H :    0.520685   -0.006940
  20 H :    0.310484    0.000780
  21 H :    0.209356    0.021680
  22 H :    0.315747    0.010472
  23 H :    0.343661    0.008020
  24 H :    0.262292    0.028508
  25 H :    0.303172   -0.009906
  26 H :    0.061870    0.000926
  27 H :    0.057350    0.000597
  28 H :    0.038922    0.002908
  29 H :    0.035672    0.003160
Sum of atomic charges       :    0.0000000

LOEWDIN ATOMIC CHARGES AND SPIN DENSITIES
-----------------------------------------
   0 O :    0.100435    0.044041
   1 O :    0.085199   -0.054774
   2 O :    0.093754    0.001213
   3 O :    0.108388   -0.001438
   4 N :    0.260743   -0.000154
   5 N :    0.271760   -0.002489
   6 N :    0.322660    0.003700
   7 N :    0.324073   -0.006255
   8 C :    0.010056    0.180116
   9 C :   -0.027189   -0.150739
  10 C :   -0.036054    0.001677
  11 C :   -0.074548   -0.007636
  12 C :    0.180974    0.027310
  13 C :    0.197127   -0.026103
  14 C :   -0.413786    0.023725
  15 C :   -0.408979   -0.032371
  16 C :   -0.497613   -0.000264
  17 C :   -0.502990   -0.000245
  18 H :    0.032944   -0.000161
  19 H :    0.042084    0.000134
  20 H :    0.011174    0.000011
  21 H :   -0.023323    0.008857
  22 H :    0.013383    0.005615
  23 H :    0.020934   -0.007811
  24 H :   -0.023054   -0.005966
  25 H :    0.003453    0.000455
  26 H :   -0.026566    0.000060
  27 H :   -0.030116   -0.000249
  28 H :   -0.011943    0.000266
  29 H :   -0.002981   -0.000527

  Mayer bond orders larger than 0.100000
B(  0-O , 14-C ) :   1.3578 B(  1-O , 15-C ) :   1.3914 B(  2-O , 16-C ) :   1.5093
B(  3-O , 17-C ) :   1.5449 B(  4-N ,  5-N ) :   0.1221 B(  4-N ,  8-C ) :   0.2482
B(  4-N , 10-C ) :   0.3332 B(  4-N , 16-C ) :   1.0413 B(  4-N , 26-H ) :   1.0972
B(  5-N ,  9-C ) :   0.3155 B(  5-N , 11-C ) :   0.1432 B(  5-N , 17-C ) :   1.1141
B(  5-N , 27-H ) :   1.0824 B(  6-N ,  8-C ) :  -0.1325 B(  6-N , 10-C ) :   0.1188
B(  6-N , 14-C ) :   1.0772 B(  6-N , 16-C ) :   0.9680 B(  6-N , 28-H ) :   1.0815
B(  7-N , 11-C ) :   0.1472 B(  7-N , 15-C ) :   0.9824 B(  7-N , 17-C ) :   0.9478
B(  7-N , 29-H ) :   1.0922 B(  8-C ,  9-C ) :   0.2148 B(  8-C , 12-C ) :   0.5926
B(  8-C , 14-C ) :   0.7749 B(  8-C , 18-H ) :  -0.1551 B(  8-C , 20-H ) :  -0.1022
B(  9-C , 11-C ) :   0.2765 B(  9-C , 13-C ) :   0.5733 B(  9-C , 15-C ) :   0.4689
B( 10-C , 11-C ) :   0.7757 B( 10-C , 18-H ) :   0.7202 B( 11-C , 17-C ) :  -0.1743
B( 11-C , 19-H ) :   0.8062 B( 12-C , 20-H ) :   0.9881 B( 12-C , 21-H ) :   0.9102
B( 12-C , 22-H ) :   0.9622 B( 13-C , 23-H ) :   0.9382 B( 13-C , 24-H ) :   0.8149
B( 13-C , 25-H ) :   1.0222

Dispersion correction           -0.058337099
FINAL SINGLE POINT ENERGY      -908.794817355195

DIPOLE MOMENT
-------------

Method             : TDA/CIS
Type of density    : Electron Density
Level              : Relaxed density
State              :   1
Multiplicity       :   3
Irrep              :   0
Energy             :     0.0000000000000000 Eh
Relativity type    :
Basis              : AO
                                X                 Y                 Z
Electronic contribution:     -2.676492753     -10.235034906      -7.271613645
Nuclear contribution   :      2.459455637      11.851516435      10.206512130
                        -----------------------------------------
Total Dipole Moment    :     -0.217037115       1.616481529       2.934898485
                        -----------------------------------------
Magnitude (a.u.)       :      3.357640058
Magnitude (Debye)      :      8.534442785

Rotational constants in cm-1:             0.018897             0.015261             0.012229
Rotational constants in MHz :           566.526329           457.504740           366.630729

                             ****ORCA TERMINATED NORMALLY****
TOTAL RUN TIME: 0 days 0 hours 5 minutes 15 seconds 164 msec
