                         Program Version 6.0.0  -   RELEASE  -
|  1> ! Engrad wB97M-D3BJ def2-TZVPPD
|  2> %pal nprocs 8 end%pal nprocs 16 end
|  3> %tddft nroots 2 Iroot 1
|  4>  sf true
|  5> end
|  6> *xyz 0 3
|  7> O   0.4245284242798 0.94673580986669 -0.00029254645963
|  8> C   0.7399872357711 -0.36048110388939 -2.537216567e-05
|  9> C   -0.66509647252215 -0.55730393650672 9.972245361e-05
| 10> H   1.27034736298204 -0.71315991285032 0.89121114063487
| 11> H   1.27008558569345 -0.71360030890393 -0.89124942200675
| 12> H   -1.21345302327991 -0.55748936407386 -0.92761140346853
| 13> H   -1.21335548969932 -0.55718284783422 0.9278678810121
| 14> *
| 15>
| 16>                          ****END OF INPUT****

CARTESIAN COORDINATES (ANGSTROEM)
---------------------------------
  O      0.424528    0.946736   -0.000293
  C      0.739987   -0.360481   -0.000025
  C     -0.665096   -0.557304    0.000100
  H      1.270347   -0.713160    0.891211
  H      1.270086   -0.713600   -0.891249
  H     -1.213453   -0.557489   -0.927611
  H     -1.213355   -0.557183    0.927868

 Total Charge           Charge          ....    0
 Multiplicity           Mult            ....    3
 Number of Electrons    NEL             ....   24
 Basis Dimension        Dim             ....  182

ORBITAL ENERGIES
----------------
                 SPIN UP ORBITALS
  NO   OCC          E(Eh)            E(eV)
   0   1.0000     -19.416449      -528.3484
   1   1.0000     -10.407804      -283.2107
   2   1.0000     -10.335386      -281.2401
   3   1.0000      -1.225744       -33.3542
   4   1.0000      -0.863242       -23.4900
   5   1.0000      -0.744444       -20.2574
   6   1.0000      -0.650659       -17.7053
   7   1.0000      -0.614180       -16.7127
   8   1.0000      -0.549903       -14.9636
   9   1.0000      -0.502918       -13.6851
  10   1.0000      -0.459767       -12.5109
  11   1.0000      -0.445143       -12.1130
  12   1.0000      -0.250040        -6.8039
  13   0.0000       0.040511         1.1023
  14   0.0000       0.063695         1.7332
  15   0.0000       0.072412         1.9704
  16   0.0000       0.085623         2.3299
  17   0.0000       0.115757         3.1499

                 SPIN DOWN ORBITALS
  NO   OCC          E(Eh)            E(eV)
   0   1.0000     -19.386744      -527.5401
   1   1.0000     -10.408871      -283.2398
   2   1.0000     -10.322985      -280.9027
   3   1.0000      -1.163409       -31.6580
   4   1.0000      -0.828784       -22.5524
   5   1.0000      -0.723903       -19.6984
   6   1.0000      -0.605576       -16.4786
   7   1.0000      -0.577368       -15.7110
   8   1.0000      -0.524114       -14.2619
   9   1.0000      -0.471764       -12.8374
  10   1.0000      -0.395875       -10.7723
  11   0.0000      -0.080769        -2.1978
  12   0.0000       0.038158         1.0383
  13   0.0000       0.042607         1.1594
  14   0.0000       0.063567         1.7297
  15   0.0000       0.070497         1.9183

----------------------------------------------------------------------------------------------------
          SPIN FLIP ABSORPTION SPECTRUM VIA TRANSITION ELECTRIC DIPOLE MOMENTS
----------------------------------------------------------------------------------------------------
     Transition      Energy     Energy  Wavelength fosc(D2)      D2        DX        DY        DZ
                      (eV)      (cm-1)    (nm)                 (au**2)    (au)      (au)      (au)
----------------------------------------------------------------------------------------------------
  1-3A  ->  2-3A    4.490567   36218.9   276.1   0.215634622   1.96001  -0.91749  -1.05746   0.00016

Dispersion correction             ... done (  0.0 sec)

MULLIKEN ATOMIC CHARGES AND SPIN DENSITIES
------------------------------------------
   0 O :   -0.490831   -0.055278
   1 C :   -0.144416   -0.064869
   2 C :   -0.320252    0.020562
   3 H :    0.229554    0.032245
   4 H :    0.229530    0.032256
   5 H :    0.248213    0.017540
   6 H :    0.248203    0.017544
Sum of atomic charges       :    0.0000000

LOEWDIN ATOMIC CHARGES AND SPIN DENSITIES
-----------------------------------------
   0 O :   -0.058262   -0.086712
   1 C :   -0.314041   -0.006271
   2 C :    0.313550    0.072164
   3 H :    0.029970    0.005545
   4 H :    0.029968    0.005550
   5 H :   -0.000592    0.004863
   6 H :   -0.000594    0.004861

  Mayer bond orders larger than 0.100000
B(  0-O ,  1-C ) :   0.7325 B(  0-O ,  2-C ) :   0.9128 B(  1-C ,  2-C ) :   0.7909
B(  1-C ,  3-H ) :   1.0304 B(  1-C ,  4-H ) :   1.0304 B(  2-C ,  5-H ) :   0.9354
B(  2-C ,  6-H ) :   0.9354

Dispersion correction           -0.005509573
FINAL SINGLE POINT ENERGY      -153.822331219078

DIPOLE MOMENT
-------------

Method             : TDA/CIS
Type of density    : Electron Density
Level              : Relaxed density
State              :   1
Multiplicity       :   3
Irrep              :   0
Energy             :     0.0000000000000000 Eh
Relativity type    :
Basis              : AO
                                X                 Y                 Z
Electronic contribution:      0.080825576       1.250307319      -0.000211263
Nuclear contribution   :     -0.554712033      -2.503856768       0.000505478
                        -----------------------------------------
Total Dipole Moment    :     -0.473886457      -1.253549449       0.000294216
                        -----------------------------------------
Magnitude (a.u.)       :      1.340132338
Magnitude (Debye)      :      3.406345696

Rotational constants in cm-1:             1.005164             0.548371             0.412779
Rotational constants in MHz :         30134.065811         16439.759710         12374.801867

                             ****ORCA TERMINATED NORMALLY****
TOTAL RUN TIME: 0 days 0 hours 0 minutes 16 seconds 60 msec
