                         Program Version 6.0.0  -   RELEASE  -
|  1> ! Opt wB97M-D3BJ def2-TZVPPD
|  2> %pal nprocs 8 end %pal nprocs 64 end
|  3> %geom
|  4> Constraints
|  5>     {A 2 1 0 117.96610169491525 C }
|  6> end
|  7> MaxIter 200
|  8> end
|  9> *xyz 0 1
| 10> O   1.42218518130752 0.8600477193366741 0.0
| 11> C   0.7509 -0.4065 0.0
| 12> C   -0.7502 -0.4076 0.0
| 13> H   1.2625 -0.6786 0.9136
| 14> H   1.2625 -0.6787 -0.9136
| 15> H   -1.2614 -0.6806 -0.9136
| 16> H   -1.2614 -0.6805 0.9136
| 17> *
| 18>
| 19>                          ****END OF INPUT****
 Total Charge           Charge          ....    0
 Multiplicity           Mult            ....    1
 Number of Electrons    NEL             ....   24
Dispersion correction           -0.005402512
FINAL SINGLE POINT ENERGY      -153.699513666192
Dispersion correction             ... done (  0.1 sec)
Dispersion correction           -0.005453084
FINAL SINGLE POINT ENERGY      -153.721014737453
Dispersion correction             ... done (  0.1 sec)
Dispersion correction           -0.005516058
FINAL SINGLE POINT ENERGY      -153.734648943873
Dispersion correction             ... done (  0.1 sec)
FINAL SINGLE POINT ENERGY      -153.747256317237
FINAL SINGLE POINT ENERGY      -153.760215614515
FINAL SINGLE POINT ENERGY      -153.778052617267
FINAL SINGLE POINT ENERGY      -153.801064427060
FINAL SINGLE POINT ENERGY      -153.841057190690
FINAL SINGLE POINT ENERGY      -153.853663358205
FINAL SINGLE POINT ENERGY      -153.875715343886
FINAL SINGLE POINT ENERGY      -153.929716737015
FINAL SINGLE POINT ENERGY      -153.929729965906
FINAL SINGLE POINT ENERGY      -153.929758153916
FINAL SINGLE POINT ENERGY      -153.929805732879
FINAL SINGLE POINT ENERGY      -153.929862833603
FINAL SINGLE POINT ENERGY      -153.929907506595
FINAL SINGLE POINT ENERGY      -153.929920730868
Dispersion correction             ... done (  0.1 sec)
Dispersion correction           -0.005550058
FINAL SINGLE POINT ENERGY      -153.929922522023
Dispersion correction             ... done (  0.1 sec)
Dispersion correction           -0.005550011
FINAL SINGLE POINT ENERGY      -153.929923224628
Dispersion correction             ... done (  0.1 sec)
                    ***********************HURRAY********************

CARTESIAN COORDINATES (ANGSTROEM)
---------------------------------
  O      1.123934    1.130644    0.097193
  C      0.902550    0.016420   -0.305550
  C     -0.316799   -0.694886    0.219074
  H     -0.031081   -1.627254    0.709050
  H      1.557077   -0.488147   -1.035362
  H     -0.981761   -0.965237   -0.602919
  H     -0.828834   -0.043992    0.918515

 Multiplicity           Mult            ....    1
 Number of Electrons    NEL             ....   24
 Basis Dimension        Dim             ....  182

ORBITAL ENERGIES
----------------

  NO   OCC          E(Eh)            E(eV)
   0   2.0000     -19.337584      -526.2024
   1   2.0000     -10.443114      -284.1716
   2   2.0000     -10.353494      -281.7329
   3   2.0000      -1.186890       -32.2969
   4   2.0000      -0.876568       -23.8526
   5   2.0000      -0.706831       -19.2338
   6   2.0000      -0.598742       -16.2926
   7   2.0000      -0.557397       -15.1676
   8   2.0000      -0.548909       -14.9366
   9   2.0000      -0.507395       -13.8069
  10   2.0000      -0.473095       -12.8736
  11   2.0000      -0.368008       -10.0140
  12   0.0000       0.038773         1.0551
  13   0.0000       0.052185         1.4200
  14   0.0000       0.059041         1.6066
  15   0.0000       0.084331         2.2948
  16   0.0000       0.086862         2.3636

MULLIKEN ATOMIC CHARGES
-----------------------
   0 O :   -0.473815
   1 C :    0.241068
   2 C :   -0.692913
   3 H :    0.220700
   4 H :    0.244138
   5 H :    0.220561
   6 H :    0.240261
Sum of atomic charges:    0.0000000

LOEWDIN ATOMIC CHARGES
----------------------
   0 O :    0.057937
   1 C :   -0.208806
   2 C :    0.165481
   3 H :   -0.013617
   4 H :    0.023316
   5 H :   -0.013674
   6 H :   -0.010637

  Mayer bond orders larger than 0.100000
B(  0-O ,  1-C ) :   1.7713 B(  1-C ,  2-C ) :   0.7730 B(  1-C ,  4-H ) :   0.9818
B(  2-C ,  3-H ) :   0.9938 B(  2-C ,  5-H ) :   0.9941 B(  2-C ,  6-H ) :   0.9586

Dispersion correction           -0.005549807
FINAL SINGLE POINT ENERGY      -153.929923316490

DIPOLE MOMENT
-------------

Method             : SCF
Type of density    : Electron Density
Multiplicity       :   1
Irrep              :   0
Energy             :  -153.9243735099199739 Eh
Relativity type    :
Basis              : AO
                                X                 Y                 Z
Electronic contribution:      2.018432081       2.488626212      -0.205501831
Nuclear contribution   :     -2.365372042      -3.495469547      -0.051850846
                        -----------------------------------------
Total Dipole Moment    :     -0.346939962      -1.006843336      -0.257352677
                        -----------------------------------------
Magnitude (a.u.)       :      1.095596294
Magnitude (Debye)      :      2.784784469

Rotational constants in cm-1:             1.743997             0.358598             0.314578
Rotational constants in MHz :         52283.721732         10750.486530          9430.800155

                             ****ORCA TERMINATED NORMALLY****
TOTAL RUN TIME: 0 days 0 hours 7 minutes 38 seconds 365 msec
