                         Program Version 6.0.0  -   RELEASE  -
|  1> ! Engrad def2-TZVPPD wB97M-D3BJ
|  2> %pal nprocs 8 end%pal nprocs 64 end
|  3> %tddft
|  4>  Iroot 2 Nroots 3
|  5> sf true
|  6> end
|  7> *xyz 0 3
|  8> O   3.06040967 -0.44916151 -1.7226025
|  9> O   -1.62298734 1.0743908 -2.19474943
| 10> O   -0.73708436 -2.82527114 -0.83475081
| 11> O   -3.39080399 -0.01907075 1.82833548
| 12> N   0.0393516 -1.4003817 0.76151652
| 13> N   -1.2411495 0.90609814 1.87188421
| 14> N   1.11666129 -1.45224031 -1.30931349
| 15> N   -2.3240068 0.2455965 -0.13860241
| 16> C   2.12418469 -0.23667111 0.46095013
| 17> C   -0.24251469 1.46746193 -0.24171621
| 18> C   0.85196733 -0.26405423 1.25499368
| 19> C   0.00450826 1.08259416 1.18882294
| 20> C   3.32210951 0.41677003 1.06560307
| 21> C   0.76043676 2.23708484 -1.03664849
| 22> C   2.18573787 -0.6802722 -0.90735629
| 23> C   -1.39311051 0.88778905 -0.9684106
| 24> C   0.02310059 -1.95598653 -0.50314974
| 25> C   -2.37962381 0.41384785 1.25293103
| 26> H   1.09929642 -0.42713948 2.3254839
| 27> H   0.6038461 1.84645978 1.69038058
| 28> H   4.18296189 -0.23370079 0.84782274
| 29> H   3.58130047 1.41153641 0.6644118
| 30> H   3.17451099 0.55682593 2.10583498
| 31> H   0.40578344 2.78658537 -1.8991845
| 32> H   1.05221459 3.05594219 -0.38976865
| 33> H   1.63080737 1.63341349 -1.26163188
| 34> H   -0.70144338 -1.72700317 1.34605034
| 35> H   -1.22130142 0.64406965 2.85159104
| 36> H   1.1370433 -1.85025668 -2.26702019
| 37> H   -3.07043568 -0.28008018 -0.49330819
| 38> *
| 39>
| 40>                          ****END OF INPUT****

CARTESIAN COORDINATES (ANGSTROEM)
---------------------------------
  O      3.060410   -0.449162   -1.722603
  O     -1.622987    1.074391   -2.194749
  O     -0.737084   -2.825271   -0.834751
  O     -3.390804   -0.019071    1.828335
  N      0.039352   -1.400382    0.761517
  N     -1.241149    0.906098    1.871884
  N      1.116661   -1.452240   -1.309313
  N     -2.324007    0.245596   -0.138602
  C      2.124185   -0.236671    0.460950
  C     -0.242515    1.467462   -0.241716
  C      0.851967   -0.264054    1.254994
  C      0.004508    1.082594    1.188823
  C      3.322110    0.416770    1.065603
  C      0.760437    2.237085   -1.036648
  C      2.185738   -0.680272   -0.907356
  C     -1.393111    0.887789   -0.968411
  C      0.023101   -1.955987   -0.503150
  C     -2.379624    0.413848    1.252931
  H      1.099296   -0.427139    2.325484
  H      0.603846    1.846460    1.690381
  H      4.182962   -0.233701    0.847823
  H      3.581300    1.411536    0.664412
  H      3.174511    0.556826    2.105835
  H      0.405783    2.786585   -1.899185
  H      1.052215    3.055942   -0.389769
  H      1.630807    1.633413   -1.261632
  H     -0.701443   -1.727003    1.346050
  H     -1.221301    0.644070    2.851591
  H      1.137043   -1.850257   -2.267020
  H     -3.070436   -0.280080   -0.493308

 Total Charge           Charge          ....    0
 Multiplicity           Mult            ....    3
 Number of Electrons    NEL             ....  132
 Basis Dimension        Dim             ....  882

ORBITAL ENERGIES
----------------
                 SPIN UP ORBITALS
  NO   OCC          E(Eh)            E(eV)
   0   1.0000     -19.334785      -526.1262
   1   1.0000     -19.334725      -526.1246
   2   1.0000     -19.331429      -526.0349
   3   1.0000     -19.326066      -525.8890
   4   1.0000     -14.574692      -396.5975
   5   1.0000     -14.563720      -396.2990
   6   1.0000     -14.561651      -396.2427
   7   1.0000     -14.560486      -396.2110
   8   1.0000     -10.516410      -286.1661
   9   1.0000     -10.514245      -286.1072
  10   1.0000     -10.487238      -285.3722
  11   1.0000     -10.483935      -285.2824
  12   1.0000     -10.458057      -284.5782
  13   1.0000     -10.453783      -284.4619
  14   1.0000     -10.425551      -283.6937
  15   1.0000     -10.425456      -283.6911
  16   1.0000     -10.380499      -282.4677
  17   1.0000     -10.367585      -282.1163
  18   1.0000      -1.221119       -33.2283
  19   1.0000      -1.209307       -32.9069
  20   1.0000      -1.202330       -32.7171
  21   1.0000      -1.173020       -31.9195
  22   1.0000      -1.121249       -30.5107
  23   1.0000      -1.095768       -29.8174
  24   1.0000      -1.063342       -28.9350
  25   1.0000      -1.049354       -28.5544
  26   1.0000      -0.985747       -26.8235
  27   1.0000      -0.956807       -26.0360
  28   1.0000      -0.892058       -24.2741
  29   1.0000      -0.846542       -23.0356
  30   1.0000      -0.828961       -22.5572
  31   1.0000      -0.807411       -21.9708
  32   1.0000      -0.781923       -21.2772
  33   1.0000      -0.779460       -21.2102
  34   1.0000      -0.698580       -19.0093
  35   1.0000      -0.696999       -18.9663
  36   1.0000      -0.688466       -18.7341
  37   1.0000      -0.679669       -18.4947
  38   1.0000      -0.659871       -17.9560
  39   1.0000      -0.642542       -17.4845
  40   1.0000      -0.623143       -16.9566
  41   1.0000      -0.601690       -16.3728
  42   1.0000      -0.599117       -16.3028
  43   1.0000      -0.588944       -16.0260
  44   1.0000      -0.575645       -15.6641
  45   1.0000      -0.571687       -15.5564
  46   1.0000      -0.565623       -15.3914
  47   1.0000      -0.564569       -15.3627
  48   1.0000      -0.559624       -15.2281
  49   1.0000      -0.554791       -15.0966
  50   1.0000      -0.550394       -14.9770
  51   1.0000      -0.534904       -14.5555
  52   1.0000      -0.529711       -14.4142
  53   1.0000      -0.526197       -14.3186
  54   1.0000      -0.513642       -13.9769
  55   1.0000      -0.509992       -13.8776
  56   1.0000      -0.491147       -13.3648
  57   1.0000      -0.428016       -11.6469
  58   1.0000      -0.418437       -11.3863
  59   1.0000      -0.416798       -11.3417
  60   1.0000      -0.408508       -11.1161
  61   1.0000      -0.398530       -10.8445
  62   1.0000      -0.394798       -10.7430
  63   1.0000      -0.391625       -10.6567
  64   1.0000      -0.385498       -10.4899
  65   1.0000      -0.353635        -9.6229
  66   1.0000      -0.330666        -8.9979
  67   0.0000       0.004661         0.1268
  68   0.0000       0.027714         0.7541
  69   0.0000       0.032528         0.8851
  70   0.0000       0.036172         0.9843
  71   0.0000       0.053065         1.4440

                 SPIN DOWN ORBITALS
  NO   OCC          E(Eh)            E(eV)
   0   1.0000     -19.331280      -526.0309
   1   1.0000     -19.331122      -526.0266
   2   1.0000     -19.330071      -525.9980
   3   1.0000     -19.325924      -525.8851
   4   1.0000     -14.574333      -396.5878
   5   1.0000     -14.562817      -396.2744
   6   1.0000     -14.561071      -396.2269
   7   1.0000     -14.560366      -396.2077
   8   1.0000     -10.516465      -286.1675
   9   1.0000     -10.514294      -286.1085
  10   1.0000     -10.488463      -285.4056
  11   1.0000     -10.484829      -285.3067
  12   1.0000     -10.457691      -284.5682
  13   1.0000     -10.453385      -284.4511
  14   1.0000     -10.414042      -283.3805
  15   1.0000     -10.414033      -283.3803
  16   1.0000     -10.381085      -282.4837
  17   1.0000     -10.368033      -282.1285
  18   1.0000      -1.219686       -33.1893
  19   1.0000      -1.208208       -32.8770
  20   1.0000      -1.198063       -32.6010
  21   1.0000      -1.166879       -31.7524
  22   1.0000      -1.118671       -30.4406
  23   1.0000      -1.093536       -29.7566
  24   1.0000      -1.061054       -28.8727
  25   1.0000      -1.047467       -28.5030
  26   1.0000      -0.972562       -26.4648
  27   1.0000      -0.939694       -25.5704
  28   1.0000      -0.886336       -24.1184
  29   1.0000      -0.841288       -22.8926
  30   1.0000      -0.820395       -22.3241
  31   1.0000      -0.802115       -21.8267
  32   1.0000      -0.780533       -21.2394
  33   1.0000      -0.777726       -21.1630
  34   1.0000      -0.694602       -18.9011
  35   1.0000      -0.689531       -18.7631
  36   1.0000      -0.682937       -18.5837
  37   1.0000      -0.673279       -18.3209
  38   1.0000      -0.647203       -17.6113
  39   1.0000      -0.636878       -17.3303
  40   1.0000      -0.620239       -16.8776
  41   1.0000      -0.597093       -16.2477
  42   1.0000      -0.591294       -16.0899
  43   1.0000      -0.582244       -15.8437
  44   1.0000      -0.569972       -15.5097
  45   1.0000      -0.565900       -15.3989
  46   1.0000      -0.561361       -15.2754
  47   1.0000      -0.555833       -15.1250
  48   1.0000      -0.555083       -15.1046
  49   1.0000      -0.549080       -14.9412
  50   1.0000      -0.539929       -14.6922
  51   1.0000      -0.529939       -14.4204
  52   1.0000      -0.520211       -14.1557
  53   1.0000      -0.517838       -14.0911
  54   1.0000      -0.506955       -13.7950
  55   1.0000      -0.497855       -13.5473
  56   1.0000      -0.487294       -13.2600
  57   1.0000      -0.424947       -11.5634
  58   1.0000      -0.414985       -11.2923
  59   1.0000      -0.411158       -11.1882
  60   1.0000      -0.394634       -10.7386
  61   1.0000      -0.392065       -10.6686
  62   1.0000      -0.387556       -10.5459
  63   1.0000      -0.384310       -10.4576
  64   1.0000      -0.373853       -10.1731
  65   0.0000      -0.069021        -1.8782
  66   0.0000      -0.055109        -1.4996
  67   0.0000       0.004328         0.1178
  68   0.0000       0.027388         0.7453
  69   0.0000       0.032247         0.8775

----------------------------------------------------------------------------------------------------
          SPIN FLIP ABSORPTION SPECTRUM VIA TRANSITION ELECTRIC DIPOLE MOMENTS
----------------------------------------------------------------------------------------------------
     Transition      Energy     Energy  Wavelength fosc(D2)      D2        DX        DY        DZ
                      (eV)      (cm-1)    (nm)                 (au**2)    (au)      (au)      (au)
----------------------------------------------------------------------------------------------------
  1-3A  ->  2-3A    0.058710     473.5  21118.2   0.000015803   0.01099  -0.09658   0.04064   0.00290
  1-3A  ->  3-3A    2.031329   16383.8   610.4   0.000485900   0.00976   0.00458   0.02338  -0.09590

Dispersion correction             ... done (  0.1 sec)

MULLIKEN ATOMIC CHARGES AND SPIN DENSITIES
------------------------------------------
   0 O :   -0.688725    0.020331
   1 O :   -0.686315   -0.021796
   2 O :   -0.629725    0.000599
   3 O :   -0.660661    0.000009
   4 N :   -0.209389   -0.005595
   5 N :   -0.297953   -0.009488
   6 N :    0.014437   -0.004666
   7 N :    0.126296   -0.006026
   8 C :    0.400099    0.327572
   9 C :    0.470949    0.270231
  10 C :    0.246025   -0.114670
  11 C :    0.549049   -0.162367
  12 C :   -1.485882   -0.011171
  13 C :   -1.233337   -0.027363
  14 C :    0.293630   -0.131973
  15 C :    0.043615   -0.188962
  16 C :    0.427600    0.011220
  17 C :    0.433433    0.010097
  18 H :    0.515800    0.002900
  19 H :    0.387968    0.003854
  20 H :    0.385648    0.007927
  21 H :    0.252448    0.011998
  22 H :    0.374894    0.001908
  23 H :    0.299817   -0.001720
  24 H :    0.323728    0.002997
  25 H :    0.170547    0.010018
  26 H :   -0.002759   -0.000661
  27 H :    0.119025    0.001665
  28 H :    0.071856    0.000198
  29 H :   -0.012118    0.002934
Sum of atomic charges       :    0.0000000

LOEWDIN ATOMIC CHARGES AND SPIN DENSITIES
-----------------------------------------
   0 O :    0.087195    0.016663
   1 O :    0.050303   -0.020541
   2 O :    0.105583    0.000366
   3 O :    0.055327   -0.000133
   4 N :    0.277498    0.000198
   5 N :    0.266240   -0.000578
   6 N :    0.318542   -0.001076
   7 N :    0.329754   -0.005264
   8 C :   -0.031073    0.077205
   9 C :    0.012695   -0.056341
  10 C :   -0.082469    0.001168
  11 C :   -0.119675   -0.004859
  12 C :    0.196601    0.010831
  13 C :    0.214178   -0.010151
  14 C :   -0.466351    0.007505
  15 C :   -0.351616   -0.014751
  16 C :   -0.452572   -0.000180
  17 C :   -0.432145   -0.000315
  18 H :    0.063635   -0.000437
  19 H :    0.056605   -0.000734
  20 H :    0.020333    0.002554
  21 H :    0.021413    0.003933
  22 H :   -0.030291   -0.000028
  23 H :    0.007053   -0.000523
  24 H :   -0.003861   -0.001148
  25 H :   -0.018558   -0.002900
  26 H :   -0.046424    0.000067
  27 H :   -0.021078    0.000018
  28 H :    0.017215   -0.000074
  29 H :   -0.044056   -0.000474

  Mayer bond orders larger than 0.100000
B(  0-O ,  8-C ) :  -0.1343 B(  0-O , 14-C ) :   1.4341 B(  1-O , 15-C ) :   1.3692
B(  2-O , 16-C ) :   1.5423 B(  3-O , 17-C ) :   1.5865 B(  4-N ,  8-C ) :   0.1619
B(  4-N , 10-C ) :   0.5118 B(  4-N , 16-C ) :   0.9443 B(  4-N , 26-H ) :   1.1486
B(  5-N ,  9-C ) :   0.2320 B(  5-N , 10-C ) :   0.1047 B(  5-N , 11-C ) :   0.1172
B(  5-N , 17-C ) :   1.1122 B(  5-N , 27-H ) :   1.0130 B(  6-N ,  8-C ) :  -0.1249
B(  6-N , 10-C ) :   0.1356 B(  6-N , 14-C ) :   1.0712 B(  6-N , 16-C ) :   0.9784
B(  6-N , 28-H ) :   1.0767 B(  7-N , 10-C ) :  -0.1001 B(  7-N , 11-C ) :   0.1529
B(  7-N , 15-C ) :   1.0433 B(  7-N , 17-C ) :   0.9654 B(  7-N , 29-H ) :   1.1300
B(  8-C ,  9-C ) :   0.1171 B(  8-C , 10-C ) :   0.4191 B(  8-C , 11-C ) :   0.2153
B(  8-C , 12-C ) :   0.4372 B(  8-C , 14-C ) :   0.6687 B(  8-C , 18-H ) :  -0.1781
B(  8-C , 22-H ) :  -0.1131 B(  9-C , 10-C ) :   0.1608 B(  9-C , 11-C ) :   0.1969
B(  9-C , 13-C ) :   0.5407 B(  9-C , 15-C ) :   0.6984 B(  9-C , 19-H ) :  -0.1527
B(  9-C , 24-H ) :  -0.1094 B( 10-C , 11-C ) :   0.6714 B( 10-C , 14-C ) :  -0.1351
B( 10-C , 18-H ) :   0.8166 B( 11-C , 13-C ) :  -0.1652 B( 11-C , 15-C ) :  -0.1083
B( 11-C , 17-C ) :  -0.2216 B( 11-C , 19-H ) :   0.9938 B( 12-C , 20-H ) :   0.8529
B( 12-C , 21-H ) :   0.9518 B( 12-C , 22-H ) :   0.9756 B( 13-C , 23-H ) :   1.0369
B( 13-C , 24-H ) :   1.0261 B( 13-C , 25-H ) :   0.8564

Dispersion correction           -0.059595662
FINAL SINGLE POINT ENERGY      -908.783742476505

DIPOLE MOMENT
-------------

Method             : TDA/CIS
Type of density    : Electron Density
Level              : Relaxed density
State              :   2
Multiplicity       :   3
Irrep              :   0
Energy             :     0.0000000000000000 Eh
Relativity type    :
Basis              : AO
                                X                 Y                 Z
Electronic contribution:     -9.348631050      -6.386445627      -3.176006010
Nuclear contribution   :     11.162955305       7.428113883       5.403297505
                        -----------------------------------------
Total Dipole Moment    :      1.814324256       1.041668256       2.227291495
                        -----------------------------------------
Magnitude (a.u.)       :      3.055760571
Magnitude (Debye)      :      7.767126107

Rotational constants in cm-1:             0.021556             0.012746             0.012219
Rotational constants in MHz :           646.225273           382.124023           366.302682

                             ****ORCA TERMINATED NORMALLY****
TOTAL RUN TIME: 0 days 0 hours 9 minutes 56 seconds 506 msec
