                         Program Version 6.0.0  -   RELEASE  -
|  1> ! Engrad def2-TZVPPD wB97M-D3BJ
|  2> %pal nprocs 8 end%pal nprocs 64 end
|  3> %tddft
|  4>  Iroot 1 Nroots 3
|  5> sf true
|  6> end
|  7> *xyz 0 3
|  8> O   3.32031134 1.03733375 -0.10631733
|  9> O   -1.06043914 0.75709031 -2.58615969
| 10> O   0.66682387 -2.60604299 -1.33012198
| 11> O   -3.32406107 -1.66181712 0.51962989
| 12> N   0.29829639 -1.47543634 0.65636511
| 13> N   -2.15102264 0.20247269 1.10797961
| 14> N   1.96034067 -0.71833658 -0.79014703
| 15> N   -2.00350163 -0.6006767 -1.01550027
| 16> C   1.59012986 0.49020317 1.31140271
| 17> C   -0.62870626 1.31513002 -0.35538321
| 18> C   0.2603682 -0.24712024 1.44467169
| 19> C   -0.83419526 0.76137365 1.04087958
| 20> C   2.03740101 1.48398568 2.32090821
| 21> C   0.25622201 2.41833038 -0.6686844
| 22> C   2.36378726 0.27283986 0.08381754
| 23> C   -1.2722884 0.52542003 -1.36595649
| 24> C   0.98191758 -1.72529396 -0.54469821
| 25> C   -2.57946739 -0.79323325 0.24968275
| 26> H   0.08245071 -0.39354243 2.55958602
| 27> H   -0.68851564 1.61742485 1.78191051
| 28> H   1.21907198 2.03955613 2.75998359
| 29> H   2.70427991 0.99852287 3.11149271
| 30> H   2.67180969 2.16418574 1.77658561
| 31> H   -0.17726652 3.15705324 -1.30012324
| 32> H   0.65811856 2.85958266 0.22481337
| 33> H   1.15026218 2.25515096 -1.26901107
| 34> H   -0.39893889 -2.21751975 0.83073822
| 35> H   -2.56216523 0.15649569 2.08588081
| 36> H   2.10295216 -0.58188725 -1.72998269
| 37> H   -2.27879947 -1.20308892 -1.8040504
| 38> *
| 39>
| 40>                          ****END OF INPUT****

CARTESIAN COORDINATES (ANGSTROEM)
---------------------------------
  O      3.320311    1.037334   -0.106317
  O     -1.060439    0.757090   -2.586160
  O      0.666824   -2.606043   -1.330122
  O     -3.324061   -1.661817    0.519630
  N      0.298296   -1.475436    0.656365
  N     -2.151023    0.202473    1.107980
  N      1.960341   -0.718337   -0.790147
  N     -2.003502   -0.600677   -1.015500
  C      1.590130    0.490203    1.311403
  C     -0.628706    1.315130   -0.355383
  C      0.260368   -0.247120    1.444672
  C     -0.834195    0.761374    1.040880
  C      2.037401    1.483986    2.320908
  C      0.256222    2.418330   -0.668684
  C      2.363787    0.272840    0.083818
  C     -1.272288    0.525420   -1.365956
  C      0.981918   -1.725294   -0.544698
  C     -2.579467   -0.793233    0.249683
  H      0.082451   -0.393542    2.559586
  H     -0.688516    1.617425    1.781911
  H      1.219072    2.039556    2.759984
  H      2.704280    0.998523    3.111493
  H      2.671810    2.164186    1.776586
  H     -0.177267    3.157053   -1.300123
  H      0.658119    2.859583    0.224813
  H      1.150262    2.255151   -1.269011
  H     -0.398939   -2.217520    0.830738
  H     -2.562165    0.156496    2.085881
  H      2.102952   -0.581887   -1.729983
  H     -2.278799   -1.203089   -1.804050

 Total Charge           Charge          ....    0
 Multiplicity           Mult            ....    3
 Number of Electrons    NEL             ....  132
 Basis Dimension        Dim             ....  882

ORBITAL ENERGIES
----------------
                 SPIN UP ORBITALS
  NO   OCC          E(Eh)            E(eV)
   0   1.0000     -19.337073      -526.1885
   1   1.0000     -19.335080      -526.1343
   2   1.0000     -19.332308      -526.0588
   3   1.0000     -19.327671      -525.9327
   4   1.0000     -14.566231      -396.3673
   5   1.0000     -14.563186      -396.2844
   6   1.0000     -14.562227      -396.2584
   7   1.0000     -14.560213      -396.2035
   8   1.0000     -10.520040      -286.2648
   9   1.0000     -10.507886      -285.9341
  10   1.0000     -10.487470      -285.3786
  11   1.0000     -10.475153      -285.0434
  12   1.0000     -10.450102      -284.3617
  13   1.0000     -10.445625      -284.2399
  14   1.0000     -10.420683      -283.5612
  15   1.0000     -10.416494      -283.4472
  16   1.0000     -10.379291      -282.4349
  17   1.0000     -10.364987      -282.0456
  18   1.0000      -1.234860       -33.6022
  19   1.0000      -1.214339       -33.0439
  20   1.0000      -1.192046       -32.4372
  21   1.0000      -1.180263       -32.1166
  22   1.0000      -1.121283       -30.5117
  23   1.0000      -1.099723       -29.9250
  24   1.0000      -1.062697       -28.9175
  25   1.0000      -1.049368       -28.5548
  26   1.0000      -0.982317       -26.7302
  27   1.0000      -0.951545       -25.8928
  28   1.0000      -0.890917       -24.2431
  29   1.0000      -0.845651       -23.0113
  30   1.0000      -0.827953       -22.5298
  31   1.0000      -0.797974       -21.7140
  32   1.0000      -0.780745       -21.2452
  33   1.0000      -0.774233       -21.0679
  34   1.0000      -0.701075       -19.0772
  35   1.0000      -0.694651       -18.9024
  36   1.0000      -0.692596       -18.8465
  37   1.0000      -0.674755       -18.3610
  38   1.0000      -0.652505       -17.7556
  39   1.0000      -0.642368       -17.4797
  40   1.0000      -0.620160       -16.8754
  41   1.0000      -0.598645       -16.2900
  42   1.0000      -0.589733       -16.0475
  43   1.0000      -0.584735       -15.9115
  44   1.0000      -0.576234       -15.6801
  45   1.0000      -0.572059       -15.5665
  46   1.0000      -0.567719       -15.4484
  47   1.0000      -0.563687       -15.3387
  48   1.0000      -0.561736       -15.2856
  49   1.0000      -0.553948       -15.0737
  50   1.0000      -0.550636       -14.9836
  51   1.0000      -0.538032       -14.6406
  52   1.0000      -0.532201       -14.4819
  53   1.0000      -0.527674       -14.3587
  54   1.0000      -0.509055       -13.8521
  55   1.0000      -0.497676       -13.5425
  56   1.0000      -0.488273       -13.2866
  57   1.0000      -0.428595       -11.6627
  58   1.0000      -0.424675       -11.5560
  59   1.0000      -0.415632       -11.3099
  60   1.0000      -0.408664       -11.1203
  61   1.0000      -0.403413       -10.9774
  62   1.0000      -0.397281       -10.8106
  63   1.0000      -0.390359       -10.6222
  64   1.0000      -0.376881       -10.2555
  65   1.0000      -0.339163        -9.2291
  66   1.0000      -0.331284        -9.0147
  67   0.0000       0.007009         0.1907
  68   0.0000       0.030905         0.8410
  69   0.0000       0.032356         0.8805
  70   0.0000       0.036934         1.0050
  71   0.0000       0.052989         1.4419

                 SPIN DOWN ORBITALS
  NO   OCC          E(Eh)            E(eV)
   0   1.0000     -19.335031      -526.1329
   1   1.0000     -19.332171      -526.0551
   2   1.0000     -19.332129      -526.0540
   3   1.0000     -19.322188      -525.7835
   4   1.0000     -14.565704      -396.3530
   5   1.0000     -14.563086      -396.2817
   6   1.0000     -14.561846      -396.2480
   7   1.0000     -14.559902      -396.1951
   8   1.0000     -10.520072      -286.2657
   9   1.0000     -10.507926      -285.9352
  10   1.0000     -10.488554      -285.4081
  11   1.0000     -10.476280      -285.0741
  12   1.0000     -10.449860      -284.3551
  13   1.0000     -10.445346      -284.2323
  14   1.0000     -10.409294      -283.2513
  15   1.0000     -10.405568      -283.1499
  16   1.0000     -10.379920      -282.4520
  17   1.0000     -10.365514      -282.0600
  18   1.0000      -1.234385       -33.5893
  19   1.0000      -1.212982       -33.0069
  20   1.0000      -1.186179       -32.2776
  21   1.0000      -1.173304       -31.9272
  22   1.0000      -1.118103       -30.4251
  23   1.0000      -1.097397       -29.8617
  24   1.0000      -1.060709       -28.8634
  25   1.0000      -1.047708       -28.5096
  26   1.0000      -0.969497       -26.3814
  27   1.0000      -0.934763       -25.4362
  28   1.0000      -0.885735       -24.1021
  29   1.0000      -0.840134       -22.8612
  30   1.0000      -0.818872       -22.2826
  31   1.0000      -0.793943       -21.6043
  32   1.0000      -0.779179       -21.2025
  33   1.0000      -0.772207       -21.0128
  34   1.0000      -0.695267       -18.9192
  35   1.0000      -0.688659       -18.7394
  36   1.0000      -0.686626       -18.6840
  37   1.0000      -0.669018       -18.2049
  38   1.0000      -0.641589       -17.4585
  39   1.0000      -0.639462       -17.4006
  40   1.0000      -0.615356       -16.7447
  41   1.0000      -0.593260       -16.1434
  42   1.0000      -0.586173       -15.9506
  43   1.0000      -0.577905       -15.7256
  44   1.0000      -0.572058       -15.5665
  45   1.0000      -0.565282       -15.3821
  46   1.0000      -0.562017       -15.2933
  47   1.0000      -0.558197       -15.1893
  48   1.0000      -0.553621       -15.0648
  49   1.0000      -0.546295       -14.8655
  50   1.0000      -0.538590       -14.6558
  51   1.0000      -0.532030       -14.4773
  52   1.0000      -0.524070       -14.2607
  53   1.0000      -0.514451       -13.9989
  54   1.0000      -0.501469       -13.6457
  55   1.0000      -0.488271       -13.2865
  56   1.0000      -0.482301       -13.1241
  57   1.0000      -0.425800       -11.5866
  58   1.0000      -0.421624       -11.4730
  59   1.0000      -0.406099       -11.0505
  60   1.0000      -0.401215       -10.9176
  61   1.0000      -0.392510       -10.6808
  62   1.0000      -0.387718       -10.5504
  63   1.0000      -0.383118       -10.4252
  64   1.0000      -0.365979        -9.9588
  65   0.0000      -0.058275        -1.5858
  66   0.0000      -0.054905        -1.4940
  67   0.0000       0.006653         0.1811
  68   0.0000       0.030576         0.8320
  69   0.0000       0.032493         0.8842

----------------------------------------------------------------------------------------------------
          SPIN FLIP ABSORPTION SPECTRUM VIA TRANSITION ELECTRIC DIPOLE MOMENTS
----------------------------------------------------------------------------------------------------
     Transition      Energy     Energy  Wavelength fosc(D2)      D2        DX        DY        DZ
                      (eV)      (cm-1)    (nm)                 (au**2)    (au)      (au)      (au)
----------------------------------------------------------------------------------------------------
  1-3A  ->  2-1A    0.029295     236.3  42322.0   0.000001575   0.00220   0.04532   0.01171  -0.00209
  1-3A  ->  3-3A    1.840112   14841.5   673.8   0.000866973   0.01923  -0.01412  -0.02839   0.13500

Dispersion correction             ... done (  0.1 sec)

MULLIKEN ATOMIC CHARGES AND SPIN DENSITIES
------------------------------------------
   0 O :   -0.654708    0.159260
   1 O :   -0.741333   -0.175683
   2 O :   -0.617869    0.001217
   3 O :   -0.583813   -0.002783
   4 N :   -0.226301    0.011767
   5 N :   -0.380174   -0.005976
   6 N :    0.065993    0.001120
   7 N :    0.034589   -0.010230
   8 C :   -0.123237    0.426204
   9 C :    0.694413    0.279745
  10 C :    0.668317    0.041247
  11 C :    0.312163   -0.385275
  12 C :   -1.347390    0.010472
  13 C :   -1.415462   -0.050603
  14 C :    0.502303    0.074128
  15 C :   -0.010653   -0.365348
  16 C :    0.369042    0.001663
  17 C :    0.261486    0.016970
  18 H :    0.441578    0.028892
  19 H :    0.520014   -0.049640
  20 H :    0.312098    0.005531
  21 H :    0.362920    0.020527
  22 H :    0.313671    0.008104
  23 H :    0.380272   -0.018668
  24 H :    0.340710    0.008675
  25 H :    0.211283   -0.029504
  26 H :    0.074528   -0.002959
  27 H :    0.177299    0.001609
  28 H :   -0.017942   -0.004850
  29 H :    0.076201    0.004389
Sum of atomic charges       :    0.0000000

LOEWDIN ATOMIC CHARGES AND SPIN DENSITIES
-----------------------------------------
   0 O :    0.065813    0.139887
   1 O :    0.038735   -0.154819
   2 O :    0.091368    0.001375
   3 O :    0.129026   -0.002719
   4 N :    0.265144    0.002781
   5 N :    0.239480   -0.003077
   6 N :    0.363107    0.003322
   7 N :    0.313034   -0.012986
   8 C :   -0.044408    0.444568
   9 C :   -0.000226   -0.395063
  10 C :   -0.116844    0.021848
  11 C :   -0.162925   -0.023264
  12 C :    0.178646    0.062209
  13 C :    0.201428   -0.068162
  14 C :   -0.389339    0.062693
  15 C :   -0.387947   -0.074221
  16 C :   -0.416220   -0.000987
  17 C :   -0.526291   -0.000463
  18 H :    0.087340    0.004899
  19 H :    0.081142   -0.005627
  20 H :   -0.016404    0.005246
  21 H :    0.050752    0.025688
  22 H :   -0.024348    0.003982
  23 H :    0.003120   -0.017384
  24 H :   -0.004777    0.002444
  25 H :    0.018995   -0.021823
  26 H :   -0.011141    0.000584
  27 H :    0.028008    0.000098
  28 H :   -0.071824    0.000105
  29 H :    0.017558   -0.001133

  Mayer bond orders larger than 0.100000
B(  0-O , 14-C ) :   1.4483 B(  1-O , 15-C ) :   1.2745 B(  2-O , 16-C ) :   1.5760
B(  3-O , 17-C ) :   1.6561 B(  4-N ,  8-C ) :   0.2851 B(  4-N ,  9-C ) :   0.1505
B(  4-N , 10-C ) :   0.3173 B(  4-N , 16-C ) :   1.0399 B(  4-N , 26-H ) :   1.0380
B(  5-N ,  9-C ) :   0.4274 B(  5-N , 11-C ) :  -0.2565 B(  5-N , 17-C ) :   1.2243
B(  5-N , 19-H ) :  -0.1580 B(  5-N , 27-H ) :   0.9384 B(  6-N ,  8-C ) :  -0.1932
B(  6-N , 10-C ) :   0.1579 B(  6-N , 14-C ) :   1.0663 B(  6-N , 16-C ) :   0.8268
B(  6-N , 28-H ) :   1.1593 B(  7-N , 11-C ) :   0.1634 B(  7-N , 15-C ) :   1.0755
B(  7-N , 17-C ) :   0.9456 B(  7-N , 29-H ) :   1.0817 B(  8-C ,  9-C ) :   0.1617
B(  8-C , 10-C ) :   0.1961 B(  8-C , 11-C ) :   0.2677 B(  8-C , 12-C ) :   0.6878
B(  8-C , 14-C ) :   0.6414 B(  8-C , 16-C ) :   0.1336 B(  8-C , 18-H ) :  -0.1501
B(  8-C , 22-H ) :  -0.1183 B(  9-C , 10-C ) :   0.2455 B(  9-C , 11-C ) :   0.3999
B(  9-C , 13-C ) :   0.3648 B(  9-C , 15-C ) :   0.6526 B(  9-C , 19-H ) :  -0.1638
B(  9-C , 24-H ) :  -0.1173 B( 10-C , 11-C ) :   0.5552 B( 10-C , 12-C ) :  -0.1642
B( 10-C , 16-C ) :  -0.1565 B( 10-C , 18-H ) :   0.8914 B( 10-C , 19-H ) :  -0.1264
B( 11-C , 17-C ) :  -0.1840 B( 11-C , 19-H ) :   0.9006 B( 12-C , 20-H ) :   0.9254
B( 12-C , 21-H ) :   0.8595 B( 12-C , 22-H ) :   1.0240 B( 13-C , 23-H ) :   0.8606
B( 13-C , 24-H ) :   0.9658 B( 13-C , 25-H ) :   0.9430

Dispersion correction           -0.060959449
FINAL SINGLE POINT ENERGY      -908.769690119820

DIPOLE MOMENT
-------------

Method             : TDA/CIS
Type of density    : Electron Density
Level              : Relaxed density
State              :   1
Multiplicity       :   3
Irrep              :   0
Energy             :     0.0000000000000000 Eh
Relativity type    :
Basis              : AO
                                X                 Y                 Z
Electronic contribution:     -4.259989639      -9.304794027      -6.190695808
Nuclear contribution   :      4.291734836      10.618868142       8.655210935
                        -----------------------------------------
Total Dipole Moment    :      0.031745197       1.314074115       2.464515127
                        -----------------------------------------
Magnitude (a.u.)       :      2.793140410
Magnitude (Debye)      :      7.099598707

Rotational constants in cm-1:             0.021800             0.013261             0.012600
Rotational constants in MHz :           653.538474           397.559430           377.753177

                             ****ORCA TERMINATED NORMALLY****
TOTAL RUN TIME: 0 days 0 hours 5 minutes 7 seconds 628 msec
