                         Program Version 6.0.0  -   RELEASE  -
|  1> ! Engrad def2-TZVPPD wB97M-D3BJ
|  2> %pal nprocs 8 end%pal nprocs 64 end
|  3> %tddft
|  4>  Iroot 2 Nroots 3
|  5> sf true
|  6> end
|  7> *xyz 0 3
|  8> O   0.5145917 -0.33106632 -1.07121972
|  9> C   0.7213849 -0.23467375 0.29144816
| 10> C   -0.05697802 0.84267266 1.07228921
| 11> H   1.82680842 -0.24298712 0.49738028
| 12> H   0.26301444 -1.18504274 0.71169802
| 13> H   0.45286285 1.56306964 1.73236699
| 14> H   -1.10006964 0.84736726 0.95711316
| 15> *
| 16>
| 17>                          ****END OF INPUT****

CARTESIAN COORDINATES (ANGSTROEM)
---------------------------------
  O      0.514592   -0.331066   -1.071220
  C      0.721385   -0.234674    0.291448
  C     -0.056978    0.842673    1.072289
  H      1.826808   -0.242987    0.497380
  H      0.263014   -1.185043    0.711698
  H      0.452863    1.563070    1.732367
  H     -1.100070    0.847367    0.957113

 Total Charge           Charge          ....    0
 Multiplicity           Mult            ....    3
 Number of Electrons    NEL             ....   24
 Basis Dimension        Dim             ....  182

ORBITAL ENERGIES
----------------
                 SPIN UP ORBITALS
  NO   OCC          E(Eh)            E(eV)
   0   1.0000     -19.389878      -527.6254
   1   1.0000     -10.422908      -283.6218
   2   1.0000     -10.375152      -282.3222
   3   1.0000      -1.162587       -31.6356
   4   1.0000      -0.870454       -23.6863
   5   1.0000      -0.731633       -19.9087
   6   1.0000      -0.613167       -16.6851
   7   1.0000      -0.574924       -15.6445
   8   1.0000      -0.552394       -15.0314
   9   1.0000      -0.524899       -14.2832
  10   1.0000      -0.438071       -11.9205
  11   1.0000      -0.409939       -11.1550
  12   1.0000      -0.329047        -8.9538
  13   0.0000       0.040850         1.1116
  14   0.0000       0.061042         1.6610
  15   0.0000       0.076786         2.0895
  16   0.0000       0.087849         2.3905
  17   0.0000       0.112102         3.0504

                 SPIN DOWN ORBITALS
  NO   OCC          E(Eh)            E(eV)
   0   1.0000     -19.366060      -526.9773
   1   1.0000     -10.424337      -283.6606
   2   1.0000     -10.361464      -281.9498
   3   1.0000      -1.108268       -30.1575
   4   1.0000      -0.836742       -22.7689
   5   1.0000      -0.704762       -19.1776
   6   1.0000      -0.587219       -15.9790
   7   1.0000      -0.532383       -14.4869
   8   1.0000      -0.528293       -14.3756
   9   1.0000      -0.499253       -13.5854
  10   1.0000      -0.381873       -10.3913
  11   0.0000      -0.054003        -1.4695
  12   0.0000      -0.003867        -0.1052
  13   0.0000       0.040622         1.1054
  14   0.0000       0.061121         1.6632
  15   0.0000       0.076785         2.0894

----------------------------------------------------------------------------------------------------
          SPIN FLIP ABSORPTION SPECTRUM VIA TRANSITION ELECTRIC DIPOLE MOMENTS
----------------------------------------------------------------------------------------------------
     Transition      Energy     Energy  Wavelength fosc(D2)      D2        DX        DY        DZ
                      (eV)      (cm-1)    (nm)                 (au**2)    (au)      (au)      (au)
----------------------------------------------------------------------------------------------------
  1-3A  ->  2-3A    0.155518    1254.3  7972.3   0.000243455   0.06390  -0.00777  -0.18536  -0.17169
  1-3A  ->  3-3A    0.761037    6138.2  1629.1   0.007855947   0.42134  -0.11376   0.24123   0.59178

Dispersion correction             ... done (  0.1 sec)

MULLIKEN ATOMIC CHARGES AND SPIN DENSITIES
------------------------------------------
   0 O :   -0.333751   -0.011421
   1 C :   -0.039194    0.005925
   2 C :   -0.442981    0.061950
   3 H :    0.222673   -0.056802
   4 H :    0.182902    0.034915
   5 H :    0.189110   -0.008215
   6 H :    0.221241   -0.026353
Sum of atomic charges       :    0.0000000

LOEWDIN ATOMIC CHARGES AND SPIN DENSITIES
-----------------------------------------
   0 O :    0.018529   -0.013548
   1 C :   -0.259996   -0.015210
   2 C :    0.313253    0.048346
   3 H :    0.030601   -0.040031
   4 H :    0.034903    0.020210
   5 H :   -0.046376    0.000905
   6 H :   -0.090914   -0.000673

  Mayer bond orders larger than 0.100000
B(  0-O ,  1-C ) :   0.8734 B(  0-O ,  2-C ) :   0.1483 B(  1-C ,  2-C ) :   0.7772
B(  1-C ,  3-H ) :   0.9684 B(  1-C ,  4-H ) :   0.9810 B(  2-C ,  5-H ) :   0.9804
B(  2-C ,  6-H ) :   0.9761

Dispersion correction           -0.005428866
FINAL SINGLE POINT ENERGY      -153.745470562251

DIPOLE MOMENT
-------------

Method             : TDA/CIS
Type of density    : Electron Density
Level              : Relaxed density
State              :   2
Multiplicity       :   3
Irrep              :   0
Energy             :     0.0000000000000000 Eh
Relativity type    :
Basis              : AO
                                X                 Y                 Z
Electronic contribution:      0.169711525      -0.578855743      -2.445972556
Nuclear contribution   :     -0.149901774       0.660533296       3.370490143
                        -----------------------------------------
Total Dipole Moment    :      0.019809751       0.081677552       0.924517587
                        -----------------------------------------
Magnitude (a.u.)       :      0.928329908
Magnitude (Debye)      :      2.359627103

Rotational constants in cm-1:             1.514510             0.318384             0.287347
Rotational constants in MHz :         45403.874500          9544.905955          8614.439829

                             ****ORCA TERMINATED NORMALLY****
TOTAL RUN TIME: 0 days 0 hours 0 minutes 26 seconds 726 msec
