                         Program Version 6.0.0  -   RELEASE  -
|  1> ! EnGrad wB97M-D3BJ def2-TZVPPD
|  2> %pal nprocs 8 end%pal nprocs 16 end
|  3> %tddft
|  4>  sf true
|  5>  nroots 2 Iroot 1 end
|  6> *xyz 0 3
|  7> O   0.35384981752381 1.01963273130395 -0.00256153973431
|  8> C   0.62631338098167 -0.2913040530629 -0.00063359714338
|  9> C   -0.74132947583341 -0.71454549746264 0.00052292775363
| 10> H   1.18117948289384 -0.63362150137375 0.88428985723958
| 11> H   1.18201245216017 -0.63595757975724 -0.88403377547103
| 12> H   -1.30097403570707 -0.73336112838688 -0.92358201202676
| 13> H   -1.29885162201901 -0.72924297126054 0.92599813938228
| 14> *
| 15>
| 16>                          ****END OF INPUT****

CARTESIAN COORDINATES (ANGSTROEM)
---------------------------------
  O      0.353850    1.019633   -0.002562
  C      0.626313   -0.291304   -0.000634
  C     -0.741329   -0.714545    0.000523
  H      1.181179   -0.633622    0.884290
  H      1.182012   -0.635958   -0.884034
  H     -1.300974   -0.733361   -0.923582
  H     -1.298852   -0.729243    0.925998

 Total Charge           Charge          ....    0
 Multiplicity           Mult            ....    3
 Number of Electrons    NEL             ....   24
 Basis Dimension        Dim             ....  182

ORBITAL ENERGIES
----------------
                 SPIN UP ORBITALS
  NO   OCC          E(Eh)            E(eV)
   0   1.0000     -19.400983      -527.9276
   1   1.0000     -10.406787      -283.1831
   2   1.0000     -10.344927      -281.4998
   3   1.0000      -1.202633       -32.7253
   4   1.0000      -0.870844       -23.6969
   5   1.0000      -0.737771       -20.0758
   6   1.0000      -0.639492       -17.4015
   7   1.0000      -0.600658       -16.3447
   8   1.0000      -0.553107       -15.0508
   9   1.0000      -0.510729       -13.8976
  10   1.0000      -0.445254       -12.1160
  11   1.0000      -0.430457       -11.7133
  12   1.0000      -0.292946        -7.9715
  13   0.0000       0.041163         1.1201
  14   0.0000       0.063565         1.7297
  15   0.0000       0.073351         1.9960
  16   0.0000       0.086455         2.3525
  17   0.0000       0.117333         3.1928

                 SPIN DOWN ORBITALS
  NO   OCC          E(Eh)            E(eV)
   0   1.0000     -19.374002      -527.1934
   1   1.0000     -10.408044      -283.2173
   2   1.0000     -10.332174      -281.1528
   3   1.0000      -1.144572       -31.1454
   4   1.0000      -0.836876       -22.7725
   5   1.0000      -0.715226       -19.4623
   6   1.0000      -0.598754       -16.2929
   7   1.0000      -0.565553       -15.3895
   8   1.0000      -0.530753       -14.4425
   9   1.0000      -0.475621       -12.9423
  10   1.0000      -0.386439       -10.5155
  11   0.0000      -0.070038        -1.9058
  12   0.0000       0.020692         0.5630
  13   0.0000       0.039902         1.0858
  14   0.0000       0.064264         1.7487
  15   0.0000       0.072527         1.9735

----------------------------------------------------------------------------------------------------
          SPIN FLIP ABSORPTION SPECTRUM VIA TRANSITION ELECTRIC DIPOLE MOMENTS
----------------------------------------------------------------------------------------------------
     Transition      Energy     Energy  Wavelength fosc(D2)      D2        DX        DY        DZ
                      (eV)      (cm-1)    (nm)                 (au**2)    (au)      (au)      (au)
----------------------------------------------------------------------------------------------------
  1-3A  ->  2-3A    1.717427   13852.0   721.9   0.000405319   0.00963  -0.00050  -0.00066  -0.09814

Dispersion correction             ... done (  0.0 sec)

MULLIKEN ATOMIC CHARGES AND SPIN DENSITIES
------------------------------------------
   0 O :   -0.533221   -0.250509
   1 C :   -0.131246   -0.050966
   2 C :   -0.291856    0.168538
   3 H :    0.233692    0.037697
   4 H :    0.233895    0.037076
   5 H :    0.244443    0.029004
   6 H :    0.244294    0.029159
Sum of atomic charges       :    0.0000000

LOEWDIN ATOMIC CHARGES AND SPIN DENSITIES
-----------------------------------------
   0 O :   -0.056859   -0.266029
   1 C :   -0.377827    0.007675
   2 C :    0.382853    0.203085
   3 H :    0.029005    0.006678
   4 H :    0.028806    0.006292
   5 H :   -0.002986    0.021154
   6 H :   -0.002993    0.021144

  Mayer bond orders larger than 0.100000
B(  0-O ,  1-C ) :   0.7562 B(  0-O ,  2-C ) :   0.8184 B(  1-C ,  2-C ) :   0.7727
B(  1-C ,  3-H ) :   1.0225 B(  1-C ,  4-H ) :   1.0228 B(  2-C ,  5-H ) :   0.9400
B(  2-C ,  6-H ) :   0.9403

Dispersion correction           -0.005671671
FINAL SINGLE POINT ENERGY      -153.794474823509

DIPOLE MOMENT
-------------

Method             : TDA/CIS
Type of density    : Electron Density
Level              : Relaxed density
State              :   1
Multiplicity       :   3
Irrep              :   0
Energy             :     0.0000000000000000 Eh
Relativity type    :
Basis              : AO
                                X                 Y                 Z
Electronic contribution:      0.017885135       1.222920591      -0.002746219
Nuclear contribution   :     -0.562386942      -2.674574776       0.005857303
                        -----------------------------------------
Total Dipole Moment    :     -0.544501807      -1.451654185       0.003111084
                        -----------------------------------------
Magnitude (a.u.)       :      1.550416644
Magnitude (Debye)      :      3.940845925

Rotational constants in cm-1:             1.124930             0.463031             0.376351
Rotational constants in MHz :         33724.560644         13881.324442         11282.723149

                             ****ORCA TERMINATED NORMALLY****
TOTAL RUN TIME: 0 days 0 hours 0 minutes 17 seconds 480 msec
