                         Program Version 6.0.0  -   RELEASE  -
|  1> ! EnGrad wB97M-D3BJ def2-TZVPPD
|  2> %pal nprocs 8 end%pal nprocs 16 end
|  3> %tddft
|  4>  sf true
|  5>  nroots 2 Iroot 2 end
|  6> *xyz 0 3
|  7> O   0.50810981373858 1.32744440083328 0.07202924611623
|  8> C   0.57646565627604 0.17896839689544 -0.28321311031645
|  9> C   -0.43144010802493 -0.82182964388266 0.2101032888386
| 10> H   0.0737274926134 -1.63467958699881 0.73410062910741
| 11> H   1.36746704610369 -0.1688125052934 -0.97020205380557
| 12> H   -0.95674611727864 -1.27117146052745 -0.63408392048145
| 13> H   -1.13538378342813 -0.32831960102639 0.87126592054123
| 14> *
| 15>
| 16>                          ****END OF INPUT****

CARTESIAN COORDINATES (ANGSTROEM)
---------------------------------
  O      0.508110    1.327444    0.072029
  C      0.576466    0.178968   -0.283213
  C     -0.431440   -0.821830    0.210103
  H      0.073727   -1.634680    0.734101
  H      1.367467   -0.168813   -0.970202
  H     -0.956746   -1.271171   -0.634084
  H     -1.135384   -0.328320    0.871266

 Total Charge           Charge          ....    0
 Multiplicity           Mult            ....    3
 Number of Electrons    NEL             ....   24
 Basis Dimension        Dim             ....  182

ORBITAL ENERGIES
----------------
                 SPIN UP ORBITALS
  NO   OCC          E(Eh)            E(eV)
   0   1.0000     -19.410600      -528.1893
   1   1.0000     -10.379686      -282.4456
   2   1.0000     -10.366345      -282.0826
   3   1.0000      -1.246859       -33.9288
   4   1.0000      -0.879632       -23.9360
   5   1.0000      -0.719407       -19.5761
   6   1.0000      -0.637045       -17.3349
   7   1.0000      -0.585138       -15.9224
   8   1.0000      -0.582298       -15.8451
   9   1.0000      -0.514357       -13.9964
  10   1.0000      -0.512175       -13.9370
  11   1.0000      -0.435759       -11.8576
  12   1.0000      -0.222228        -6.0471
  13   0.0000       0.041873         1.1394
  14   0.0000       0.060401         1.6436
  15   0.0000       0.079006         2.1499
  16   0.0000       0.088191         2.3998
  17   0.0000       0.108291         2.9468

                 SPIN DOWN ORBITALS
  NO   OCC          E(Eh)            E(eV)
   0   1.0000     -19.382736      -527.4311
   1   1.0000     -10.369368      -282.1648
   2   1.0000     -10.364076      -282.0209
   3   1.0000      -1.188567       -32.3425
   4   1.0000      -0.860195       -23.4071
   5   1.0000      -0.675406       -18.3787
   6   1.0000      -0.585925       -15.9438
   7   1.0000      -0.540440       -14.7061
   8   1.0000      -0.534389       -14.5415
   9   1.0000      -0.500546       -13.6206
  10   1.0000      -0.470665       -12.8075
  11   0.0000      -0.082073        -2.2333
  12   0.0000       0.041963         1.1419
  13   0.0000       0.060060         1.6343
  14   0.0000       0.079110         2.1527
  15   0.0000       0.083277         2.2661

----------------------------------------------------------------------------------------------------
          SPIN FLIP ABSORPTION SPECTRUM VIA TRANSITION ELECTRIC DIPOLE MOMENTS
----------------------------------------------------------------------------------------------------
     Transition      Energy     Energy  Wavelength fosc(D2)      D2        DX        DY        DZ
                      (eV)      (cm-1)    (nm)                 (au**2)    (au)      (au)      (au)
----------------------------------------------------------------------------------------------------
  1-3A  ->  2-3A    4.508344   36362.2   275.0   0.000029054   0.00026  -0.00956   0.00332  -0.01267

Dispersion correction             ... done (  0.0 sec)

MULLIKEN ATOMIC CHARGES AND SPIN DENSITIES
------------------------------------------
   0 O :   -0.249154    0.607665
   1 C :    0.205902   -0.633700
   2 C :   -0.698522    0.127787
   3 H :    0.195387   -0.043949
   4 H :    0.109020   -0.008903
   5 H :    0.194417   -0.045505
   6 H :    0.242949   -0.003395
Sum of atomic charges       :   -0.0000000

LOEWDIN ATOMIC CHARGES AND SPIN DENSITIES
-----------------------------------------
   0 O :    0.158454    0.416954
   1 C :   -0.251303   -0.364282
   2 C :    0.139247   -0.004942
   3 H :   -0.017596   -0.016614
   4 H :    0.000889   -0.017872
   5 H :   -0.017625   -0.016693
   6 H :   -0.012067    0.003449

  Mayer bond orders larger than 0.100000
B(  0-O ,  1-C ) :   1.2641 B(  1-C ,  2-C ) :   0.6583 B(  1-C ,  4-H ) :   1.0190
B(  2-C ,  3-H ) :   1.0018 B(  2-C ,  5-H ) :   1.0026 B(  2-C ,  6-H ) :   0.9423

Dispersion correction           -0.005545872
FINAL SINGLE POINT ENERGY      -153.757697288169

DIPOLE MOMENT
-------------

Method             : TDA/CIS
Type of density    : Electron Density
Level              : Relaxed density
State              :   2
Multiplicity       :   3
Irrep              :   0
Energy             :     0.0000000000000000 Eh
Relativity type    :
Basis              : AO
                                X                 Y                 Z
Electronic contribution:      1.246459773       3.474601971      -0.017652307
Nuclear contribution   :     -1.391262333      -4.035554653      -0.021470532
                        -----------------------------------------
Total Dipole Moment    :     -0.144802560      -0.560952682      -0.039122839
                        -----------------------------------------
Magnitude (a.u.)       :      0.580660218
Magnitude (Debye)      :      1.475920981

Rotational constants in cm-1:             1.794775             0.352877             0.311750
Rotational constants in MHz :         53805.997049         10578.986806          9346.043173

                             ****ORCA TERMINATED NORMALLY****
TOTAL RUN TIME: 0 days 0 hours 0 minutes 16 seconds 148 msec
