                         Program Version 6.0.0  -   RELEASE  -
|  1> ! opt def2-TZVPPD wB97M-D3BJ
|  2> %pal nprocs 8 end%pal nprocs 64 end
|  3> %geom Constraints
|  4> {B 9 8 3.5 C}
|  5> {A 8 9 11 88.85714285714286 C}
|  6> end
|  7> MaxIter 300
|  8> end
|  9> *xyz 0 1
| 10> O   2.98579685529314 0.88758230159078 -0.86184571092411
| 11> O   -0.03983205397054 0.68929041702508 -2.10362336723772
| 12> O   0.93431434349854 -3.13274393337945 -0.68767288184107
| 13> O   -3.75829998830163 -0.84727300865116 -0.0472717177755
| 14> N   0.21184538946282 -1.54604804365365 0.7617588924445
| 15> N   -2.13631993928911 0.03188773433438 1.27350571071531
| 16> N   2.02598672506387 -1.14318467211666 -0.64531219127023
| 17> N   -1.91814233924584 0.03137116037665 -1.04498946748291
| 18> C   1.18097737274226 0.71693507080484 0.70173889017321
| 19> C   -0.20686880480777 1.27024627933494 0.21345042231937
| 20> C   0.41441080275909 -0.34173258966541 1.52336266615173
| 21> C   -0.82922175114212 0.58960593673968 1.44434972027296
| 22> C   1.92822011286806 1.69488653817281 1.5963734975385
| 23> C   -0.37809776891576 2.77134929626422 0.04819649358288
| 24> C   2.1403947470937 0.1972384729179 -0.35038567829864
| 25> C   -0.67361678962426 0.6214190571346 -1.0793014500539
| 26> C   1.04142578622994 -2.02697492875068 -0.21027082435993
| 27> C   -2.68467002550422 -0.30396816036989 0.07167054343891
| 28> H   0.80817443950001 -0.54572267081061 2.51895215321335
| 29> H   -0.83785272399001 1.27240685039143 2.28901317073582
| 30> H   2.31167340578204 2.52284411740894 1.00913016264629
| 31> H   1.28982602448342 2.08257620823614 2.38710022492991
| 32> H   2.77390820759972 1.19140411795486 2.06045858523949
| 33> H   -1.41857211141493 3.00964947214868 -0.16882755561625
| 34> H   -0.09065531563179 3.29799318042223 0.95389844358819
| 35> H   0.23426221611057 3.12492645074476 -0.77764887675592
| 36> H   -0.46772570547622 -2.21560145172536 1.0787081584806
| 37> H   -2.71769301149571 -0.17090724573546 2.06627440900372
| 38> H   2.60065167263658 -1.49057255715425 -1.3966820077142
| 39> H   -2.27169977231386 -0.32388339999036 -1.91951041514436
| 40> *
| 41>
| 42>                          ****END OF INPUT****
 Total Charge           Charge          ....    0
 Multiplicity           Mult            ....    1
 Number of Electrons    NEL             ....  132
Dispersion correction           -0.051240608
FINAL SINGLE POINT ENERGY      -908.538999644757
Dispersion correction             ... done (  0.1 sec)
Dispersion correction           -0.051634735
FINAL SINGLE POINT ENERGY      -908.602145752975
Dispersion correction             ... done (  0.2 sec)
Dispersion correction           -0.052117078
FINAL SINGLE POINT ENERGY      -908.658082002732
Dispersion correction             ... done (  0.1 sec)
FINAL SINGLE POINT ENERGY      -908.731365523083
FINAL SINGLE POINT ENERGY      -908.804532833712
FINAL SINGLE POINT ENERGY      -908.846687803017
FINAL SINGLE POINT ENERGY      -908.871911490479
FINAL SINGLE POINT ENERGY      -908.898169421241
FINAL SINGLE POINT ENERGY      -908.914090845921
FINAL SINGLE POINT ENERGY      -908.921152106994
FINAL SINGLE POINT ENERGY      -908.934075303238
FINAL SINGLE POINT ENERGY      -908.934323009034
FINAL SINGLE POINT ENERGY      -908.934539054654
FINAL SINGLE POINT ENERGY      -908.934704548637
FINAL SINGLE POINT ENERGY      -908.934784257618
FINAL SINGLE POINT ENERGY      -908.934818822557
FINAL SINGLE POINT ENERGY      -908.934829934109
Dispersion correction             ... done (  0.2 sec)
Dispersion correction           -0.057948833
FINAL SINGLE POINT ENERGY      -908.934835633317
Dispersion correction             ... done (  0.1 sec)
Dispersion correction           -0.057957976
FINAL SINGLE POINT ENERGY      -908.934837555406
Dispersion correction             ... done (  0.1 sec)
                    ***********************HURRAY********************

CARTESIAN COORDINATES (ANGSTROEM)
---------------------------------
  O      2.645238    1.152661   -0.618374
  O     -0.529836    0.841022   -2.180207
  O      0.561225   -2.776185   -1.521769
  O     -2.476227   -1.676661    1.061087
  N      0.697847   -2.094251    0.645503
  N     -2.219043    0.558733    1.412382
  N      1.733396   -0.883758   -1.020761
  N     -1.584688   -0.376335   -0.589675
  C      1.627114    0.029804    1.203728
  C     -1.005444    1.919562   -0.118562
  C      0.972416   -1.088424    1.542242
  C     -1.661789    1.763202    1.035263
  C      1.922651    1.143306    2.155359
  C     -0.326653    3.183323   -0.537878
  C      2.060854    0.182613   -0.185348
  C     -1.000048    0.801072   -1.065472
  C      0.970079   -1.984388   -0.700954
  C     -2.122549   -0.587821    0.657836
  H      0.613673   -1.263581    2.545382
  H     -1.752864    2.558908    1.758878
  H      1.462020    2.068321    1.811546
  H      1.548541    0.911455    3.150112
  H      2.993317    1.327922    2.216183
  H     -0.743966    3.552865   -1.472275
  H     -0.431204    3.950715    0.225853
  H      0.732260    2.997005   -0.711374
  H      0.042996   -2.818171    0.888795
  H     -2.632752    0.442682    2.319425
  H      1.888479   -0.737090   -2.006598
  H     -1.532442   -1.183508   -1.195725

 Multiplicity           Mult            ....    1
 Number of Electrons    NEL             ....  132
 Basis Dimension        Dim             ....  882

ORBITAL ENERGIES
----------------

  NO   OCC          E(Eh)            E(eV)
   0   2.0000     -19.329394      -525.9795
   1   2.0000     -19.323610      -525.8222
   2   2.0000     -19.318992      -525.6965
   3   2.0000     -19.318552      -525.6845
   4   2.0000     -14.585637      -396.8954
   5   2.0000     -14.574019      -396.5792
   6   2.0000     -14.570902      -396.4944
   7   2.0000     -14.561956      -396.2510
   8   2.0000     -10.515658      -286.1456
   9   2.0000     -10.505297      -285.8637
  10   2.0000     -10.479239      -285.1546
  11   2.0000     -10.473556      -284.9999
  12   2.0000     -10.432233      -283.8755
  13   2.0000     -10.427876      -283.7569
  14   2.0000     -10.380721      -282.4738
  15   2.0000     -10.377479      -282.3856
  16   2.0000     -10.358398      -281.8663
  17   2.0000     -10.350976      -281.6644
  18   2.0000      -1.228313       -33.4241
  19   2.0000      -1.218583       -33.1593
  20   2.0000      -1.194675       -32.5088
  21   2.0000      -1.187654       -32.3177
  22   2.0000      -1.123781       -30.5796
  23   2.0000      -1.115416       -30.3520
  24   2.0000      -1.070845       -29.1392
  25   2.0000      -1.062652       -28.9162
  26   2.0000      -0.957385       -26.0518
  27   2.0000      -0.953015       -25.9329
  28   2.0000      -0.847077       -23.0501
  29   2.0000      -0.845477       -23.0066
  30   2.0000      -0.810486       -22.0545
  31   2.0000      -0.805726       -21.9249
  32   2.0000      -0.795019       -21.6336
  33   2.0000      -0.786252       -21.3950
  34   2.0000      -0.695897       -18.9363
  35   2.0000      -0.692530       -18.8447
  36   2.0000      -0.689409       -18.7598
  37   2.0000      -0.685734       -18.6598
  38   2.0000      -0.643903       -17.5215
  39   2.0000      -0.634979       -17.2787
  40   2.0000      -0.632321       -17.2063
  41   2.0000      -0.598477       -16.2854
  42   2.0000      -0.597367       -16.2552
  43   2.0000      -0.590553       -16.0698
  44   2.0000      -0.568892       -15.4803
  45   2.0000      -0.560828       -15.2609
  46   2.0000      -0.558648       -15.2016
  47   2.0000      -0.551180       -14.9984
  48   2.0000      -0.547210       -14.8903
  49   2.0000      -0.542693       -14.7674
  50   2.0000      -0.519471       -14.1355
  51   2.0000      -0.516747       -14.0614
  52   2.0000      -0.515064       -14.0156
  53   2.0000      -0.512319       -13.9409
  54   2.0000      -0.501975       -13.6594
  55   2.0000      -0.498347       -13.5607
  56   2.0000      -0.480221       -13.0675
  57   2.0000      -0.470856       -12.8126
  58   2.0000      -0.421221       -11.4620
  59   2.0000      -0.412059       -11.2127
  60   2.0000      -0.405072       -11.0226
  61   2.0000      -0.394916       -10.7462
  62   2.0000      -0.387448       -10.5430
  63   2.0000      -0.381883       -10.3916
  64   2.0000      -0.348998        -9.4967
  65   2.0000      -0.341484        -9.2923
  66   0.0000       0.010908         0.2968
  67   0.0000       0.017273         0.4700
  68   0.0000       0.025484         0.6935
  69   0.0000       0.034953         0.9511
  70   0.0000       0.040780         1.1097

MULLIKEN ATOMIC CHARGES
-----------------------
   0 O :   -0.671356
   1 O :   -0.655419
   2 O :   -0.642599
   3 O :   -0.666850
   4 N :   -0.049539
   5 N :   -0.024007
   6 N :    0.026906
   7 N :    0.027079
   8 C :    0.738414
   9 C :    0.488155
  10 C :    0.080506
  11 C :    0.084650
  12 C :   -1.387677
  13 C :   -1.412607
  14 C :    0.396660
  15 C :    0.622576
  16 C :    0.347015
  17 C :    0.448802
  18 H :    0.144342
  19 H :    0.136278
  20 H :    0.205267
  21 H :    0.339667
  22 H :    0.339172
  23 H :    0.357627
  24 H :    0.331202
  25 H :    0.219103
  26 H :    0.069786
  27 H :    0.019913
  28 H :    0.040071
  29 H :    0.046865
Sum of atomic charges:    0.0000000

LOEWDIN ATOMIC CHARGES
----------------------
   0 O :    0.091731
   1 O :    0.102635
   2 O :    0.083727
   3 O :    0.072603
   4 N :    0.277139
   5 N :    0.280484
   6 N :    0.342140
   7 N :    0.343900
   8 C :   -0.135867
   9 C :   -0.136851
  10 C :    0.050170
  11 C :    0.057006
  12 C :    0.177332
  13 C :    0.181237
  14 C :   -0.400257
  15 C :   -0.391228
  16 C :   -0.489062
  17 C :   -0.485891
  18 H :    0.039705
  19 H :    0.036430
  20 H :   -0.012727
  21 H :   -0.006855
  22 H :    0.001265
  23 H :    0.001253
  24 H :   -0.005958
  25 H :   -0.012025
  26 H :   -0.022460
  27 H :   -0.022087
  28 H :   -0.003714
  29 H :   -0.013776

  Mayer bond orders larger than 0.100000
B(  0-O , 14-C ) :   1.4748 B(  1-O , 15-C ) :   1.4306 B(  2-O , 16-C ) :   1.5794
B(  3-O , 17-C ) :   1.5383 B(  4-N , 10-C ) :   0.8868 B(  4-N , 16-C ) :   0.9902
B(  4-N , 26-H ) :   1.1091 B(  5-N , 11-C ) :   0.9666 B(  5-N , 17-C ) :   1.0443
B(  5-N , 27-H ) :   1.1359 B(  6-N , 14-C ) :   0.9944 B(  6-N , 16-C ) :   0.9163
B(  6-N , 28-H ) :   1.0966 B(  7-N , 15-C ) :   0.9882 B(  7-N , 17-C ) :   0.9452
B(  7-N , 29-H ) :   1.1127 B(  8-C , 10-C ) :   1.1545 B(  8-C , 12-C ) :   0.3638
B(  8-C , 14-C ) :   0.7724 B(  9-C , 11-C ) :   1.2381 B(  9-C , 13-C ) :   0.3801
B(  9-C , 15-C ) :   0.8456 B(  9-C , 25-H ) :  -0.1120 B( 10-C , 18-H ) :   1.1113
B( 11-C , 13-C ) :  -0.1818 B( 11-C , 19-H ) :   1.0871 B( 12-C , 20-H ) :   1.0308
B( 12-C , 21-H ) :   0.9809 B( 12-C , 22-H ) :   0.9377 B( 13-C , 23-H ) :   0.9105
B( 13-C , 24-H ) :   1.0073 B( 13-C , 25-H ) :   1.0215

Dispersion correction           -0.057955792
FINAL SINGLE POINT ENERGY      -908.934838306214

DIPOLE MOMENT
-------------

Method             : SCF
Type of density    : Electron Density
Multiplicity       :   1
Irrep              :   0
Energy             :  -908.8768825143836239 Eh
Relativity type    :
Basis              : AO
                                X                 Y                 Z
Electronic contribution:     -2.601596207     -10.164376250      -5.877155613
Nuclear contribution   :      1.893418102      11.124424600       8.373447868
                        -----------------------------------------
Total Dipole Moment    :     -0.708178105       0.960048350       2.496292255
                        -----------------------------------------
Magnitude (a.u.)       :      2.766709975
Magnitude (Debye)      :      7.032417881

Rotational constants in cm-1:             0.017255             0.015801             0.012858
Rotational constants in MHz :           517.296498           473.710165           385.480835

                             ****ORCA TERMINATED NORMALLY****
TOTAL RUN TIME: 0 days 1 hours 8 minutes 25 seconds 56 msec
