                         Program Version 6.0.0  -   RELEASE  -
|  1> ! Engrad def2-TZVPPD wB97M-D3BJ
|  2> %pal nprocs 8 end%pal nprocs 64 end
|  3>  %tddft nroots 2 Iroot 1
|  4> sf true
|  5> end
|  6> *xyz 0 3
|  7> O   2.40406225538586 -0.39898563022857 -1.11378638339951
|  8> O   -0.14314532101267 2.90664508746496 -2.18619040541275
|  9> O   0.18591879725652 -3.81651713769538 0.82474045170923
| 10> O   -2.04933457273832 -1.04079106670491 -1.51845444867158
| 11> N   0.40140935959884 -1.90483440743442 2.03125936444354
| 12> N   -1.36378419530722 -0.24509054061795 0.47806620609239
| 13> N   1.08934806325466 -1.98985068189719 -0.18681264817129
| 14> N   -0.74585610830641 0.79904873062446 -1.58849085042395
| 15> C   1.4797867367719 0.07595166428063 1.00912368290918
| 16> C   -0.42889524324 2.80768303276107 -0.06072553552474
| 17> C   0.5867581760097 -0.48809069186583 2.0693367668134
| 18> C   -0.43450249756403 0.35696995205533 1.31760102138624
| 19> C   2.32275374349576 1.28097064857516 1.2484490158566
| 20> C   -1.7033353117075 3.46193809914315 0.28535740567509
| 21> C   1.71005802374073 -0.74576152089204 -0.18440270044218
| 22> C   -0.45504190833058 2.111446973261 -1.30319923541868
| 23> C   0.52658335111431 -2.65883823634459 0.89480248968612
| 24> C   -1.4347382935657 -0.20436098113428 -0.90286998617828
| 25> H   0.8012312799113 -0.14848427444418 3.07477040802551
| 26> H   -0.52831027313474 1.38771875321233 1.61725172168748
| 27> H   2.48247225541805 1.82687380960735 0.32472784252296
| 28> H   1.84976807198275 1.94883330643959 1.96406887783667
| 29> H   3.29416076909349 0.98082213362701 1.645775281814
| 30> H   -2.59033488843431 2.83526078208542 0.14893354042564
| 31> H   -1.69775888168284 3.93368147136958 1.26322145113654
| 32> H   -1.78067876438879 4.25828368865564 -0.4678020070952
| 33> H   -0.04809691111719 -2.37386325215019 2.79673782537281
| 34> H   -1.78956341521013 -1.09829997131688 0.81053610920225
| 35> H   1.236964778878 -2.55904342707457 -1.00520665770124
| 36> H   -0.72529907617148 0.6156836866383 -2.58221860415635
| 37> *
| 38>
| 39>                          ****END OF INPUT****

CARTESIAN COORDINATES (ANGSTROEM)
---------------------------------
  O      2.404062   -0.398986   -1.113786
  O     -0.143145    2.906645   -2.186190
  O      0.185919   -3.816517    0.824740
  O     -2.049335   -1.040791   -1.518454
  N      0.401409   -1.904834    2.031259
  N     -1.363784   -0.245091    0.478066
  N      1.089348   -1.989851   -0.186813
  N     -0.745856    0.799049   -1.588491
  C      1.479787    0.075952    1.009124
  C     -0.428895    2.807683   -0.060726
  C      0.586758   -0.488091    2.069337
  C     -0.434502    0.356970    1.317601
  C      2.322754    1.280971    1.248449
  C     -1.703335    3.461938    0.285357
  C      1.710058   -0.745762   -0.184403
  C     -0.455042    2.111447   -1.303199
  C      0.526583   -2.658838    0.894802
  C     -1.434738   -0.204361   -0.902870
  H      0.801231   -0.148484    3.074770
  H     -0.528310    1.387719    1.617252
  H      2.482472    1.826874    0.324728
  H      1.849768    1.948833    1.964069
  H      3.294161    0.980822    1.645775
  H     -2.590335    2.835261    0.148934
  H     -1.697759    3.933681    1.263221
  H     -1.780679    4.258284   -0.467802
  H     -0.048097   -2.373863    2.796738
  H     -1.789563   -1.098300    0.810536
  H      1.236965   -2.559043   -1.005207
  H     -0.725299    0.615684   -2.582219

 Total Charge           Charge          ....    0
 Multiplicity           Mult            ....    3
 Number of Electrons    NEL             ....  132
 Basis Dimension        Dim             ....  882

ORBITAL ENERGIES
----------------
                 SPIN UP ORBITALS
  NO   OCC          E(Eh)            E(eV)
   0   1.0000     -19.338952      -526.2396
   1   1.0000     -19.332250      -526.0573
   2   1.0000     -19.326492      -525.9006
   3   1.0000     -19.320430      -525.7356
   4   1.0000     -14.576344      -396.6425
   5   1.0000     -14.574314      -396.5872
   6   1.0000     -14.564710      -396.3259
   7   1.0000     -14.562672      -396.2704
   8   1.0000     -10.519148      -286.2406
   9   1.0000     -10.507006      -285.9102
  10   1.0000     -10.487117      -285.3690
  11   1.0000     -10.482578      -285.2454
  12   1.0000     -10.448394      -284.3153
  13   1.0000     -10.445243      -284.2295
  14   1.0000     -10.413327      -283.3610
  15   1.0000     -10.405356      -283.1441
  16   1.0000     -10.376762      -282.3661
  17   1.0000     -10.365914      -282.0708
  18   1.0000      -1.230149       -33.4741
  19   1.0000      -1.219940       -33.1962
  20   1.0000      -1.206401       -32.8279
  21   1.0000      -1.194955       -32.5164
  22   1.0000      -1.123272       -30.5658
  23   1.0000      -1.096562       -29.8390
  24   1.0000      -1.076006       -29.2796
  25   1.0000      -1.061961       -28.8974
  26   1.0000      -0.980625       -26.6842
  27   1.0000      -0.940683       -25.5973
  28   1.0000      -0.881927       -23.9984
  29   1.0000      -0.827695       -22.5227
  30   1.0000      -0.816262       -22.2116
  31   1.0000      -0.806801       -21.9542
  32   1.0000      -0.790526       -21.5113
  33   1.0000      -0.781523       -21.2663
  34   1.0000      -0.724091       -19.7035
  35   1.0000      -0.698162       -18.9980
  36   1.0000      -0.691169       -18.8077
  37   1.0000      -0.658265       -17.9123
  38   1.0000      -0.642702       -17.4888
  39   1.0000      -0.636597       -17.3227
  40   1.0000      -0.616175       -16.7670
  41   1.0000      -0.607955       -16.5433
  42   1.0000      -0.599242       -16.3062
  43   1.0000      -0.591480       -16.0950
  44   1.0000      -0.579141       -15.7592
  45   1.0000      -0.571117       -15.5409
  46   1.0000      -0.567240       -15.4354
  47   1.0000      -0.560924       -15.2635
  48   1.0000      -0.556648       -15.1472
  49   1.0000      -0.553184       -15.0529
  50   1.0000      -0.547034       -14.8856
  51   1.0000      -0.544986       -14.8298
  52   1.0000      -0.530392       -14.4327
  53   1.0000      -0.515176       -14.0186
  54   1.0000      -0.511438       -13.9169
  55   1.0000      -0.495668       -13.4878
  56   1.0000      -0.443148       -12.0587
  57   1.0000      -0.429642       -11.6911
  58   1.0000      -0.416275       -11.3274
  59   1.0000      -0.410984       -11.1834
  60   1.0000      -0.406919       -11.0728
  61   1.0000      -0.397331       -10.8119
  62   1.0000      -0.395856       -10.7718
  63   1.0000      -0.390702       -10.6315
  64   1.0000      -0.382877       -10.4186
  65   1.0000      -0.345228        -9.3941
  66   1.0000      -0.303074        -8.2471
  67   0.0000       0.001027         0.0279
  68   0.0000       0.012599         0.3428
  69   0.0000       0.030088         0.8187
  70   0.0000       0.034752         0.9457
  71   0.0000       0.040588         1.1044

                 SPIN DOWN ORBITALS
  NO   OCC          E(Eh)            E(eV)
   0   1.0000     -19.332958      -526.0765
   1   1.0000     -19.332252      -526.0573
   2   1.0000     -19.326400      -525.8981
   3   1.0000     -19.320427      -525.7356
   4   1.0000     -14.576378      -396.6434
   5   1.0000     -14.574302      -396.5869
   6   1.0000     -14.564620      -396.3235
   7   1.0000     -14.562641      -396.2696
   8   1.0000     -10.519179      -286.2414
   9   1.0000     -10.507009      -285.9102
  10   1.0000     -10.487669      -285.3840
  11   1.0000     -10.482604      -285.2461
  12   1.0000     -10.448217      -284.3104
  13   1.0000     -10.444755      -284.2162
  14   1.0000     -10.413004      -283.3523
  15   1.0000     -10.378103      -282.4026
  16   1.0000     -10.376955      -282.3713
  17   1.0000     -10.365844      -282.0690
  18   1.0000      -1.229209       -33.4485
  19   1.0000      -1.219771       -33.1917
  20   1.0000      -1.197385       -32.5825
  21   1.0000      -1.194823       -32.5128
  22   1.0000      -1.123034       -30.5593
  23   1.0000      -1.095943       -29.8221
  24   1.0000      -1.074386       -29.2355
  25   1.0000      -1.061785       -28.8926
  26   1.0000      -0.979999       -26.6671
  27   1.0000      -0.911925       -24.8147
  28   1.0000      -0.881409       -23.9844
  29   1.0000      -0.826068       -22.4785
  30   1.0000      -0.812241       -22.1022
  31   1.0000      -0.802729       -21.8434
  32   1.0000      -0.786250       -21.3950
  33   1.0000      -0.777028       -21.1440
  34   1.0000      -0.715254       -19.4631
  35   1.0000      -0.695977       -18.9385
  36   1.0000      -0.688794       -18.7430
  37   1.0000      -0.655670       -17.8417
  38   1.0000      -0.639342       -17.3974
  39   1.0000      -0.632439       -17.2095
  40   1.0000      -0.613637       -16.6979
  41   1.0000      -0.598270       -16.2798
  42   1.0000      -0.589631       -16.0447
  43   1.0000      -0.584527       -15.9058
  44   1.0000      -0.573553       -15.6072
  45   1.0000      -0.564534       -15.3617
  46   1.0000      -0.557833       -15.1794
  47   1.0000      -0.556297       -15.1376
  48   1.0000      -0.555274       -15.1098
  49   1.0000      -0.551353       -15.0031
  50   1.0000      -0.538738       -14.6598
  51   1.0000      -0.531704       -14.4684
  52   1.0000      -0.529573       -14.4104
  53   1.0000      -0.514702       -14.0058
  54   1.0000      -0.499691       -13.5973
  55   1.0000      -0.495094       -13.4722
  56   1.0000      -0.432253       -11.7622
  57   1.0000      -0.427565       -11.6346
  58   1.0000      -0.415879       -11.3166
  59   1.0000      -0.402121       -10.9423
  60   1.0000      -0.394825       -10.7437
  61   1.0000      -0.391850       -10.6628
  62   1.0000      -0.386434       -10.5154
  63   1.0000      -0.382383       -10.4052
  64   1.0000      -0.342063        -9.3080
  65   0.0000      -0.063251        -1.7212
  66   0.0000      -0.001377        -0.0375
  67   0.0000       0.012703         0.3457
  68   0.0000       0.027870         0.7584
  69   0.0000       0.032629         0.8879

----------------------------------------------------------------------------------------------------
          SPIN FLIP ABSORPTION SPECTRUM VIA TRANSITION ELECTRIC DIPOLE MOMENTS
----------------------------------------------------------------------------------------------------
     Transition      Energy     Energy  Wavelength fosc(D2)      D2        DX        DY        DZ
                      (eV)      (cm-1)    (nm)                 (au**2)    (au)      (au)      (au)
----------------------------------------------------------------------------------------------------
  1-3A  ->  2-3A    2.113164   17043.8   586.7   0.000505008   0.00975  -0.04584  -0.07574   0.04378

Dispersion correction             ... done (  0.1 sec)

MULLIKEN ATOMIC CHARGES AND SPIN DENSITIES
------------------------------------------
   0 O :   -0.671811   -0.000138
   1 O :   -0.617444   -0.030948
   2 O :   -0.646230   -0.000018
   3 O :   -0.636602   -0.000176
   4 N :   -0.249559   -0.000618
   5 N :   -0.140698    0.005717
   6 N :    0.024160   -0.000396
   7 N :    0.021839   -0.018270
   8 C :    0.994180    0.003737
   9 C :   -0.223499    0.095239
  10 C :    0.457340   -0.004553
  11 C :   -0.799370   -0.081823
  12 C :   -1.563084    0.017934
  13 C :   -0.815137    0.198748
  14 C :    0.284105    0.002434
  15 C :    0.813067   -0.153723
  16 C :    0.424412    0.000741
  17 C :    0.474510    0.015476
  18 H :    0.331456    0.001931
  19 H :    0.440203   -0.010197
  20 H :    0.283957   -0.000682
  21 H :    0.312156   -0.013421
  22 H :    0.407370   -0.004881
  23 H :    0.280445   -0.012749
  24 H :    0.270178   -0.001352
  25 H :    0.349036   -0.010991
  26 H :    0.043777   -0.000327
  27 H :    0.095872   -0.002306
  28 H :    0.033384    0.000021
  29 H :    0.021985    0.005591
Sum of atomic charges       :   -0.0000000

LOEWDIN ATOMIC CHARGES AND SPIN DENSITIES
-----------------------------------------
   0 O :    0.102727   -0.000325
   1 O :    0.094949   -0.034649
   2 O :    0.091851    0.000014
   3 O :    0.103672   -0.000802
   4 N :    0.281371   -0.000113
   5 N :    0.258093   -0.000023
   6 N :    0.336132   -0.000132
   7 N :    0.342186    0.000523
   8 C :   -0.088494   -0.001387
   9 C :    0.150205    0.054932
  10 C :   -0.128646   -0.000208
  11 C :    0.062647   -0.001860
  12 C :    0.175026   -0.005072
  13 C :    0.107862    0.002476
  14 C :   -0.402507   -0.000178
  15 C :   -0.519807   -0.008009
  16 C :   -0.485787   -0.000018
  17 C :   -0.461631   -0.000289
  18 H :    0.054856    0.000018
  19 H :   -0.017151   -0.001525
  20 H :   -0.005001   -0.001570
  21 H :   -0.005455   -0.001676
  22 H :    0.007099   -0.000625
  23 H :    0.004894    0.001652
  24 H :   -0.015489   -0.000643
  25 H :    0.020753   -0.000525
  26 H :   -0.027113   -0.000011
  27 H :   -0.025936   -0.000052
  28 H :   -0.006451   -0.000012
  29 H :   -0.004856    0.000089

  Mayer bond orders larger than 0.100000
B(  0-O ,  8-C ) :  -0.1052 B(  0-O , 14-C ) :   1.5158 B(  1-O ,  9-C ) :   0.3007
B(  1-O , 15-C ) :   1.1622 B(  2-O , 16-C ) :   1.5786 B(  3-O , 17-C ) :   1.5056
B(  4-N ,  8-C ) :   0.1920 B(  4-N , 10-C ) :   0.3972 B(  4-N , 16-C ) :   1.1002
B(  4-N , 26-H ) :   1.1107 B(  5-N , 11-C ) :   0.6667 B(  5-N , 17-C ) :   0.9790
B(  5-N , 19-H ) :  -0.1481 B(  5-N , 27-H ) :   1.0356 B(  6-N , 10-C ) :   0.1621
B(  6-N , 14-C ) :   1.0476 B(  6-N , 16-C ) :   0.9488 B(  6-N , 28-H ) :   1.1078
B(  7-N , 15-C ) :   0.9687 B(  7-N , 17-C ) :   0.9557 B(  7-N , 29-H ) :   1.1330
B(  8-C , 10-C ) :   0.5576 B(  8-C , 11-C ) :   0.5439 B(  8-C , 12-C ) :   0.3093
B(  8-C , 14-C ) :   0.6548 B(  8-C , 18-H ) :  -0.1215 B(  8-C , 19-H ) :  -0.1278
B(  8-C , 20-H ) :  -0.1224 B(  9-C , 13-C ) :   0.5016 B(  9-C , 15-C ) :   0.6451
B( 10-C , 11-C ) :   0.7698 B( 10-C , 12-C ) :  -0.1398 B( 10-C , 14-C ) :  -0.1303
B( 10-C , 16-C ) :  -0.1146 B( 10-C , 18-H ) :   1.0525 B( 11-C , 14-C ) :   0.1719
B( 11-C , 17-C ) :  -0.1226 B( 11-C , 19-H ) :   0.9818 B( 12-C , 20-H ) :   1.0562
B( 12-C , 21-H ) :   0.9993 B( 12-C , 22-H ) :   0.7633 B( 13-C , 23-H ) :   0.9652
B( 13-C , 24-H ) :   1.0315 B( 13-C , 25-H ) :   0.8645

Dispersion correction           -0.056295508
FINAL SINGLE POINT ENERGY      -908.710057758518

DIPOLE MOMENT
-------------

Method             : TDA/CIS
Type of density    : Electron Density
Level              : Relaxed density
State              :   1
Multiplicity       :   3
Irrep              :   0
Energy             :     0.0000000000000000 Eh
Relativity type    :
Basis              : AO
                                X                 Y                 Z
Electronic contribution:     -0.175046414      -9.871852288      -6.151893992
Nuclear contribution   :     -0.614647801      10.865674566       8.556946345
                        -----------------------------------------
Total Dipole Moment    :     -0.789694214       0.993822278       2.405052353
                        -----------------------------------------
Magnitude (a.u.)       :      2.719480924
Magnitude (Debye)      :      6.912371173

Rotational constants in cm-1:             0.022546             0.011942             0.010919
Rotational constants in MHz :           675.926591           358.019519           327.353544

                             ****ORCA TERMINATED NORMALLY****
TOTAL RUN TIME: 0 days 0 hours 5 minutes 23 seconds 804 msec
