                         Program Version 6.0.0  -   RELEASE  -
|  1> ! Opt wB97M-D3BJ def2-TZVPPD
|  2> %pal nprocs 8 end %pal nprocs 64 end
|  3> %geom
|  4> Constraints
|  5>     {A 2 1 0 70.0 C }
|  6> end
|  7> MaxIter 500
|  8> end
|  9> *xyz 0 1
| 10> O   -0.0007 0.8141 0.0
| 11> C   0.7509 -0.4065 0.0
| 12> C   -0.7502 -0.4076 0.0
| 13> H   1.2625 -0.6786 0.9136
| 14> H   1.2625 -0.6787 -0.9136
| 15> H   -1.2614 -0.6806 -0.9136
| 16> H   -1.2614 -0.6805 0.9136
| 17> *
| 18>
| 19>                          ****END OF INPUT****
 Total Charge           Charge          ....    0
 Multiplicity           Mult            ....    1
 Number of Electrons    NEL             ....   24
Dispersion correction           -0.005260141
FINAL SINGLE POINT ENERGY      -153.871528308254
Dispersion correction             ... done (  0.1 sec)
Dispersion correction           -0.005242127
FINAL SINGLE POINT ENERGY      -153.874962770839
Dispersion correction             ... done (  0.1 sec)
Dispersion correction           -0.005236341
FINAL SINGLE POINT ENERGY      -153.875886502817
Dispersion correction             ... done (  0.1 sec)
FINAL SINGLE POINT ENERGY      -153.876006623812
Dispersion correction             ... done (  0.1 sec)
Dispersion correction           -0.005237956
FINAL SINGLE POINT ENERGY      -153.876061334406
Dispersion correction             ... done (  0.1 sec)
Dispersion correction           -0.005239002
FINAL SINGLE POINT ENERGY      -153.876067191247
Dispersion correction             ... done (  0.1 sec)
                    ***********************HURRAY********************

CARTESIAN COORDINATES (ANGSTROEM)
---------------------------------
  O      0.093492    0.844582   -0.000113
  C      0.687558   -0.389459    0.000184
  C     -0.728118   -0.530915   -0.000248
  H      1.237086   -0.652780    0.903007
  H      1.236678   -0.653197   -0.902844
  H     -1.262565   -0.668606   -0.925545
  H     -1.261931   -0.668025    0.925558

 Multiplicity           Mult            ....    1
 Number of Electrons    NEL             ....   24
 Basis Dimension        Dim             ....  182

ORBITAL ENERGIES
----------------

  NO   OCC          E(Eh)            E(eV)
   0   2.0000     -19.348562      -526.5012
   1   2.0000     -10.405959      -283.1605
   2   2.0000     -10.396826      -282.9120
   3   2.0000      -1.185266       -32.2527
   4   2.0000      -0.826888       -22.5008
   5   2.0000      -0.746053       -20.3011
   6   2.0000      -0.629346       -17.1254
   7   2.0000      -0.591910       -16.1067
   8   2.0000      -0.498074       -13.5533
   9   2.0000      -0.493074       -13.4172
  10   2.0000      -0.423308       -11.5188
  11   2.0000      -0.380134       -10.3440
  12   0.0000       0.040700         1.1075
  13   0.0000       0.057928         1.5763
  14   0.0000       0.067758         1.8438
  15   0.0000       0.077319         2.1040
  16   0.0000       0.111565         3.0358

MULLIKEN ATOMIC CHARGES
-----------------------
   0 O :   -0.403803
   1 C :   -0.121450
   2 C :   -0.239199
   3 H :    0.193554
   4 H :    0.193463
   5 H :    0.188721
   6 H :    0.188715
Sum of atomic charges:   -0.0000000

LOEWDIN ATOMIC CHARGES
----------------------
   0 O :   -0.029257
   1 C :   -0.164038
   2 C :    0.144124
   3 H :    0.021674
   4 H :    0.021674
   5 H :    0.002917
   6 H :    0.002907

  Mayer bond orders larger than 0.100000
B(  0-O ,  1-C ) :   0.7489 B(  0-O ,  2-C ) :   0.8868 B(  1-C ,  2-C ) :   0.8068
B(  1-C ,  3-H ) :   1.0405 B(  1-C ,  4-H ) :   1.0406 B(  2-C ,  5-H ) :   0.9913
B(  2-C ,  6-H ) :   0.9914

Dispersion correction           -0.005239553
FINAL SINGLE POINT ENERGY      -153.876068333117

DIPOLE MOMENT
-------------

Method             : SCF
Type of density    : Electron Density
Multiplicity       :   1
Irrep              :   0
Energy             :  -153.8708287798686740 Eh
Relativity type    :
Basis              : AO
                                X                 Y                 Z
Electronic contribution:      0.012392497       1.569272535      -0.000306973
Nuclear contribution   :     -0.128098064      -2.449132946       0.000368392
                        -----------------------------------------
Total Dipole Moment    :     -0.115705567      -0.879860411       0.000061419
                        -----------------------------------------
Magnitude (a.u.)       :      0.887435702
Magnitude (Debye)      :      2.255682292

Rotational constants in cm-1:             0.886162             0.686447             0.457593
Rotational constants in MHz :         26566.469358         20579.167428         13718.283351

                             ****ORCA TERMINATED NORMALLY****
TOTAL RUN TIME: 0 days 0 hours 1 minutes 34 seconds 653 msec
