                         Program Version 6.0.0  -   RELEASE  -
|  1> ! Engrad def2-TZVPPD wB97M-D3BJ
|  2> %pal nprocs 8 end%pal nprocs 64 end
|  3> %tddft
|  4>  Iroot 1 Nroots 3
|  5> sf true
|  6> end
|  7> *xyz 0 3
|  8> O   3.55862491 0.36574095 0.51401407
|  9> O   -0.86355589 0.88790075 -2.90576811
| 10> O   0.64328233 -2.78565776 -1.04621579
| 11> O   -3.81753194 -0.77527361 -0.03901181
| 12> N   -0.04188102 -1.45973861 0.6738021
| 13> N   -2.16909771 0.5279859 0.87313042
| 14> N   2.16019616 -1.24083363 -0.15295798
| 15> N   -2.07969301 -0.26536672 -1.40633809
| 16> C   1.48124061 0.26152784 1.55557757
| 17> C   -0.38908469 1.23506284 -0.57509573
| 18> C   0.10423593 -0.17755687 1.37684883
| 19> C   -0.80329513 0.97828049 0.80230466
| 20> C   1.87002784 1.30708096 2.46067398
| 21> C   0.75128318 2.18850125 -0.74783055
| 22> C   2.50114562 -0.23098757 0.64106467
| 23> C   -1.10457647 0.68139223 -1.70923406
| 24> C   0.88420591 -1.94063964 -0.2198625
| 25> C   -2.77913142 -0.17756089 -0.15169062
| 26> H   -0.34398486 -0.26536296 2.40058285
| 27> H   -0.68125635 1.94938696 1.37426307
| 28> H   2.33067119 2.11687409 1.95568421
| 29> H   1.02929731 1.55632328 3.1292825
| 30> H   2.664024 0.84332454 3.09200256
| 31> H   1.74131169 1.73457693 -0.81093232
| 32> H   0.57300587 2.91600866 -1.57616213
| 33> H   0.86743548 2.81464671 0.09943966
| 34> H   -0.93845374 -1.9403288 0.58834852
| 35> H   -2.59381751 0.37683523 1.77670683
| 36> H   2.92128094 -1.45392609 -0.90388263
| 37> H   -2.63995528 -0.42935951 -2.20517325
| 38> *
| 39>
| 40>                          ****END OF INPUT****

CARTESIAN COORDINATES (ANGSTROEM)
---------------------------------
  O      3.558625    0.365741    0.514014
  O     -0.863556    0.887901   -2.905768
  O      0.643282   -2.785658   -1.046216
  O     -3.817532   -0.775274   -0.039012
  N     -0.041881   -1.459739    0.673802
  N     -2.169098    0.527986    0.873130
  N      2.160196   -1.240834   -0.152958
  N     -2.079693   -0.265367   -1.406338
  C      1.481241    0.261528    1.555578
  C     -0.389085    1.235063   -0.575096
  C      0.104236   -0.177557    1.376849
  C     -0.803295    0.978280    0.802305
  C      1.870028    1.307081    2.460674
  C      0.751283    2.188501   -0.747831
  C      2.501146   -0.230988    0.641065
  C     -1.104576    0.681392   -1.709234
  C      0.884206   -1.940640   -0.219862
  C     -2.779131   -0.177561   -0.151691
  H     -0.343985   -0.265363    2.400583
  H     -0.681256    1.949387    1.374263
  H      2.330671    2.116874    1.955684
  H      1.029297    1.556323    3.129282
  H      2.664024    0.843325    3.092003
  H      1.741312    1.734577   -0.810932
  H      0.573006    2.916009   -1.576162
  H      0.867435    2.814647    0.099440
  H     -0.938454   -1.940329    0.588349
  H     -2.593818    0.376835    1.776707
  H      2.921281   -1.453926   -0.903883
  H     -2.639955   -0.429360   -2.205173

 Total Charge           Charge          ....    0
 Multiplicity           Mult            ....    3
 Number of Electrons    NEL             ....  132
 Basis Dimension        Dim             ....  882

ORBITAL ENERGIES
----------------
                 SPIN UP ORBITALS
  NO   OCC          E(Eh)            E(eV)
   0   1.0000     -19.332029      -526.0513
   1   1.0000     -19.331989      -526.0502
   2   1.0000     -19.328343      -525.9510
   3   1.0000     -19.325263      -525.8671
   4   1.0000     -14.572140      -396.5281
   5   1.0000     -14.571855      -396.5203
   6   1.0000     -14.570328      -396.4788
   7   1.0000     -14.558849      -396.1664
   8   1.0000     -10.518649      -286.2270
   9   1.0000     -10.514253      -286.1074
  10   1.0000     -10.478324      -285.1297
  11   1.0000     -10.472964      -284.9838
  12   1.0000     -10.452655      -284.4312
  13   1.0000     -10.451040      -284.3872
  14   1.0000     -10.420817      -283.5649
  15   1.0000     -10.409603      -283.2597
  16   1.0000     -10.375465      -282.3307
  17   1.0000     -10.370476      -282.1950
  18   1.0000      -1.223879       -33.3035
  19   1.0000      -1.220494       -33.2113
  20   1.0000      -1.198664       -32.6173
  21   1.0000      -1.189507       -32.3681
  22   1.0000      -1.124949       -30.6114
  23   1.0000      -1.099489       -29.9186
  24   1.0000      -1.062943       -28.9242
  25   1.0000      -1.056113       -28.7383
  26   1.0000      -0.994722       -27.0678
  27   1.0000      -0.963031       -26.2054
  28   1.0000      -0.892712       -24.2919
  29   1.0000      -0.844221       -22.9724
  30   1.0000      -0.826815       -22.4988
  31   1.0000      -0.798002       -21.7147
  32   1.0000      -0.788454       -21.4549
  33   1.0000      -0.778507       -21.1842
  34   1.0000      -0.702582       -19.1182
  35   1.0000      -0.693656       -18.8753
  36   1.0000      -0.686943       -18.6927
  37   1.0000      -0.684669       -18.6308
  38   1.0000      -0.659929       -17.9576
  39   1.0000      -0.635732       -17.2991
  40   1.0000      -0.625401       -17.0180
  41   1.0000      -0.606892       -16.5144
  42   1.0000      -0.601738       -16.3741
  43   1.0000      -0.584482       -15.9046
  44   1.0000      -0.578479       -15.7412
  45   1.0000      -0.570364       -15.5204
  46   1.0000      -0.567378       -15.4391
  47   1.0000      -0.565581       -15.3902
  48   1.0000      -0.559742       -15.2314
  49   1.0000      -0.557902       -15.1813
  50   1.0000      -0.548701       -14.9309
  51   1.0000      -0.537935       -14.6380
  52   1.0000      -0.532968       -14.5028
  53   1.0000      -0.528361       -14.3774
  54   1.0000      -0.515663       -14.0319
  55   1.0000      -0.509830       -13.8732
  56   1.0000      -0.492299       -13.3961
  57   1.0000      -0.429626       -11.6907
  58   1.0000      -0.425844       -11.5878
  59   1.0000      -0.410727       -11.1764
  60   1.0000      -0.408636       -11.1195
  61   1.0000      -0.401585       -10.9277
  62   1.0000      -0.398061       -10.8318
  63   1.0000      -0.389964       -10.6115
  64   1.0000      -0.385773       -10.4974
  65   1.0000      -0.351569        -9.5667
  66   1.0000      -0.318939        -8.6788
  67   0.0000       0.006586         0.1792
  68   0.0000       0.029957         0.8152
  69   0.0000       0.032522         0.8850
  70   0.0000       0.035122         0.9557
  71   0.0000       0.053857         1.4655

                 SPIN DOWN ORBITALS
  NO   OCC          E(Eh)            E(eV)
   0   1.0000     -19.331968      -526.0496
   1   1.0000     -19.328270      -525.9490
   2   1.0000     -19.327198      -525.9198
   3   1.0000     -19.322105      -525.7812
   4   1.0000     -14.571625      -396.5141
   5   1.0000     -14.571243      -396.5037
   6   1.0000     -14.570374      -396.4800
   7   1.0000     -14.558335      -396.1524
   8   1.0000     -10.518698      -286.2283
   9   1.0000     -10.514294      -286.1085
  10   1.0000     -10.479482      -285.1612
  11   1.0000     -10.473728      -285.0046
  12   1.0000     -10.452233      -284.4197
  13   1.0000     -10.450360      -284.3688
  14   1.0000     -10.409583      -283.2591
  15   1.0000     -10.398299      -282.9521
  16   1.0000     -10.375985      -282.3449
  17   1.0000     -10.371032      -282.2101
  18   1.0000      -1.222989       -33.2792
  19   1.0000      -1.219461       -33.1832
  20   1.0000      -1.194869       -32.5140
  21   1.0000      -1.183411       -32.2022
  22   1.0000      -1.122087       -30.5336
  23   1.0000      -1.097472       -29.8637
  24   1.0000      -1.060592       -28.8602
  25   1.0000      -1.054418       -28.6922
  26   1.0000      -0.982016       -26.7220
  27   1.0000      -0.946023       -25.7426
  28   1.0000      -0.886694       -24.1282
  29   1.0000      -0.838967       -22.8294
  30   1.0000      -0.817345       -22.2411
  31   1.0000      -0.791819       -21.5465
  32   1.0000      -0.787046       -21.4166
  33   1.0000      -0.776730       -21.1359
  34   1.0000      -0.698685       -19.0122
  35   1.0000      -0.688333       -18.7305
  36   1.0000      -0.680873       -18.5275
  37   1.0000      -0.678621       -18.4662
  38   1.0000      -0.645445       -17.5635
  39   1.0000      -0.631285       -17.1781
  40   1.0000      -0.621922       -16.9234
  41   1.0000      -0.598714       -16.2918
  42   1.0000      -0.595946       -16.2165
  43   1.0000      -0.580473       -15.7955
  44   1.0000      -0.571951       -15.5636
  45   1.0000      -0.565921       -15.3995
  46   1.0000      -0.562585       -15.3087
  47   1.0000      -0.557292       -15.1647
  48   1.0000      -0.553249       -15.0547
  49   1.0000      -0.547200       -14.8901
  50   1.0000      -0.539897       -14.6913
  51   1.0000      -0.529620       -14.4117
  52   1.0000      -0.526207       -14.3188
  53   1.0000      -0.521508       -14.1909
  54   1.0000      -0.508424       -13.8349
  55   1.0000      -0.503243       -13.6939
  56   1.0000      -0.486785       -13.2461
  57   1.0000      -0.425836       -11.5876
  58   1.0000      -0.421599       -11.4723
  59   1.0000      -0.407114       -11.0781
  60   1.0000      -0.395695       -10.7674
  61   1.0000      -0.393529       -10.7085
  62   1.0000      -0.388427       -10.5696
  63   1.0000      -0.384839       -10.4720
  64   1.0000      -0.377878       -10.2826
  65   0.0000      -0.066429        -1.8076
  66   0.0000      -0.045489        -1.2378
  67   0.0000       0.006321         0.1720
  68   0.0000       0.029250         0.7959
  69   0.0000       0.032286         0.8785

----------------------------------------------------------------------------------------------------
          SPIN FLIP ABSORPTION SPECTRUM VIA TRANSITION ELECTRIC DIPOLE MOMENTS
----------------------------------------------------------------------------------------------------
     Transition      Energy     Energy  Wavelength fosc(D2)      D2        DX        DY        DZ
                      (eV)      (cm-1)    (nm)                 (au**2)    (au)      (au)      (au)
----------------------------------------------------------------------------------------------------
  1-3A  ->  2-3A    0.128081    1033.0  9680.1   0.000048018   0.01530  -0.09865   0.03227  -0.06731
  1-3A  ->  3-3A    2.077469   16755.9   596.8   0.003531952   0.06939  -0.06548   0.12490  -0.22250

Dispersion correction             ... done (  0.1 sec)

MULLIKEN ATOMIC CHARGES AND SPIN DENSITIES
------------------------------------------
   0 O :   -0.695887   -0.021676
   1 O :   -0.689421    0.034724
   2 O :   -0.613970   -0.001000
   3 O :   -0.628752   -0.000445
   4 N :   -0.193133   -0.006727
   5 N :   -0.285081   -0.002156
   6 N :   -0.118872   -0.007285
   7 N :    0.086644    0.005082
   8 C :    0.517946    0.324919
   9 C :    0.560208    0.386538
  10 C :    0.144183   -0.234084
  11 C :    0.395484   -0.148914
  12 C :   -1.432453   -0.037666
  13 C :   -1.437781   -0.006664
  14 C :    0.157382   -0.188419
  15 C :    0.195134   -0.140085
  16 C :    0.410123    0.015640
  17 C :    0.265399    0.006854
  18 H :    0.489651   -0.030829
  19 H :    0.491681    0.005197
  20 H :    0.302515    0.006947
  21 H :    0.368562   -0.000734
  22 H :    0.374913    0.005355
  23 H :    0.251607    0.020692
  24 H :    0.338479    0.003003
  25 H :    0.320968    0.006318
  26 H :    0.096466    0.000122
  27 H :    0.084091    0.001190
  28 H :    0.147391    0.003341
  29 H :    0.096521    0.000762
Sum of atomic charges       :   -0.0000000

LOEWDIN ATOMIC CHARGES AND SPIN DENSITIES
-----------------------------------------
   0 O :    0.063717   -0.018541
   1 O :    0.072814    0.030949
   2 O :    0.100372   -0.000755
   3 O :    0.090680   -0.000493
   4 N :    0.291382   -0.000660
   5 N :    0.272763   -0.001410
   6 N :    0.302726   -0.007735
   7 N :    0.330755    0.002226
   8 C :   -0.078058   -0.086638
   9 C :   -0.021576    0.103060
  10 C :   -0.109925   -0.010082
  11 C :   -0.140269    0.002171
  12 C :    0.172756   -0.015415
  13 C :    0.217578    0.013183
  14 C :   -0.495254   -0.018414
  15 C :   -0.388013    0.012685
  16 C :   -0.435335   -0.000201
  17 C :   -0.455968   -0.000552
  18 H :    0.075884   -0.003642
  19 H :    0.087362    0.001529
  20 H :   -0.013905   -0.003214
  21 H :    0.017182    0.000245
  22 H :    0.041691   -0.004875
  23 H :    0.005247    0.004578
  24 H :    0.038105    0.002053
  25 H :   -0.036616    0.000490
  26 H :   -0.016236   -0.000088
  27 H :   -0.024232   -0.000348
  28 H :    0.076904   -0.000418
  29 H :   -0.042531    0.000314

  Mayer bond orders larger than 0.100000
B(  0-O , 14-C ) :   1.4371 B(  1-O , 15-C ) :   1.2433 B(  2-O , 16-C ) :   1.5794
B(  3-O , 17-C ) :   1.6176 B(  4-N ,  8-C ) :   0.1328 B(  4-N , 10-C ) :   0.5433
B(  4-N , 16-C ) :   1.1048 B(  4-N , 26-H ) :   1.0091 B(  5-N ,  9-C ) :   0.2451
B(  5-N , 10-C ) :   0.1083 B(  5-N , 11-C ) :   0.1253 B(  5-N , 17-C ) :   1.1670
B(  5-N , 27-H ) :   1.0626 B(  6-N ,  8-C ) :  -0.1373 B(  6-N , 10-C ) :   0.1073
B(  6-N , 14-C ) :   1.1344 B(  6-N , 16-C ) :   0.9315 B(  6-N , 28-H ) :   1.0330
B(  7-N , 15-C ) :   1.1031 B(  7-N , 17-C ) :   0.9811 B(  7-N , 29-H ) :   0.9771
B(  8-C ,  9-C ) :   0.1640 B(  8-C , 10-C ) :   0.6330 B(  8-C , 11-C ) :   0.2646
B(  8-C , 12-C ) :   0.2280 B(  8-C , 14-C ) :   0.6120 B(  8-C , 18-H ) :  -0.1522
B(  8-C , 21-H ) :  -0.1602 B(  9-C , 10-C ) :   0.1644 B(  9-C , 11-C ) :   0.2056
B(  9-C , 13-C ) :   0.2623 B(  9-C , 15-C ) :   0.9501 B(  9-C , 19-H ) :  -0.1396
B(  9-C , 25-H ) :  -0.1346 B( 10-C , 11-C ) :   0.6156 B( 10-C , 16-C ) :  -0.1205
B( 10-C , 18-H ) :   0.8162 B( 10-C , 19-H ) :  -0.1192 B( 11-C , 13-C ) :  -0.2581
B( 11-C , 17-C ) :  -0.2717 B( 11-C , 18-H ) :  -0.1032 B( 11-C , 19-H ) :   0.9129
B( 12-C , 20-H ) :   0.8806 B( 12-C , 21-H ) :   1.0444 B( 12-C , 22-H ) :   0.8842
B( 13-C , 14-C ) :   0.1059 B( 13-C , 23-H ) :   0.8962 B( 13-C , 24-H ) :   0.9680
B( 13-C , 25-H ) :   1.0754 B( 15-C , 17-C ) :  -0.1103

Dispersion correction           -0.059658535
FINAL SINGLE POINT ENERGY      -908.780690523281

DIPOLE MOMENT
-------------

Method             : TDA/CIS
Type of density    : Electron Density
Level              : Relaxed density
State              :   1
Multiplicity       :   3
Irrep              :   0
Energy             :     0.0000000000000000 Eh
Relativity type    :
Basis              : AO
                                X                 Y                 Z
Electronic contribution:     -4.763544244      -8.765894052      -6.118077167
Nuclear contribution   :      4.710216847      10.043877489       8.568006232
                        -----------------------------------------
Total Dipole Moment    :     -0.053327397       1.277983438       2.449929065
                        -----------------------------------------
Magnitude (a.u.)       :      2.763736221
Magnitude (Debye)      :      7.024859200

Rotational constants in cm-1:             0.021999             0.012223             0.011646
Rotational constants in MHz :           659.501692           366.434331           349.139748

                             ****ORCA TERMINATED NORMALLY****
TOTAL RUN TIME: 0 days 0 hours 5 minutes 7 seconds 482 msec
