                         Program Version 6.0.0  -   RELEASE  -
|  1> ! Engrad def2-TZVPPD wB97M-D3BJ
|  2> %pal nprocs 8 end%pal nprocs 64 end
|  3> %tddft
|  4>  Iroot 2 Nroots 3
|  5> sf true
|  6> end
|  7> *xyz 0 3
|  8> O   1.02537976 0.77092712 -0.5737874
|  9> C   0.09513755 -0.19951515 -0.26752461
| 10> C   0.09635822 -0.46065018 1.16481716
| 11> H   0.35104385 -0.91603991 -0.9691091
| 12> H   -0.84118825 0.11762202 -0.75374555
| 13> H   0.76744026 -1.29264334 1.66885987
| 14> H   -0.13564214 0.42054053 1.68701047
| 15> *
| 16>
| 17>                          ****END OF INPUT****

CARTESIAN COORDINATES (ANGSTROEM)
---------------------------------
  O      1.025380    0.770927   -0.573787
  C      0.095138   -0.199515   -0.267525
  C      0.096358   -0.460650    1.164817
  H      0.351044   -0.916040   -0.969109
  H     -0.841188    0.117622   -0.753746
  H      0.767440   -1.292643    1.668860
  H     -0.135642    0.420541    1.687010

 Total Charge           Charge          ....    0
 Multiplicity           Mult            ....    3
 Number of Electrons    NEL             ....   24
 Basis Dimension        Dim             ....  182

ORBITAL ENERGIES
----------------
                 SPIN UP ORBITALS
  NO   OCC          E(Eh)            E(eV)
   0   1.0000     -19.384584      -527.4814
   1   1.0000     -10.403515      -283.0940
   2   1.0000     -10.373525      -282.2780
   3   1.0000      -1.168526       -31.7972
   4   1.0000      -0.877247       -23.8711
   5   1.0000      -0.749596       -20.3976
   6   1.0000      -0.619289       -16.8517
   7   1.0000      -0.580552       -15.7976
   8   1.0000      -0.549739       -14.9592
   9   1.0000      -0.516698       -14.0601
  10   1.0000      -0.428613       -11.6632
  11   1.0000      -0.420116       -11.4319
  12   1.0000      -0.331398        -9.0178
  13   0.0000       0.040781         1.1097
  14   0.0000       0.060729         1.6525
  15   0.0000       0.077436         2.1071
  16   0.0000       0.087684         2.3860
  17   0.0000       0.114458         3.1146

                 SPIN DOWN ORBITALS
  NO   OCC          E(Eh)            E(eV)
   0   1.0000     -19.359453      -526.7975
   1   1.0000     -10.404429      -283.1189
   2   1.0000     -10.360435      -281.9218
   3   1.0000      -1.114014       -30.3138
   4   1.0000      -0.842962       -22.9382
   5   1.0000      -0.725416       -19.7396
   6   1.0000      -0.582766       -15.8579
   7   1.0000      -0.552310       -15.0291
   8   1.0000      -0.523177       -14.2364
   9   1.0000      -0.481054       -13.0901
  10   1.0000      -0.385451       -10.4887
  11   0.0000      -0.047652        -1.2967
  12   0.0000      -0.005502        -0.1497
  13   0.0000       0.039960         1.0874
  14   0.0000       0.062041         1.6882
  15   0.0000       0.078001         2.1225

----------------------------------------------------------------------------------------------------
          SPIN FLIP ABSORPTION SPECTRUM VIA TRANSITION ELECTRIC DIPOLE MOMENTS
----------------------------------------------------------------------------------------------------
     Transition      Energy     Energy  Wavelength fosc(D2)      D2        DX        DY        DZ
                      (eV)      (cm-1)    (nm)                 (au**2)    (au)      (au)      (au)
----------------------------------------------------------------------------------------------------
  1-3A  ->  2-3A    0.196245    1582.8  6317.8   0.000395791   0.08232   0.08202   0.08619  -0.26108
  1-3A  ->  3-3A    0.924692    7458.1  1340.8   0.001390044   0.06136  -0.10148  -0.19505   0.11410

Dispersion correction             ... done (  0.2 sec)

MULLIKEN ATOMIC CHARGES AND SPIN DENSITIES
------------------------------------------
   0 O :   -0.343234    0.594267
   1 C :    0.058270    0.205637
   2 C :   -0.472825   -0.712371
   3 H :    0.211417    0.014778
   4 H :    0.186363    0.019249
   5 H :    0.165494   -0.079553
   6 H :    0.194514   -0.042008
Sum of atomic charges       :   -0.0000000

LOEWDIN ATOMIC CHARGES AND SPIN DENSITIES
-----------------------------------------
   0 O :    0.054721    0.558033
   1 C :   -0.267116    0.007274
   2 C :    0.280547   -0.492345
   3 H :   -0.031186    0.012018
   4 H :    0.045869    0.030841
   5 H :    0.012353   -0.052361
   6 H :   -0.095188   -0.063461

  Mayer bond orders larger than 0.100000
B(  0-O ,  1-C ) :   0.8594 B(  0-O ,  2-C ) :   0.1125 B(  1-C ,  2-C ) :   0.6772
B(  1-C ,  3-H ) :   0.9653 B(  1-C ,  4-H ) :   0.9340 B(  2-C ,  5-H ) :   1.0302
B(  2-C ,  6-H ) :   1.0535

Dispersion correction           -0.005541965
FINAL SINGLE POINT ENERGY      -153.733188893254

DIPOLE MOMENT
-------------

Method             : TDA/CIS
Type of density    : Electron Density
Level              : Relaxed density
State              :   2
Multiplicity       :   3
Irrep              :   0
Energy             :     0.0000000000000000 Eh
Relativity type    :
Basis              : AO
                                X                 Y                 Z
Electronic contribution:      1.057659295       1.377387464      -1.173565526
Nuclear contribution   :     -1.463846275      -1.788540877       1.246186180
                        -----------------------------------------
Total Dipole Moment    :     -0.406186980      -0.411153413       0.072620654
                        -----------------------------------------
Magnitude (a.u.)       :      0.582502147
Magnitude (Debye)      :      1.480602792

Rotational constants in cm-1:             1.335267             0.372537             0.324692
Rotational constants in MHz :         40030.304356         11168.385398          9734.018179

                             ****ORCA TERMINATED NORMALLY****
TOTAL RUN TIME: 0 days 0 hours 0 minutes 26 seconds 128 msec
