                         Program Version 6.0.0  -   RELEASE  -
|  1> ! Engrad def2-TZVPPD wB97M-D3BJ
|  2> %pal nprocs 8 end%pal nprocs 64 end
|  3> %tddft
|  4>  Iroot 1 Nroots 3
|  5> sf true
|  6> end
|  7> *xyz 0 3
|  8> O   2.73103224 -0.95756807 -2.30454365
|  9> O   -2.26548846 1.32599629 -1.59346416
| 10> O   -0.8624316 -2.95993141 -0.63663071
| 11> O   -2.75668069 0.65947681 2.77861218
| 12> N   0.08700578 -1.33360523 0.61732769
| 13> N   -0.63779316 0.94208296 2.03315387
| 14> N   0.75938657 -1.6839611 -1.60878065
| 15> N   -2.40497916 0.45265255 0.55547036
| 16> C   2.21608938 -0.3143599 -0.11914402
| 17> C   -0.29630583 1.42364881 -0.29441138
| 18> C   1.0869507 -0.28780335 0.83449876
| 19> C   0.29012395 1.07534349 0.96577865
| 20> C   3.63145997 0.06900388 0.30083105
| 21> C   0.48557595 2.17403486 -1.31683258
| 22> C   1.93650862 -0.94858636 -1.40116106
| 23> C   -1.73918844 1.09120648 -0.50877724
| 24> C   -0.09268213 -2.02291958 -0.53385562
| 25> C   -1.98235305 0.72134912 1.86626046
| 26> H   1.57249824 -0.45297744 1.78851617
| 27> H   1.03603114 1.82468813 1.25569543
| 28> H   4.08051605 0.17109461 -0.59747118
| 29> H   3.80551794 0.91395803 1.01401832
| 30> H   3.99238577 -0.85570928 0.72662376
| 31> H   0.03188434 2.07718027 -2.29299118
| 32> H   0.49304968 3.20948834 -0.97463965
| 33> H   1.47197657 1.79677964 -1.29131561
| 34> H   -0.78300039 -1.48664938 1.13124637
| 35> H   -0.33903004 1.01578038 3.04763756
| 36> H   0.74486175 -2.25270019 -2.41843056
| 37> H   -3.38023301 0.43048984 0.39914069
| 38> *
| 39>
| 40>                          ****END OF INPUT****

CARTESIAN COORDINATES (ANGSTROEM)
---------------------------------
  O      2.731032   -0.957568   -2.304544
  O     -2.265488    1.325996   -1.593464
  O     -0.862432   -2.959931   -0.636631
  O     -2.756681    0.659477    2.778612
  N      0.087006   -1.333605    0.617328
  N     -0.637793    0.942083    2.033154
  N      0.759387   -1.683961   -1.608781
  N     -2.404979    0.452653    0.555470
  C      2.216089   -0.314360   -0.119144
  C     -0.296306    1.423649   -0.294411
  C      1.086951   -0.287803    0.834499
  C      0.290124    1.075343    0.965779
  C      3.631460    0.069004    0.300831
  C      0.485576    2.174035   -1.316833
  C      1.936509   -0.948586   -1.401161
  C     -1.739188    1.091206   -0.508777
  C     -0.092682   -2.022920   -0.533856
  C     -1.982353    0.721349    1.866260
  H      1.572498   -0.452977    1.788516
  H      1.036031    1.824688    1.255695
  H      4.080516    0.171095   -0.597471
  H      3.805518    0.913958    1.014018
  H      3.992386   -0.855709    0.726624
  H      0.031884    2.077180   -2.292991
  H      0.493050    3.209488   -0.974640
  H      1.471977    1.796780   -1.291316
  H     -0.783000   -1.486649    1.131246
  H     -0.339030    1.015780    3.047638
  H      0.744862   -2.252700   -2.418431
  H     -3.380233    0.430490    0.399141

 Total Charge           Charge          ....    0
 Multiplicity           Mult            ....    3
 Number of Electrons    NEL             ....  132
 Basis Dimension        Dim             ....  882

ORBITAL ENERGIES
----------------
                 SPIN UP ORBITALS
  NO   OCC          E(Eh)            E(eV)
   0   1.0000     -19.337889      -526.2107
   1   1.0000     -19.331515      -526.0373
   2   1.0000     -19.325462      -525.8725
   3   1.0000     -19.310366      -525.4618
   4   1.0000     -14.572375      -396.5345
   5   1.0000     -14.566536      -396.3756
   6   1.0000     -14.555817      -396.0839
   7   1.0000     -14.555662      -396.0797
   8   1.0000     -10.510784      -286.0130
   9   1.0000     -10.496466      -285.6234
  10   1.0000     -10.486006      -285.3387
  11   1.0000     -10.480383      -285.1857
  12   1.0000     -10.443539      -284.1831
  13   1.0000     -10.442183      -284.1462
  14   1.0000     -10.427639      -283.7505
  15   1.0000     -10.415715      -283.4260
  16   1.0000     -10.382047      -282.5099
  17   1.0000     -10.369620      -282.1717
  18   1.0000      -1.228131       -33.4192
  19   1.0000      -1.219362       -33.1805
  20   1.0000      -1.196444       -32.5569
  21   1.0000      -1.195178       -32.5224
  22   1.0000      -1.124839       -30.6084
  23   1.0000      -1.092937       -29.7403
  24   1.0000      -1.069901       -29.1135
  25   1.0000      -1.051137       -28.6029
  26   1.0000      -0.987002       -26.8577
  27   1.0000      -0.962114       -26.1804
  28   1.0000      -0.894482       -24.3401
  29   1.0000      -0.851670       -23.1751
  30   1.0000      -0.826007       -22.4768
  31   1.0000      -0.802738       -21.8436
  32   1.0000      -0.780239       -21.2314
  33   1.0000      -0.767182       -20.8761
  34   1.0000      -0.703033       -19.1305
  35   1.0000      -0.693594       -18.8736
  36   1.0000      -0.691757       -18.8237
  37   1.0000      -0.687632       -18.7114
  38   1.0000      -0.658744       -17.9253
  39   1.0000      -0.634617       -17.2688
  40   1.0000      -0.623896       -16.9771
  41   1.0000      -0.605200       -16.4683
  42   1.0000      -0.599963       -16.3258
  43   1.0000      -0.586527       -15.9602
  44   1.0000      -0.573879       -15.6160
  45   1.0000      -0.571856       -15.5610
  46   1.0000      -0.569668       -15.5014
  47   1.0000      -0.564961       -15.3734
  48   1.0000      -0.563174       -15.3248
  49   1.0000      -0.560886       -15.2625
  50   1.0000      -0.553131       -15.0515
  51   1.0000      -0.539731       -14.6868
  52   1.0000      -0.532234       -14.4828
  53   1.0000      -0.530114       -14.4251
  54   1.0000      -0.519061       -14.1244
  55   1.0000      -0.512600       -13.9486
  56   1.0000      -0.506485       -13.7822
  57   1.0000      -0.431592       -11.7442
  58   1.0000      -0.418130       -11.3779
  59   1.0000      -0.412805       -11.2330
  60   1.0000      -0.402689       -10.9577
  61   1.0000      -0.397744       -10.8232
  62   1.0000      -0.393284       -10.7018
  63   1.0000      -0.384188       -10.4543
  64   1.0000      -0.380677       -10.3588
  65   1.0000      -0.355476        -9.6730
  66   1.0000      -0.319854        -8.7037
  67   0.0000       0.005090         0.1385
  68   0.0000       0.029586         0.8051
  69   0.0000       0.031163         0.8480
  70   0.0000       0.035143         0.9563
  71   0.0000       0.053430         1.4539

                 SPIN DOWN ORBITALS
  NO   OCC          E(Eh)            E(eV)
   0   1.0000     -19.333423      -526.0892
   1   1.0000     -19.327398      -525.9252
   2   1.0000     -19.325384      -525.8704
   3   1.0000     -19.310351      -525.4614
   4   1.0000     -14.572121      -396.5276
   5   1.0000     -14.566157      -396.3653
   6   1.0000     -14.555514      -396.0757
   7   1.0000     -14.555240      -396.0682
   8   1.0000     -10.510806      -286.0136
   9   1.0000     -10.496487      -285.6239
  10   1.0000     -10.487118      -285.3690
  11   1.0000     -10.481448      -285.2147
  12   1.0000     -10.442877      -284.1651
  13   1.0000     -10.441721      -284.1337
  14   1.0000     -10.416080      -283.4359
  15   1.0000     -10.404374      -283.1174
  16   1.0000     -10.382479      -282.5216
  17   1.0000     -10.369871      -282.1785
  18   1.0000      -1.227332       -33.3974
  19   1.0000      -1.215328       -33.0708
  20   1.0000      -1.194044       -32.4916
  21   1.0000      -1.189390       -32.3649
  22   1.0000      -1.122077       -30.5333
  23   1.0000      -1.090876       -29.6842
  24   1.0000      -1.068276       -29.0693
  25   1.0000      -1.049558       -28.5599
  26   1.0000      -0.974115       -26.5070
  27   1.0000      -0.945248       -25.7215
  28   1.0000      -0.888855       -24.1870
  29   1.0000      -0.846120       -23.0241
  30   1.0000      -0.816147       -22.2085
  31   1.0000      -0.797191       -21.6927
  32   1.0000      -0.778395       -21.1812
  33   1.0000      -0.765932       -20.8421
  34   1.0000      -0.698551       -19.0085
  35   1.0000      -0.687361       -18.7040
  36   1.0000      -0.685606       -18.6563
  37   1.0000      -0.680838       -18.5265
  38   1.0000      -0.647376       -17.6160
  39   1.0000      -0.630007       -17.1434
  40   1.0000      -0.618830       -16.8392
  41   1.0000      -0.598144       -16.2763
  42   1.0000      -0.594252       -16.1704
  43   1.0000      -0.580486       -15.7958
  44   1.0000      -0.568136       -15.4598
  45   1.0000      -0.566372       -15.4118
  46   1.0000      -0.563593       -15.3361
  47   1.0000      -0.558620       -15.2008
  48   1.0000      -0.554680       -15.0936
  49   1.0000      -0.551601       -15.0098
  50   1.0000      -0.546915       -14.8823
  51   1.0000      -0.534494       -14.5443
  52   1.0000      -0.522540       -14.2190
  53   1.0000      -0.521915       -14.2020
  54   1.0000      -0.508514       -13.8374
  55   1.0000      -0.507058       -13.7977
  56   1.0000      -0.500496       -13.6192
  57   1.0000      -0.424892       -11.5619
  58   1.0000      -0.413544       -11.2531
  59   1.0000      -0.406838       -11.0706
  60   1.0000      -0.396696       -10.7946
  61   1.0000      -0.387876       -10.5546
  62   1.0000      -0.385021       -10.4769
  63   1.0000      -0.380721       -10.3600
  64   1.0000      -0.372886       -10.1467
  65   0.0000      -0.066930        -1.8213
  66   0.0000      -0.044548        -1.2122
  67   0.0000       0.004961         0.1350
  68   0.0000       0.029582         0.8050
  69   0.0000       0.030497         0.8299

----------------------------------------------------------------------------------------------------
          SPIN FLIP ABSORPTION SPECTRUM VIA TRANSITION ELECTRIC DIPOLE MOMENTS
----------------------------------------------------------------------------------------------------
     Transition      Energy     Energy  Wavelength fosc(D2)      D2        DX        DY        DZ
                      (eV)      (cm-1)    (nm)                 (au**2)    (au)      (au)      (au)
----------------------------------------------------------------------------------------------------
  1-3A  ->  2-3A    0.181028    1460.1  6848.9   0.000077403   0.01745   0.11879  -0.03871  -0.04294
  1-3A  ->  3-3A    2.289039   18462.3   541.6   0.002198499   0.03920   0.17863  -0.04494  -0.07263

Dispersion correction             ... done (  0.1 sec)

MULLIKEN ATOMIC CHARGES AND SPIN DENSITIES
------------------------------------------
   0 O :   -0.669390    0.013937
   1 O :   -0.670125   -0.011046
   2 O :   -0.673125   -0.000019
   3 O :   -0.633636    0.000237
   4 N :   -0.263215   -0.008649
   5 N :   -0.273080   -0.003403
   6 N :    0.030306    0.003044
   7 N :    0.096428    0.000023
   8 C :    0.074469    0.476709
   9 C :    0.517992    0.343473
  10 C :    0.450160   -0.242605
  11 C :    0.232734   -0.219915
  12 C :   -1.641318    0.024004
  13 C :   -1.348988    0.005397
  14 C :    0.425201   -0.232535
  15 C :    0.144252   -0.201116
  16 C :    0.360296    0.015221
  17 C :    0.352551    0.007834
  18 H :    0.481654   -0.005371
  19 H :    0.499032    0.000770
  20 H :    0.429967   -0.000143
  21 H :    0.314409    0.003932
  22 H :    0.400035    0.014164
  23 H :    0.298495   -0.002796
  24 H :    0.398332    0.009221
  25 H :    0.299906    0.009687
  26 H :    0.111606   -0.001786
  27 H :    0.127420    0.000588
  28 H :    0.046087    0.000373
  29 H :    0.081548    0.000771
Sum of atomic charges       :    0.0000000

LOEWDIN ATOMIC CHARGES AND SPIN DENSITIES
-----------------------------------------
   0 O :    0.089536    0.012166
   1 O :    0.076573   -0.010276
   2 O :    0.079136   -0.000059
   3 O :    0.099548   -0.000123
   4 N :    0.281555   -0.001147
   5 N :    0.251867   -0.001242
   6 N :    0.350589   -0.001077
   7 N :    0.334687   -0.003451
   8 C :   -0.020048    0.047031
   9 C :   -0.022819   -0.026869
  10 C :   -0.095804   -0.003198
  11 C :   -0.163102   -0.007306
  12 C :    0.236872    0.005389
  13 C :    0.236389   -0.003955
  14 C :   -0.417159    0.003710
  15 C :   -0.356382   -0.008956
  16 C :   -0.473803   -0.000467
  17 C :   -0.497153   -0.000494
  18 H :    0.048340   -0.000351
  19 H :    0.068023   -0.001241
  20 H :   -0.083009    0.000247
  21 H :    0.033691    0.000694
  22 H :    0.004730    0.002720
  23 H :    0.006820    0.000037
  24 H :    0.021641   -0.001199
  25 H :   -0.034547   -0.000218
  26 H :   -0.023194    0.000004
  27 H :    0.042022   -0.000036
  28 H :   -0.035581   -0.000033
  29 H :   -0.039418   -0.000300

  Mayer bond orders larger than 0.100000
B(  0-O , 14-C ) :   1.2922 B(  1-O , 15-C ) :   1.3182 B(  2-O , 16-C ) :   1.5299
B(  3-O , 17-C ) :   1.6036 B(  4-N ,  8-C ) :   0.2205 B(  4-N , 10-C ) :   0.3895
B(  4-N , 16-C ) :   1.0831 B(  4-N , 26-H ) :   1.0252 B(  5-N , 10-C ) :   0.1376
B(  5-N , 11-C ) :   0.3520 B(  5-N , 17-C ) :   1.1645 B(  5-N , 27-H ) :   1.0511
B(  6-N , 14-C ) :   1.0480 B(  6-N , 16-C ) :   0.9749 B(  6-N , 28-H ) :   1.0707
B(  7-N , 15-C ) :   1.0530 B(  7-N , 17-C ) :   0.9948 B(  7-N , 29-H ) :   0.9967
B(  8-C ,  9-C ) :   0.2153 B(  8-C , 10-C ) :   0.3260 B(  8-C , 11-C ) :   0.1529
B(  8-C , 12-C ) :   0.6594 B(  8-C , 14-C ) :   0.8080 B(  8-C , 18-H ) :  -0.1558
B(  8-C , 20-H ) :  -0.1126 B(  9-C , 10-C ) :   0.2283 B(  9-C , 11-C ) :   0.5856
B(  9-C , 13-C ) :   0.5130 B(  9-C , 15-C ) :   0.7453 B(  9-C , 19-H ) :  -0.1401
B(  9-C , 23-H ) :  -0.1071 B(  9-C , 25-H ) :  -0.1023 B( 10-C , 11-C ) :   0.5533
B( 10-C , 12-C ) :  -0.1775 B( 10-C , 14-C ) :  -0.1250 B( 10-C , 16-C ) :  -0.2219
B( 10-C , 18-H ) :   0.8788 B( 10-C , 19-H ) :  -0.1108 B( 11-C , 13-C ) :  -0.1341
B( 11-C , 17-C ) :  -0.2161 B( 11-C , 18-H ) :  -0.1063 B( 11-C , 19-H ) :   0.8321
B( 12-C , 14-C ) :  -0.1335 B( 12-C , 20-H ) :   0.9238 B( 12-C , 21-H ) :   0.8940
B( 12-C , 22-H ) :   0.8338 B( 13-C , 23-H ) :   1.0732 B( 13-C , 24-H ) :   0.7719
B( 13-C , 25-H ) :   0.9381

Dispersion correction           -0.058272546
FINAL SINGLE POINT ENERGY      -908.776627837078

DIPOLE MOMENT
-------------

Method             : TDA/CIS
Type of density    : Electron Density
Level              : Relaxed density
State              :   1
Multiplicity       :   3
Irrep              :   0
Energy             :     0.0000000000000000 Eh
Relativity type    :
Basis              : AO
                                X                 Y                 Z
Electronic contribution:     -9.902547828      -5.040025648      -0.415482957
Nuclear contribution   :     11.966135390       6.471054161       1.948247064
                        -----------------------------------------
Total Dipole Moment    :      2.063587562       1.431028513       1.532764107
                        -----------------------------------------
Magnitude (a.u.)       :      2.942040455
Magnitude (Debye)      :      7.478072545

Rotational constants in cm-1:             0.021820             0.011815             0.011305
Rotational constants in MHz :           654.157363           354.192083           338.901173

                             ****ORCA TERMINATED NORMALLY****
TOTAL RUN TIME: 0 days 0 hours 5 minutes 9 seconds 568 msec
