                         Program Version 6.0.0  -   RELEASE  -
|  1> ! Engrad def2-TZVPPD wB97M-D3BJ
|  2> %pal nprocs 8 end%pal nprocs 64 end
|  3> %tddft
|  4>  Iroot 2 Nroots 3
|  5> sf true
|  6> end
|  7> *xyz 0 3
|  8> O   3.05095703 -0.85134345 -1.66757953
|  9> O   -1.38717059 1.38446692 -2.11547775
| 10> O   -1.03004704 -2.62430215 -0.70073593
| 11> O   -3.50575403 0.03304548 1.71181618
| 12> N   0.09523176 -1.39158092 0.91285146
| 13> N   -1.30325815 0.74177164 1.73432812
| 14> N   1.00763754 -1.699649 -1.18432295
| 15> N   -2.3653141 0.50819629 -0.29490218
| 16> C   2.14047534 -0.28395666 0.41020346
| 17> C   -0.14483454 1.58504807 -0.21805523
| 18> C   0.94328499 -0.31186698 1.32685751
| 19> C   0.07075444 1.05663066 1.22197225
| 20> C   3.40548835 0.37247779 0.71919695
| 21> C   1.00318051 2.1978333 -0.97430058
| 22> C   2.08567102 -0.90550036 -0.85745483
| 23> C   -1.32520117 1.16801146 -0.87631931
| 24> C   -0.07503688 -1.98437357 -0.36764465
| 25> C   -2.48474735 0.39529164 1.09993342
| 26> H   1.20628645 -0.46141353 2.37111065
| 27> H   0.44254426 1.84035973 1.82646396
| 28> H   3.77542563 1.00593723 -0.05123385
| 29> H   3.32729229 0.98555278 1.5994052
| 30> H   4.20266154 -0.32214402 0.82586998
| 31> H   0.70616814 3.19901266 -1.31145653
| 32> H   1.86416237 2.37667957 -0.31024082
| 33> H   1.32234148 1.70525732 -1.90424245
| 34> H   -0.72699717 -1.48363516 1.47757055
| 35> H   -1.29401023 0.48434743 2.70614259
| 36> H   0.92043767 -1.98569639 -2.15892691
| 37> H   -3.17238896 0.35988445 -0.84105608
| 38> *
| 39>
| 40>                          ****END OF INPUT****

CARTESIAN COORDINATES (ANGSTROEM)
---------------------------------
  O      3.050957   -0.851343   -1.667580
  O     -1.387171    1.384467   -2.115478
  O     -1.030047   -2.624302   -0.700736
  O     -3.505754    0.033045    1.711816
  N      0.095232   -1.391581    0.912851
  N     -1.303258    0.741772    1.734328
  N      1.007638   -1.699649   -1.184323
  N     -2.365314    0.508196   -0.294902
  C      2.140475   -0.283957    0.410203
  C     -0.144835    1.585048   -0.218055
  C      0.943285   -0.311867    1.326858
  C      0.070754    1.056631    1.221972
  C      3.405488    0.372478    0.719197
  C      1.003181    2.197833   -0.974301
  C      2.085671   -0.905500   -0.857455
  C     -1.325201    1.168011   -0.876319
  C     -0.075037   -1.984374   -0.367645
  C     -2.484747    0.395292    1.099933
  H      1.206286   -0.461414    2.371111
  H      0.442544    1.840360    1.826464
  H      3.775426    1.005937   -0.051234
  H      3.327292    0.985553    1.599405
  H      4.202662   -0.322144    0.825870
  H      0.706168    3.199013   -1.311457
  H      1.864162    2.376680   -0.310241
  H      1.322341    1.705257   -1.904242
  H     -0.726997   -1.483635    1.477571
  H     -1.294010    0.484347    2.706143
  H      0.920438   -1.985696   -2.158927
  H     -3.172389    0.359884   -0.841056

 Total Charge           Charge          ....    0
 Multiplicity           Mult            ....    3
 Number of Electrons    NEL             ....  132
 Basis Dimension        Dim             ....  882

ORBITAL ENERGIES
----------------
                 SPIN UP ORBITALS
  NO   OCC          E(Eh)            E(eV)
   0   1.0000     -19.332674      -526.0688
   1   1.0000     -19.329462      -525.9814
   2   1.0000     -19.329442      -525.9809
   3   1.0000     -19.327951      -525.9403
   4   1.0000     -14.568206      -396.4211
   5   1.0000     -14.565700      -396.3529
   6   1.0000     -14.565331      -396.3428
   7   1.0000     -14.553483      -396.0204
   8   1.0000     -10.518152      -286.2135
   9   1.0000     -10.511615      -286.0356
  10   1.0000     -10.480124      -285.1787
  11   1.0000     -10.478076      -285.1230
  12   1.0000     -10.455835      -284.5177
  13   1.0000     -10.454627      -284.4849
  14   1.0000     -10.429206      -283.7931
  15   1.0000     -10.423603      -283.6407
  16   1.0000     -10.378108      -282.4027
  17   1.0000     -10.367477      -282.1134
  18   1.0000      -1.222047       -33.2536
  19   1.0000      -1.208964       -32.8976
  20   1.0000      -1.184840       -32.2411
  21   1.0000      -1.179889       -32.1064
  22   1.0000      -1.116790       -30.3894
  23   1.0000      -1.095578       -29.8122
  24   1.0000      -1.068975       -29.0883
  25   1.0000      -1.050423       -28.5835
  26   1.0000      -0.981288       -26.7022
  27   1.0000      -0.956413       -26.0253
  28   1.0000      -0.892039       -24.2736
  29   1.0000      -0.849730       -23.1223
  30   1.0000      -0.834709       -22.7136
  31   1.0000      -0.809431       -22.0257
  32   1.0000      -0.787232       -21.4217
  33   1.0000      -0.779853       -21.2209
  34   1.0000      -0.708427       -19.2773
  35   1.0000      -0.700286       -19.0558
  36   1.0000      -0.687229       -18.7005
  37   1.0000      -0.672656       -18.3039
  38   1.0000      -0.655844       -17.8464
  39   1.0000      -0.644559       -17.5393
  40   1.0000      -0.618295       -16.8247
  41   1.0000      -0.603819       -16.4308
  42   1.0000      -0.594136       -16.1673
  43   1.0000      -0.587988       -16.0000
  44   1.0000      -0.577439       -15.7129
  45   1.0000      -0.573550       -15.6071
  46   1.0000      -0.567400       -15.4397
  47   1.0000      -0.565654       -15.3922
  48   1.0000      -0.561869       -15.2892
  49   1.0000      -0.556114       -15.1326
  50   1.0000      -0.550579       -14.9820
  51   1.0000      -0.533516       -14.5177
  52   1.0000      -0.531597       -14.4655
  53   1.0000      -0.521416       -14.1884
  54   1.0000      -0.511111       -13.9080
  55   1.0000      -0.505212       -13.7475
  56   1.0000      -0.491209       -13.3665
  57   1.0000      -0.422670       -11.5014
  58   1.0000      -0.415600       -11.3090
  59   1.0000      -0.410216       -11.1625
  60   1.0000      -0.406518       -11.0619
  61   1.0000      -0.398716       -10.8496
  62   1.0000      -0.397283       -10.8106
  63   1.0000      -0.391169       -10.6443
  64   1.0000      -0.388038       -10.5591
  65   1.0000      -0.352363        -9.5883
  66   1.0000      -0.334909        -9.1133
  67   0.0000       0.007194         0.1958
  68   0.0000       0.028281         0.7696
  69   0.0000       0.032755         0.8913
  70   0.0000       0.036608         0.9961
  71   0.0000       0.054989         1.4963

                 SPIN DOWN ORBITALS
  NO   OCC          E(Eh)            E(eV)
   0   1.0000     -19.329353      -525.9784
   1   1.0000     -19.327850      -525.9375
   2   1.0000     -19.327332      -525.9234
   3   1.0000     -19.323372      -525.8157
   4   1.0000     -14.567919      -396.4132
   5   1.0000     -14.565137      -396.3375
   6   1.0000     -14.565097      -396.3364
   7   1.0000     -14.553430      -396.0190
   8   1.0000     -10.518192      -286.2145
   9   1.0000     -10.511663      -286.0369
  10   1.0000     -10.481154      -285.2067
  11   1.0000     -10.479349      -285.1576
  12   1.0000     -10.455624      -284.5120
  13   1.0000     -10.454125      -284.4712
  14   1.0000     -10.418087      -283.4905
  15   1.0000     -10.412747      -283.3453
  16   1.0000     -10.378615      -282.4165
  17   1.0000     -10.367996      -282.1275
  18   1.0000      -1.221267       -33.2324
  19   1.0000      -1.206836       -32.8397
  20   1.0000      -1.178116       -32.0582
  21   1.0000      -1.173877       -31.9428
  22   1.0000      -1.114065       -30.3152
  23   1.0000      -1.092706       -29.7340
  24   1.0000      -1.066422       -29.0188
  25   1.0000      -1.048788       -28.5390
  26   1.0000      -0.967388       -26.3240
  27   1.0000      -0.939486       -25.5647
  28   1.0000      -0.887306       -24.1448
  29   1.0000      -0.844594       -22.9826
  30   1.0000      -0.826474       -22.4895
  31   1.0000      -0.804620       -21.8948
  32   1.0000      -0.785672       -21.3792
  33   1.0000      -0.778014       -21.1708
  34   1.0000      -0.703367       -19.1396
  35   1.0000      -0.695261       -18.9190
  36   1.0000      -0.681352       -18.5405
  37   1.0000      -0.667262       -18.1571
  38   1.0000      -0.644136       -17.5278
  39   1.0000      -0.639225       -17.3942
  40   1.0000      -0.615197       -16.7404
  41   1.0000      -0.598422       -16.2839
  42   1.0000      -0.587460       -15.9856
  43   1.0000      -0.580153       -15.7868
  44   1.0000      -0.571610       -15.5543
  45   1.0000      -0.564083       -15.3495
  46   1.0000      -0.560809       -15.2604
  47   1.0000      -0.559167       -15.2157
  48   1.0000      -0.556354       -15.1392
  49   1.0000      -0.551150       -14.9976
  50   1.0000      -0.537695       -14.6314
  51   1.0000      -0.528638       -14.3850
  52   1.0000      -0.525298       -14.2941
  53   1.0000      -0.509740       -13.8707
  54   1.0000      -0.503376       -13.6976
  55   1.0000      -0.496190       -13.5020
  56   1.0000      -0.485216       -13.2034
  57   1.0000      -0.420136       -11.4325
  58   1.0000      -0.412159       -11.2154
  59   1.0000      -0.396962       -10.8019
  60   1.0000      -0.393347       -10.7035
  61   1.0000      -0.391211       -10.6454
  62   1.0000      -0.387253       -10.5377
  63   1.0000      -0.383741       -10.4421
  64   1.0000      -0.376823       -10.2539
  65   0.0000      -0.068959        -1.8765
  66   0.0000      -0.062701        -1.7062
  67   0.0000       0.006831         0.1859
  68   0.0000       0.027991         0.7617
  69   0.0000       0.032373         0.8809

----------------------------------------------------------------------------------------------------
          SPIN FLIP ABSORPTION SPECTRUM VIA TRANSITION ELECTRIC DIPOLE MOMENTS
----------------------------------------------------------------------------------------------------
     Transition      Energy     Energy  Wavelength fosc(D2)      D2        DX        DY        DZ
                      (eV)      (cm-1)    (nm)                 (au**2)    (au)      (au)      (au)
----------------------------------------------------------------------------------------------------
  1-3A  ->  2-3A    0.041030     330.9  30217.9   0.000000800   0.00080   0.02625  -0.00974  -0.00345
  1-3A  ->  3-3A    1.685836   13597.2   735.4   0.000026041   0.00063  -0.01251   0.00446  -0.02131

Dispersion correction             ... done (  0.1 sec)

MULLIKEN ATOMIC CHARGES AND SPIN DENSITIES
------------------------------------------
   0 O :   -0.697272    0.196415
   1 O :   -0.732058   -0.205875
   2 O :   -0.607932    0.002626
   3 O :   -0.658607    0.001028
   4 N :   -0.302422    0.001335
   5 N :   -0.370372   -0.010294
   6 N :   -0.017458    0.012718
   7 N :    0.118237   -0.015939
   8 C :   -0.275348    0.291591
   9 C :    1.246705    0.253537
  10 C :    0.450523    0.045829
  11 C :   -0.102848   -0.303916
  12 C :   -1.588560   -0.001415
  13 C :   -1.291300   -0.065482
  14 C :    0.835218    0.173499
  15 C :   -0.193957   -0.406389
  16 C :    0.413035   -0.014017
  17 C :    0.471401    0.023844
  18 H :    0.514978    0.034829
  19 H :    0.568266   -0.020539
  20 H :    0.328683    0.019878
  21 H :    0.366602   -0.001737
  22 H :    0.393423    0.025820
  23 H :    0.405596   -0.012831
  24 H :    0.298591   -0.002626
  25 H :    0.213127   -0.020929
  26 H :    0.066617   -0.002394
  27 H :    0.077328    0.003857
  28 H :    0.047317   -0.004060
  29 H :    0.022487    0.001637
Sum of atomic charges       :   -0.0000000

LOEWDIN ATOMIC CHARGES AND SPIN DENSITIES
-----------------------------------------
   0 O :    0.059562    0.167916
   1 O :    0.042755   -0.183755
   2 O :    0.115578    0.002138
   3 O :    0.058879    0.000883
   4 N :    0.267159   -0.000027
   5 N :    0.247771    0.005542
   6 N :    0.324126    0.012399
   7 N :    0.343124   -0.014302
   8 C :   -0.048733    0.447986
   9 C :    0.020250   -0.447334
  10 C :   -0.074187    0.021842
  11 C :   -0.024817   -0.021695
  12 C :    0.185512    0.072676
  13 C :    0.192544   -0.058446
  14 C :   -0.387677    0.077654
  15 C :   -0.411938   -0.087037
  16 C :   -0.453789   -0.001017
  17 C :   -0.432086    0.000758
  18 H :    0.053461    0.004353
  19 H :    0.021400   -0.007756
  20 H :   -0.012050    0.015573
  21 H :   -0.000588   -0.000158
  22 H :    0.000860    0.022579
  23 H :    0.016166   -0.018836
  24 H :   -0.001719    0.003049
  25 H :    0.022812   -0.015498
  26 H :   -0.060240    0.000187
  27 H :   -0.043795    0.000856
  28 H :    0.008012    0.001143
  29 H :   -0.028355   -0.001672

  Mayer bond orders larger than 0.100000
B(  0-O , 14-C ) :   1.2500 B(  1-O , 15-C ) :   1.2548 B(  2-O , 16-C ) :   1.5779
B(  3-O , 17-C ) :   1.5891 B(  4-N ,  8-C ) :   0.2516 B(  4-N ,  9-C ) :   0.1053
B(  4-N , 10-C ) :   0.3733 B(  4-N , 16-C ) :   0.9516 B(  4-N , 18-H ) :  -0.1319
B(  4-N , 26-H ) :   1.0847 B(  5-N ,  9-C ) :   0.1553 B(  5-N , 11-C ) :   0.2774
B(  5-N , 17-C ) :   1.0312 B(  5-N , 27-H ) :   1.1038 B(  6-N , 14-C ) :   1.0373
B(  6-N , 16-C ) :   0.9351 B(  6-N , 28-H ) :   1.0991 B(  7-N , 15-C ) :   1.0676
B(  7-N , 17-C ) :   0.9744 B(  7-N , 29-H ) :   1.1074 B(  8-C , 11-C ) :   0.2552
B(  8-C , 12-C ) :   0.2186 B(  8-C , 13-C ) :   0.1530 B(  8-C , 14-C ) :   0.4907
B(  8-C , 16-C ) :   0.1353 B(  8-C , 18-H ) :  -0.2527 B(  8-C , 21-H ) :  -0.1262
B(  9-C , 11-C ) :   0.6026 B(  9-C , 13-C ) :   0.2925 B(  9-C , 15-C ) :   0.4710
B(  9-C , 19-H ) :  -0.1177 B(  9-C , 24-H ) :  -0.1482 B( 10-C , 11-C ) :   0.4891
B( 10-C , 12-C ) :  -0.1104 B( 10-C , 16-C ) :  -0.1399 B( 10-C , 18-H ) :   0.8574
B( 11-C , 15-C ) :   0.2872 B( 11-C , 19-H ) :   0.7312 B( 12-C , 14-C ) :  -0.1019
B( 12-C , 20-H ) :   0.9352 B( 12-C , 21-H ) :   0.9920 B( 12-C , 22-H ) :   0.8671
B( 13-C , 15-C ) :   0.1755 B( 13-C , 23-H ) :   0.8756 B( 13-C , 24-H ) :   1.0489
B( 13-C , 25-H ) :   0.9511 B( 15-C , 17-C ) :  -0.1098

Dispersion correction           -0.059238194
FINAL SINGLE POINT ENERGY      -908.774395752905

DIPOLE MOMENT
-------------

Method             : TDA/CIS
Type of density    : Electron Density
Level              : Relaxed density
State              :   2
Multiplicity       :   3
Irrep              :   0
Energy             :     0.0000000000000000 Eh
Relativity type    :
Basis              : AO
                                X                 Y                 Z
Electronic contribution:     -9.981754759      -6.479293956      -2.291895595
Nuclear contribution   :     11.817388505       7.701634270       4.198475652
                        -----------------------------------------
Total Dipole Moment    :      1.835633745       1.222340314       1.906580057
                        -----------------------------------------
Magnitude (a.u.)       :      2.915255495
Magnitude (Debye)      :      7.409990588

Rotational constants in cm-1:             0.022169             0.012689             0.011891
Rotational constants in MHz :           664.613981           380.399429           356.489018

                             ****ORCA TERMINATED NORMALLY****
TOTAL RUN TIME: 0 days 0 hours 5 minutes 11 seconds 905 msec
