                         Program Version 6.0.0  -   RELEASE  -
|  1> ! Opt wB97M-D3BJ def2-TZVPPD
|  2> %pal nprocs 8 end %pal nprocs 64 end
|  3> %geom
|  4> Constraints
|  5>     {A 2 1 0 93.63636363636363 C }
|  6> end
|  7> MaxIter 500
|  8> end
|  9> *xyz 0 1
| 10> O   -0.0007 0.8141 0.0
| 11> C   0.7509 -0.4065 0.0
| 12> C   -0.7502 -0.4076 0.0
| 13> H   1.2625 -0.6786 0.9136
| 14> H   1.2625 -0.6787 -0.9136
| 15> H   -1.2614 -0.6806 -0.9136
| 16> H   -1.2614 -0.6805 0.9136
| 17> *
| 18>
| 19>                          ****END OF INPUT****
 Total Charge           Charge          ....    0
 Multiplicity           Mult            ....    1
 Number of Electrons    NEL             ....   24
Dispersion correction           -0.005704484
FINAL SINGLE POINT ENERGY      -153.777384583284
Dispersion correction             ... done (  0.1 sec)
Dispersion correction           -0.005677709
FINAL SINGLE POINT ENERGY      -153.803214783651
Dispersion correction             ... done (  0.1 sec)
Dispersion correction           -0.005653208
FINAL SINGLE POINT ENERGY      -153.811392908479
Dispersion correction             ... done (  0.1 sec)
FINAL SINGLE POINT ENERGY      -153.814401443408
FINAL SINGLE POINT ENERGY      -153.815107999828
FINAL SINGLE POINT ENERGY      -153.815321217105
FINAL SINGLE POINT ENERGY      -153.815442629162
FINAL SINGLE POINT ENERGY      -153.815507666016
FINAL SINGLE POINT ENERGY      -153.815546774961
FINAL SINGLE POINT ENERGY      -153.815568338797
Dispersion correction             ... done (  0.2 sec)
Dispersion correction           -0.005673341
FINAL SINGLE POINT ENERGY      -153.815575754562
Dispersion correction             ... done (  0.2 sec)
Dispersion correction           -0.005672523
FINAL SINGLE POINT ENERGY      -153.815577727601
Dispersion correction             ... done (  0.1 sec)
                    ***********************HURRAY********************

CARTESIAN COORDINATES (ANGSTROEM)
---------------------------------
  O      0.331887    1.006477   -0.002424
  C      0.630323   -0.299144   -0.000503
  C     -0.739794   -0.705293    0.000623
  H      1.186234   -0.635449    0.885366
  H      1.186464   -0.637917   -0.885227
  H     -1.297161   -0.725353   -0.924271
  H     -1.295754   -0.721721    0.926437

 Multiplicity           Mult            ....    1
 Number of Electrons    NEL             ....   24
 Basis Dimension        Dim             ....  182

ORBITAL ENERGIES
----------------

  NO   OCC          E(Eh)            E(eV)
   0   2.0000     -19.334564      -526.1202
   1   2.0000     -10.436558      -283.9932
   2   2.0000     -10.397010      -282.9170
   3   2.0000      -1.138281       -30.9742
   4   2.0000      -0.873531       -23.7700
   5   2.0000      -0.734151       -19.9773
   6   2.0000      -0.624965       -17.0062
   7   2.0000      -0.577565       -15.7163
   8   2.0000      -0.516732       -14.0610
   9   2.0000      -0.509201       -13.8561
  10   2.0000      -0.379316       -10.3217
  11   2.0000      -0.359547        -9.7838
  12   0.0000      -0.034642        -0.9427
  13   0.0000       0.038789         1.0555
  14   0.0000       0.060972         1.6591
  15   0.0000       0.076570         2.0836
  16   0.0000       0.097996         2.6666

MULLIKEN ATOMIC CHARGES
-----------------------
   0 O :   -0.496713
   1 C :   -0.089599
   2 C :   -0.286297
   3 H :    0.217818
   4 H :    0.217913
   5 H :    0.218392
   6 H :    0.218486
Sum of atomic charges:   -0.0000000

LOEWDIN ATOMIC CHARGES
----------------------
   0 O :   -0.015843
   1 C :   -0.373258
   2 C :    0.356494
   3 H :    0.023814
   4 H :    0.023814
   5 H :   -0.007506
   6 H :   -0.007515

  Mayer bond orders larger than 0.100000
B(  0-O ,  1-C ) :   0.6850 B(  0-O ,  2-C ) :   0.9345 B(  1-C ,  2-C ) :   0.7703
B(  1-C ,  3-H ) :   1.0456 B(  1-C ,  4-H ) :   1.0455 B(  2-C ,  5-H ) :   0.9647
B(  2-C ,  6-H ) :   0.9648

Dispersion correction           -0.005672378
FINAL SINGLE POINT ENERGY      -153.815578253085

DIPOLE MOMENT
-------------

Method             : SCF
Type of density    : Electron Density
Multiplicity       :   1
Irrep              :   0
Energy             :  -153.8099058747017978 Eh
Relativity type    :
Basis              : AO
                                X                 Y                 Z
Electronic contribution:      0.075138408       1.420661379      -0.003037262
Nuclear contribution   :     -0.524370549      -2.648216661       0.005121155
                        -----------------------------------------
Total Dipole Moment    :     -0.449232142      -1.227555282       0.002083893
                        -----------------------------------------
Magnitude (a.u.)       :      1.307174751
Magnitude (Debye)      :      3.322574167

Rotational constants in cm-1:             1.102992             0.475792             0.382245
Rotational constants in MHz :         33066.872593         14263.891040         11459.430045

                             ****ORCA TERMINATED NORMALLY****
TOTAL RUN TIME: 0 days 0 hours 3 minutes 1 seconds 321 msec
