                         Program Version 6.0.0  -   RELEASE  -
|  1> ! Engrad def2-TZVPPD wB97M-D3BJ
|  2> %pal nprocs 8 end%pal nprocs 64 end
|  3> %tddft
|  4>  Iroot 2 Nroots 3
|  5> sf true
|  6> end
|  7> *xyz 0 3
|  8> O   2.62554483 -0.53997615 -2.28627567
|  9> O   -2.16204429 1.03419486 -1.67641679
| 10> O   -0.97880532 -2.80546504 -0.83702082
| 11> O   -2.52472803 0.39675561 2.90221594
| 12> N   0.14290011 -1.52074229 0.66204589
| 13> N   -0.66123724 1.21871292 2.01097682
| 14> N   0.77124638 -1.53150044 -1.55926145
| 15> N   -2.334746 0.52363256 0.58093204
| 16> C   2.0954924 -0.39195788 0.01134963
| 17> C   -0.24570136 1.31478591 -0.3785701
| 18> C   0.99529846 -0.45330822 1.00992235
| 19> C   0.30622308 0.98355482 0.98625279
| 20> C   3.34822178 0.36139689 0.18996143
| 21> C   0.57458028 1.97235405 -1.37816307
| 22> C   1.85858989 -0.83013367 -1.35432165
| 23> C   -1.64226817 0.9515258 -0.5302476
| 24> C   -0.10182077 -1.99553979 -0.55927688
| 25> C   -1.91343895 0.66952887 1.92875706
| 26> H   1.40312481 -0.67088698 2.04735427
| 27> H   1.17690772 1.59010083 1.28093693
| 28> H   4.05444112 -0.04430497 -0.57846259
| 29> H   3.3798651 1.38258063 -0.01945948
| 30> H   3.72774485 0.31864535 1.25525422
| 31> H   -0.01474868 2.12177582 -2.27804418
| 32> H   0.97040624 2.93276219 -0.99926146
| 33> H   1.41245043 1.30733412 -1.72138799
| 34> H   -0.53565158 -1.90263322 1.28854383
| 35> H   -0.29444892 1.14764201 2.95097361
| 36> H   0.51089875 -1.79069089 -2.51664281
| 37> H   -3.25155729 0.15587103 0.54927951
| 38> *
| 39>
| 40>                          ****END OF INPUT****

CARTESIAN COORDINATES (ANGSTROEM)
---------------------------------
  O      2.625545   -0.539976   -2.286276
  O     -2.162044    1.034195   -1.676417
  O     -0.978805   -2.805465   -0.837021
  O     -2.524728    0.396756    2.902216
  N      0.142900   -1.520742    0.662046
  N     -0.661237    1.218713    2.010977
  N      0.771246   -1.531500   -1.559261
  N     -2.334746    0.523633    0.580932
  C      2.095492   -0.391958    0.011350
  C     -0.245701    1.314786   -0.378570
  C      0.995298   -0.453308    1.009922
  C      0.306223    0.983555    0.986253
  C      3.348222    0.361397    0.189961
  C      0.574580    1.972354   -1.378163
  C      1.858590   -0.830134   -1.354322
  C     -1.642268    0.951526   -0.530248
  C     -0.101821   -1.995540   -0.559277
  C     -1.913439    0.669529    1.928757
  H      1.403125   -0.670887    2.047354
  H      1.176908    1.590101    1.280937
  H      4.054441   -0.044305   -0.578463
  H      3.379865    1.382581   -0.019459
  H      3.727745    0.318645    1.255254
  H     -0.014749    2.121776   -2.278044
  H      0.970406    2.932762   -0.999261
  H      1.412450    1.307334   -1.721388
  H     -0.535652   -1.902633    1.288544
  H     -0.294449    1.147642    2.950974
  H      0.510899   -1.790691   -2.516643
  H     -3.251557    0.155871    0.549280

 Total Charge           Charge          ....    0
 Multiplicity           Mult            ....    3
 Number of Electrons    NEL             ....  132
 Basis Dimension        Dim             ....  882

ORBITAL ENERGIES
----------------
                 SPIN UP ORBITALS
  NO   OCC          E(Eh)            E(eV)
   0   1.0000     -19.337120      -526.1898
   1   1.0000     -19.333154      -526.0819
   2   1.0000     -19.326456      -525.8996
   3   1.0000     -19.322437      -525.7902
   4   1.0000     -14.570540      -396.4845
   5   1.0000     -14.570391      -396.4805
   6   1.0000     -14.567770      -396.4092
   7   1.0000     -14.560849      -396.2208
   8   1.0000     -10.511313      -286.0274
   9   1.0000     -10.510126      -285.9951
  10   1.0000     -10.485581      -285.3272
  11   1.0000     -10.477421      -285.1051
  12   1.0000     -10.452825      -284.4358
  13   1.0000     -10.441252      -284.1209
  14   1.0000     -10.418397      -283.4990
  15   1.0000     -10.418351      -283.4978
  16   1.0000     -10.372946      -282.2622
  17   1.0000     -10.367437      -282.1123
  18   1.0000      -1.239722       -33.7345
  19   1.0000      -1.225608       -33.3505
  20   1.0000      -1.190414       -32.3928
  21   1.0000      -1.182985       -32.1907
  22   1.0000      -1.129683       -30.7402
  23   1.0000      -1.111827       -30.2544
  24   1.0000      -1.079442       -29.3731
  25   1.0000      -1.067867       -29.0581
  26   1.0000      -0.988063       -26.8866
  27   1.0000      -0.955633       -26.0041
  28   1.0000      -0.893397       -24.3106
  29   1.0000      -0.847925       -23.0732
  30   1.0000      -0.830120       -22.5887
  31   1.0000      -0.812199       -22.1011
  32   1.0000      -0.798478       -21.7277
  33   1.0000      -0.784711       -21.3531
  34   1.0000      -0.708407       -19.2767
  35   1.0000      -0.704139       -19.1606
  36   1.0000      -0.699415       -19.0321
  37   1.0000      -0.682943       -18.5838
  38   1.0000      -0.661476       -17.9997
  39   1.0000      -0.646761       -17.5993
  40   1.0000      -0.624901       -17.0044
  41   1.0000      -0.604950       -16.4615
  42   1.0000      -0.601500       -16.3677
  43   1.0000      -0.590107       -16.0576
  44   1.0000      -0.578596       -15.7444
  45   1.0000      -0.578087       -15.7306
  46   1.0000      -0.568568       -15.4715
  47   1.0000      -0.565414       -15.3857
  48   1.0000      -0.558505       -15.1977
  49   1.0000      -0.554361       -15.0849
  50   1.0000      -0.546688       -14.8761
  51   1.0000      -0.544018       -14.8035
  52   1.0000      -0.531609       -14.4658
  53   1.0000      -0.522648       -14.2220
  54   1.0000      -0.505254       -13.7487
  55   1.0000      -0.501586       -13.6489
  56   1.0000      -0.481343       -13.0980
  57   1.0000      -0.435343       -11.8463
  58   1.0000      -0.423269       -11.5177
  59   1.0000      -0.416483       -11.3331
  60   1.0000      -0.411951       -11.2097
  61   1.0000      -0.407886       -11.0991
  62   1.0000      -0.395284       -10.7562
  63   1.0000      -0.392712       -10.6862
  64   1.0000      -0.380727       -10.3601
  65   1.0000      -0.345674        -9.4063
  66   1.0000      -0.327142        -8.9020
  67   0.0000       0.008290         0.2256
  68   0.0000       0.028354         0.7715
  69   0.0000       0.034592         0.9413
  70   0.0000       0.036045         0.9808
  71   0.0000       0.054790         1.4909

                 SPIN DOWN ORBITALS
  NO   OCC          E(Eh)            E(eV)
   0   1.0000     -19.336966      -526.1856
   1   1.0000     -19.327354      -525.9240
   2   1.0000     -19.323067      -525.8074
   3   1.0000     -19.322338      -525.7876
   4   1.0000     -14.570282      -396.4775
   5   1.0000     -14.569338      -396.4518
   6   1.0000     -14.567757      -396.4088
   7   1.0000     -14.560377      -396.2080
   8   1.0000     -10.511350      -286.0284
   9   1.0000     -10.510185      -285.9967
  10   1.0000     -10.486863      -285.3620
  11   1.0000     -10.478220      -285.1269
  12   1.0000     -10.452598      -284.4296
  13   1.0000     -10.440811      -284.1089
  14   1.0000     -10.407382      -283.1993
  15   1.0000     -10.406985      -283.1885
  16   1.0000     -10.373550      -282.2786
  17   1.0000     -10.367949      -282.1262
  18   1.0000      -1.239260       -33.7220
  19   1.0000      -1.224064       -33.3085
  20   1.0000      -1.186683       -32.2913
  21   1.0000      -1.175748       -31.9937
  22   1.0000      -1.127026       -30.6679
  23   1.0000      -1.109487       -30.1907
  24   1.0000      -1.076899       -29.3039
  25   1.0000      -1.065851       -29.0033
  26   1.0000      -0.974888       -26.5281
  27   1.0000      -0.938141       -25.5281
  28   1.0000      -0.887734       -24.1565
  29   1.0000      -0.843638       -22.9566
  30   1.0000      -0.822482       -22.3809
  31   1.0000      -0.807627       -21.9767
  32   1.0000      -0.796876       -21.6841
  33   1.0000      -0.783025       -21.3072
  34   1.0000      -0.703162       -19.1340
  35   1.0000      -0.697323       -18.9751
  36   1.0000      -0.692295       -18.8383
  37   1.0000      -0.674751       -18.3609
  38   1.0000      -0.650645       -17.7049
  39   1.0000      -0.643530       -17.5113
  40   1.0000      -0.621405       -16.9093
  41   1.0000      -0.599116       -16.3028
  42   1.0000      -0.596454       -16.2304
  43   1.0000      -0.586235       -15.9523
  44   1.0000      -0.572871       -15.5886
  45   1.0000      -0.568337       -15.4652
  46   1.0000      -0.563833       -15.3427
  47   1.0000      -0.559501       -15.2248
  48   1.0000      -0.553551       -15.0629
  49   1.0000      -0.543408       -14.7869
  50   1.0000      -0.539880       -14.6909
  51   1.0000      -0.533193       -14.5089
  52   1.0000      -0.524446       -14.2709
  53   1.0000      -0.513066       -13.9612
  54   1.0000      -0.498835       -13.5740
  55   1.0000      -0.493758       -13.4358
  56   1.0000      -0.476238       -12.9591
  57   1.0000      -0.431166       -11.7326
  58   1.0000      -0.419258       -11.4086
  59   1.0000      -0.411192       -11.1891
  60   1.0000      -0.399387       -10.8679
  61   1.0000      -0.390385       -10.6229
  62   1.0000      -0.388295       -10.5660
  63   1.0000      -0.387288       -10.5386
  64   1.0000      -0.370751       -10.0887
  65   0.0000      -0.064465        -1.7542
  66   0.0000      -0.052933        -1.4404
  67   0.0000       0.007795         0.2121
  68   0.0000       0.027917         0.7597
  69   0.0000       0.034378         0.9355

----------------------------------------------------------------------------------------------------
          SPIN FLIP ABSORPTION SPECTRUM VIA TRANSITION ELECTRIC DIPOLE MOMENTS
----------------------------------------------------------------------------------------------------
     Transition      Energy     Energy  Wavelength fosc(D2)      D2        DX        DY        DZ
                      (eV)      (cm-1)    (nm)                 (au**2)    (au)      (au)      (au)
----------------------------------------------------------------------------------------------------
  1-3A  ->  2-3A    0.036908     297.7  33593.1   0.000008471   0.00937   0.08464  -0.03953  -0.02533
  1-3A  ->  3-3A    1.968471   15876.8   629.9   0.000370197   0.00768   0.04682  -0.01029   0.07333

Dispersion correction             ... done (  0.1 sec)

MULLIKEN ATOMIC CHARGES AND SPIN DENSITIES
------------------------------------------
   0 O :   -0.738393    0.055351
   1 O :   -0.710176   -0.088171
   2 O :   -0.681336    0.001753
   3 O :   -0.591486    0.000026
   4 N :   -0.154583   -0.005003
   5 N :   -0.341160   -0.010551
   6 N :    0.016575    0.005483
   7 N :    0.090696   -0.004894
   8 C :    0.116491    0.315911
   9 C :    0.486044    0.312232
  10 C :    0.575272   -0.004898
  11 C :    0.266442   -0.299982
  12 C :   -1.423567    0.002308
  13 C :   -1.171646   -0.059409
  14 C :    0.437835   -0.029516
  15 C :   -0.011974   -0.245696
  16 C :    0.427821    0.000149
  17 C :    0.392595    0.007886
  18 H :    0.491275    0.019929
  19 H :    0.533716   -0.018859
  20 H :    0.364487    0.007462
  21 H :    0.264660    0.014517
  22 H :    0.362047    0.005656
  23 H :    0.318332   -0.008674
  24 H :    0.337089    0.012894
  25 H :    0.175767    0.016710
  26 H :    0.005572   -0.002739
  27 H :    0.105151    0.001866
  28 H :    0.048592   -0.003945
  29 H :    0.007864    0.002204
Sum of atomic charges       :   -0.0000000

LOEWDIN ATOMIC CHARGES AND SPIN DENSITIES
-----------------------------------------
   0 O :    0.054859    0.045693
   1 O :    0.044685   -0.081312
   2 O :    0.083460    0.001276
   3 O :    0.127216    0.000030
   4 N :    0.282934   -0.000413
   5 N :    0.268233   -0.000557
   6 N :    0.336322    0.005990
   7 N :    0.348634   -0.007135
   8 C :   -0.040968    0.225891
   9 C :   -0.011686   -0.196483
  10 C :   -0.111980    0.012773
  11 C :   -0.121516   -0.009081
  12 C :    0.181046    0.036314
  13 C :    0.201234   -0.031912
  14 C :   -0.472471    0.033074
  15 C :   -0.372950   -0.036988
  16 C :   -0.457148   -0.000762
  17 C :   -0.492340   -0.000043
  18 H :    0.093507    0.002736
  19 H :    0.055695   -0.001668
  20 H :    0.023260    0.004282
  21 H :   -0.039771    0.011195
  22 H :    0.036289    0.004067
  23 H :    0.003492    0.000633
  24 H :    0.031250   -0.008487
  25 H :   -0.000158   -0.008997
  26 H :   -0.022015   -0.000027
  27 H :   -0.024692    0.000089
  28 H :    0.029705    0.000527
  29 H :   -0.034124   -0.000705

  Mayer bond orders larger than 0.100000
B(  0-O , 14-C ) :   1.2900 B(  1-O , 15-C ) :   1.2669 B(  2-O , 16-C ) :   1.4892
B(  3-O , 17-C ) :   1.6145 B(  4-N ,  8-C ) :   0.1946 B(  4-N ,  9-C ) :   0.1521
B(  4-N , 10-C ) :   0.3037 B(  4-N , 16-C ) :   1.0604 B(  4-N , 26-H ) :   1.1200
B(  5-N ,  9-C ) :   0.2474 B(  5-N , 11-C ) :  -0.1886 B(  5-N , 17-C ) :   1.1635
B(  5-N , 27-H ) :   1.0129 B(  6-N ,  8-C ) :  -0.1630 B(  6-N , 10-C ) :   0.1154
B(  6-N , 14-C ) :   1.1628 B(  6-N , 16-C ) :   0.9432 B(  6-N , 28-H ) :   1.1047
B(  7-N , 11-C ) :   0.1210 B(  7-N , 15-C ) :   1.0651 B(  7-N , 17-C ) :   0.9308
B(  7-N , 29-H ) :   1.1324 B(  8-C ,  9-C ) :   0.1602 B(  8-C , 10-C ) :   0.2982
B(  8-C , 11-C ) :   0.2873 B(  8-C , 12-C ) :   0.5400 B(  8-C , 14-C ) :   0.8462
B(  8-C , 18-H ) :  -0.2289 B(  9-C , 10-C ) :   0.1546 B(  9-C , 11-C ) :   0.3940
B(  9-C , 13-C ) :   0.3934 B(  9-C , 15-C ) :   0.7509 B(  9-C , 19-H ) :  -0.1134
B(  9-C , 23-H ) :  -0.1099 B( 10-C , 11-C ) :   0.5389 B( 10-C , 12-C ) :  -0.1185
B( 10-C , 14-C ) :  -0.1080 B( 10-C , 18-H ) :   0.9297 B( 11-C , 13-C ) :  -0.1057
B( 11-C , 15-C ) :  -0.1057 B( 11-C , 17-C ) :  -0.1489 B( 11-C , 18-H ) :  -0.1266
B( 11-C , 19-H ) :   0.8330 B( 12-C , 20-H ) :   0.8664 B( 12-C , 21-H ) :   0.9435
B( 12-C , 22-H ) :   0.9695 B( 13-C , 23-H ) :   1.0174 B( 13-C , 24-H ) :   0.9472
B( 13-C , 25-H ) :   0.8739

Dispersion correction           -0.060415749
FINAL SINGLE POINT ENERGY      -908.777532497694

DIPOLE MOMENT
-------------

Method             : TDA/CIS
Type of density    : Electron Density
Level              : Relaxed density
State              :   2
Multiplicity       :   3
Irrep              :   0
Energy             :     0.0000000000000000 Eh
Relativity type    :
Basis              : AO
                                X                 Y                 Z
Electronic contribution:    -10.008169334      -5.737672107       0.222824790
Nuclear contribution   :     11.788601725       6.618637156       1.443226990
                        -----------------------------------------
Total Dipole Moment    :      1.780432390       0.880965049       1.666051780
                        -----------------------------------------
Magnitude (a.u.)       :      2.592637161
Magnitude (Debye)      :      6.589959950

Rotational constants in cm-1:             0.021986             0.012801             0.012172
Rotational constants in MHz :           659.116919           383.762730           364.897118

                             ****ORCA TERMINATED NORMALLY****
TOTAL RUN TIME: 0 days 0 hours 5 minutes 30 seconds 168 msec
