                         Program Version 6.0.0  -   RELEASE  -
|  1> ! Opt wB97M-D3BJ def2-TZVPPD
|  2> %pal nprocs 8 end %pal nprocs 64 end
|  3> %geom
|  4> Constraints
|  5>     {A 2 1 0 70.9090909090909 C }
|  6> end
|  7> MaxIter 500
|  8> end
|  9> *xyz 0 1
| 10> O   -0.0007 0.8141 0.0
| 11> C   0.7509 -0.4065 0.0
| 12> C   -0.7502 -0.4076 0.0
| 13> H   1.2625 -0.6786 0.9136
| 14> H   1.2625 -0.6787 -0.9136
| 15> H   -1.2614 -0.6806 -0.9136
| 16> H   -1.2614 -0.6805 0.9136
| 17> *
| 18>
| 19>                          ****END OF INPUT****
 Total Charge           Charge          ....    0
 Multiplicity           Mult            ....    1
 Number of Electrons    NEL             ....   24
Dispersion correction           -0.005264566
FINAL SINGLE POINT ENERGY      -153.869104296223
Dispersion correction             ... done (  0.1 sec)
Dispersion correction           -0.005243770
FINAL SINGLE POINT ENERGY      -153.872843892777
Dispersion correction             ... done (  0.1 sec)
Dispersion correction           -0.005236838
FINAL SINGLE POINT ENERGY      -153.873907268183
Dispersion correction             ... done (  0.1 sec)
FINAL SINGLE POINT ENERGY      -153.874048752987
Dispersion correction             ... done (  0.1 sec)
Dispersion correction           -0.005239022
FINAL SINGLE POINT ENERGY      -153.874109825377
Dispersion correction             ... done (  0.1 sec)
Dispersion correction           -0.005240290
FINAL SINGLE POINT ENERGY      -153.874117482263
Dispersion correction             ... done (  0.2 sec)
                    ***********************HURRAY********************

CARTESIAN COORDINATES (ANGSTROEM)
---------------------------------
  O      0.101423    0.850296   -0.000118
  C      0.684753   -0.385949    0.000226
  C     -0.728286   -0.538697   -0.000305
  H      1.235306   -0.652392    0.902062
  H      1.234802   -0.652887   -0.901867
  H     -1.263284   -0.669730   -0.926012
  H     -1.262512   -0.669041    0.926013

 Multiplicity           Mult            ....    1
 Number of Electrons    NEL             ....   24
 Basis Dimension        Dim             ....  182

ORBITAL ENERGIES
----------------

  NO   OCC          E(Eh)            E(eV)
   0   2.0000     -19.348180      -526.4907
   1   2.0000     -10.406865      -283.1852
   2   2.0000     -10.396753      -282.9100
   3   2.0000      -1.183150       -32.1951
   4   2.0000      -0.828977       -22.5576
   5   2.0000      -0.745204       -20.2780
   6   2.0000      -0.629120       -17.1192
   7   2.0000      -0.591455       -16.0943
   8   2.0000      -0.498647       -13.5689
   9   2.0000      -0.493709       -13.4345
  10   2.0000      -0.421885       -11.4801
  11   2.0000      -0.379409       -10.3243
  12   0.0000       0.040321         1.0972
  13   0.0000       0.057572         1.5666
  14   0.0000       0.066427         1.8076
  15   0.0000       0.077257         2.1023
  16   0.0000       0.110672         3.0115

MULLIKEN ATOMIC CHARGES
-----------------------
   0 O :   -0.406931
   1 C :   -0.118349
   2 C :   -0.245588
   3 H :    0.195083
   4 H :    0.195029
   5 H :    0.190382
   6 H :    0.190374
Sum of atomic charges:    0.0000000

LOEWDIN ATOMIC CHARGES
----------------------
   0 O :   -0.028794
   1 C :   -0.175426
   2 C :    0.155368
   3 H :    0.022152
   4 H :    0.022150
   5 H :    0.002282
   6 H :    0.002268

  Mayer bond orders larger than 0.100000
B(  0-O ,  1-C ) :   0.7420 B(  0-O ,  2-C ) :   0.8919 B(  1-C ,  2-C ) :   0.8038
B(  1-C ,  3-H ) :   1.0422 B(  1-C ,  4-H ) :   1.0423 B(  2-C ,  5-H ) :   0.9892
B(  2-C ,  6-H ) :   0.9893

Dispersion correction           -0.005240893
FINAL SINGLE POINT ENERGY      -153.874118857811

DIPOLE MOMENT
-------------

Method             : SCF
Type of density    : Electron Density
Multiplicity       :   1
Irrep              :   0
Energy             :  -153.8688779644265878 Eh
Relativity type    :
Basis              : AO
                                X                 Y                 Z
Electronic contribution:      0.013583120       1.562109625      -0.000346916
Nuclear contribution   :     -0.140001579      -2.453706802       0.000408398
                        -----------------------------------------
Total Dipole Moment    :     -0.126418459      -0.891597177       0.000061482
                        -----------------------------------------
Magnitude (a.u.)       :      0.900514939
Magnitude (Debye)      :      2.288927072

Rotational constants in cm-1:             0.892660             0.677312             0.455168
Rotational constants in MHz :         26761.285828         20305.310270         13645.581874

                             ****ORCA TERMINATED NORMALLY****
TOTAL RUN TIME: 0 days 0 hours 1 minutes 34 seconds 230 msec
