                         Program Version 6.0.0  -   RELEASE  -
|  1> ! Engrad def2-TZVPPD wB97M-D3BJ
|  2> %pal nprocs 8 end%pal nprocs 32 end
|  3> %tddft Nroots 2 Iroot 2
|  4> sf true
|  5> end
|  6> *xyz 0 3
|  7> O   0.81327338 1.38951878 -0.00041788
|  8> C   0.52211397 0.22269398 0.21592016
|  9> C   -0.46015738 -0.80236879 -0.23992649
| 10> H   1.17847554 -0.25877339 0.96298809
| 11> H   0.11253427 -1.6560018 -0.61861709
| 12> H   -1.17785539 -0.47652898 -0.99369917
| 13> H   -0.99229294 -1.15539026 0.65458613
| 14> *
| 15>
| 16>                          ****END OF INPUT****

CARTESIAN COORDINATES (ANGSTROEM)
---------------------------------
  O      0.813273    1.389519   -0.000418
  C      0.522114    0.222694    0.215920
  C     -0.460157   -0.802369   -0.239926
  H      1.178476   -0.258773    0.962988
  H      0.112534   -1.656002   -0.618617
  H     -1.177855   -0.476529   -0.993699
  H     -0.992293   -1.155390    0.654586

 Total Charge           Charge          ....    0
 Multiplicity           Mult            ....    3
 Number of Electrons    NEL             ....   24
 Basis Dimension        Dim             ....  182

ORBITAL ENERGIES
----------------
                 SPIN UP ORBITALS
  NO   OCC          E(Eh)            E(eV)
   0   1.0000     -19.409692      -528.1646
   1   1.0000     -10.382351      -282.5181
   2   1.0000     -10.371367      -282.2192
   3   1.0000      -1.233734       -33.5716
   4   1.0000      -0.889161       -24.1953
   5   1.0000      -0.717410       -19.5217
   6   1.0000      -0.626233       -17.0407
   7   1.0000      -0.588272       -16.0077
   8   1.0000      -0.576089       -15.6762
   9   1.0000      -0.515583       -14.0297
  10   1.0000      -0.513764       -13.9802
  11   1.0000      -0.428569       -11.6620
  12   1.0000      -0.223428        -6.0798
  13   0.0000       0.037299         1.0150
  14   0.0000       0.059589         1.6215
  15   0.0000       0.077863         2.1188
  16   0.0000       0.087636         2.3847
  17   0.0000       0.106022         2.8850

                 SPIN DOWN ORBITALS
  NO   OCC          E(Eh)            E(eV)
   0   1.0000     -19.382239      -527.4175
   1   1.0000     -10.371731      -282.2291
   2   1.0000     -10.369763      -282.1756
   3   1.0000      -1.175673       -31.9917
   4   1.0000      -0.870255       -23.6808
   5   1.0000      -0.672503       -18.2997
   6   1.0000      -0.583131       -15.8678
   7   1.0000      -0.538382       -14.6501
   8   1.0000      -0.534628       -14.5480
   9   1.0000      -0.495368       -13.4797
  10   1.0000      -0.467234       -12.7141
  11   0.0000      -0.080388        -2.1875
  12   0.0000       0.038541         1.0488
  13   0.0000       0.059420         1.6169
  14   0.0000       0.077493         2.1087
  15   0.0000       0.084168         2.2903

----------------------------------------------------------------------------------------------------
          SPIN FLIP ABSORPTION SPECTRUM VIA TRANSITION ELECTRIC DIPOLE MOMENTS
----------------------------------------------------------------------------------------------------
     Transition      Energy     Energy  Wavelength fosc(D2)      D2        DX        DY        DZ
                      (eV)      (cm-1)    (nm)                 (au**2)    (au)      (au)      (au)
----------------------------------------------------------------------------------------------------
  1-3A  ->  2-3A    4.430572   35735.0   279.8   0.000287519   0.00265   0.03429  -0.01345  -0.03595

Dispersion correction             ... done (  0.1 sec)

MULLIKEN ATOMIC CHARGES AND SPIN DENSITIES
------------------------------------------
   0 O :   -0.283905    0.590962
   1 C :    0.256853   -0.598376
   2 C :   -0.701592    0.100538
   3 H :    0.071175    0.014987
   4 H :    0.206419   -0.051361
   5 H :    0.244855   -0.001707
   6 H :    0.206195   -0.055043
Sum of atomic charges       :   -0.0000000

LOEWDIN ATOMIC CHARGES AND SPIN DENSITIES
-----------------------------------------
   0 O :    0.145685    0.405359
   1 C :   -0.237581   -0.346935
   2 C :    0.120248   -0.033676
   3 H :    0.009894    0.018658
   4 H :   -0.017942   -0.026090
   5 H :   -0.005423    0.008934
   6 H :   -0.014881   -0.026250

  Mayer bond orders larger than 0.100000
B(  0-O ,  1-C ) :   1.2487 B(  1-C ,  2-C ) :   0.6222 B(  1-C ,  3-H ) :   0.9954
B(  2-C ,  4-H ) :   1.0169 B(  2-C ,  5-H ) :   0.9314 B(  2-C ,  6-H ) :   1.0175

Dispersion correction           -0.005483343
FINAL SINGLE POINT ENERGY      -153.751842539777

DIPOLE MOMENT
-------------

Method             : TDA/CIS
Type of density    : Electron Density
Level              : Relaxed density
State              :   2
Multiplicity       :   3
Irrep              :   0
Energy             :     0.0000000000000000 Eh
Relativity type    :
Basis              : AO
                                X                 Y                 Z
Electronic contribution:      1.662893574       3.667672304      -0.014036679
Nuclear contribution   :     -1.913387254      -4.306913839       0.029704595
                        -----------------------------------------
Total Dipole Moment    :     -0.250493680      -0.639241535       0.015667916
                        -----------------------------------------
Magnitude (a.u.)       :      0.686747630
Magnitude (Debye)      :      1.745573752

Rotational constants in cm-1:             2.372794             0.304203             0.283785
Rotational constants in MHz :         71134.578259          9119.770723          8507.658681

                             ****ORCA TERMINATED NORMALLY****
TOTAL RUN TIME: 0 days 0 hours 0 minutes 56 seconds 647 msec
