                         Program Version 6.0.0  -   RELEASE  -
|  1> ! Engrad def2-TZVPPD wB97M-D3BJ
|  2> %pal nprocs 8 end%pal nprocs 64 end
|  3> %tddft
|  4>  Iroot 1 Nroots 3
|  5> sf true
|  6> end
|  7> *xyz 0 3
|  8> O   -0.34975013 -0.37344858 0.77959869
|  9> C   0.40117358 0.61556435 0.12287358
| 10> C   1.24974407 -0.04918936 -0.78308433
| 11> H   0.89671363 1.09733758 1.09733295
| 12> H   -0.1760517 1.39893289 -0.41687079
| 13> H   1.7416213 -0.82388832 -0.27550697
| 14> H   1.44691642 0.2173961 -1.79199941
| 15> *
| 16>
| 17>                          ****END OF INPUT****

CARTESIAN COORDINATES (ANGSTROEM)
---------------------------------
  O     -0.349750   -0.373449    0.779599
  C      0.401174    0.615564    0.122874
  C      1.249744   -0.049189   -0.783084
  H      0.896714    1.097338    1.097333
  H     -0.176052    1.398933   -0.416871
  H      1.741621   -0.823888   -0.275507
  H      1.446916    0.217396   -1.791999

 Total Charge           Charge          ....    0
 Multiplicity           Mult            ....    3
 Number of Electrons    NEL             ....   24
 Basis Dimension        Dim             ....  182

ORBITAL ENERGIES
----------------
                 SPIN UP ORBITALS
  NO   OCC          E(Eh)            E(eV)
   0   1.0000     -19.389243      -527.6081
   1   1.0000     -10.416703      -283.4529
   2   1.0000     -10.357760      -281.8490
   3   1.0000      -1.161471       -31.6052
   4   1.0000      -0.891166       -24.2498
   5   1.0000      -0.726913       -19.7803
   6   1.0000      -0.622833       -16.9482
   7   1.0000      -0.596801       -16.2398
   8   1.0000      -0.546781       -14.8787
   9   1.0000      -0.507443       -13.8082
  10   1.0000      -0.442580       -12.0432
  11   1.0000      -0.418024       -11.3750
  12   1.0000      -0.323592        -8.8054
  13   0.0000       0.040858         1.1118
  14   0.0000       0.062235         1.6935
  15   0.0000       0.076210         2.0738
  16   0.0000       0.086515         2.3542
  17   0.0000       0.111785         3.0418

                 SPIN DOWN ORBITALS
  NO   OCC          E(Eh)            E(eV)
   0   1.0000     -19.364151      -526.9253
   1   1.0000     -10.418341      -283.4975
   2   1.0000     -10.344983      -281.5013
   3   1.0000      -1.105315       -30.0771
   4   1.0000      -0.857057       -23.3217
   5   1.0000      -0.702382       -19.1128
   6   1.0000      -0.602358       -16.3910
   7   1.0000      -0.546980       -14.8841
   8   1.0000      -0.517111       -14.0713
   9   1.0000      -0.487872       -13.2757
  10   1.0000      -0.386818       -10.5258
  11   0.0000      -0.050511        -1.3745
  12   0.0000      -0.005909        -0.1608
  13   0.0000       0.040033         1.0894
  14   0.0000       0.062189         1.6922
  15   0.0000       0.075975         2.0674

----------------------------------------------------------------------------------------------------
          SPIN FLIP ABSORPTION SPECTRUM VIA TRANSITION ELECTRIC DIPOLE MOMENTS
----------------------------------------------------------------------------------------------------
     Transition      Energy     Energy  Wavelength fosc(D2)      D2        DX        DY        DZ
                      (eV)      (cm-1)    (nm)                 (au**2)    (au)      (au)      (au)
----------------------------------------------------------------------------------------------------
  1-3A  ->  2-3A    0.239587    1932.4  5174.9   0.000892289   0.15201  -0.21039  -0.09057   0.31551
  1-3A  ->  3-1A    1.147854    9258.1  1080.1   0.038233173   1.35955  -0.88410  -0.24962   0.71806

Dispersion correction             ... done (  0.1 sec)

MULLIKEN ATOMIC CHARGES AND SPIN DENSITIES
------------------------------------------
   0 O :   -0.445546   -0.087374
   1 C :   -0.047554   -0.041218
   2 C :   -0.400084    0.153174
   3 H :    0.227737    0.000335
   4 H :    0.209976   -0.061905
   5 H :    0.250057    0.011252
   6 H :    0.205414    0.025737
Sum of atomic charges       :   -0.0000000

LOEWDIN ATOMIC CHARGES AND SPIN DENSITIES
-----------------------------------------
   0 O :   -0.065575   -0.101369
   1 C :   -0.321147   -0.036262
   2 C :    0.353717    0.163250
   3 H :    0.085122   -0.020020
   4 H :    0.025397   -0.042970
   5 H :   -0.050245    0.019428
   6 H :   -0.027269    0.017944

  Mayer bond orders larger than 0.100000
B(  0-O ,  1-C ) :   0.7674 B(  0-O ,  2-C ) :   0.5276 B(  1-C ,  2-C ) :   0.8439
B(  1-C ,  3-H ) :   0.9857 B(  1-C ,  4-H ) :   0.9751 B(  2-C ,  5-H ) :   0.9593
B(  2-C ,  6-H ) :   0.9606

Dispersion correction           -0.005619483
FINAL SINGLE POINT ENERGY      -153.746552398768

DIPOLE MOMENT
-------------

Method             : TDA/CIS
Type of density    : Electron Density
Level              : Relaxed density
State              :   1
Multiplicity       :   3
Irrep              :   0
Energy             :     0.0000000000000000 Eh
Relativity type    :
Basis              : AO
                                X                 Y                 Z
Electronic contribution:     -1.131809882      -0.921043749       0.742695072
Nuclear contribution   :      2.108072499       1.533706239      -1.558717414
                        -----------------------------------------
Total Dipole Moment    :      0.976262617       0.612662490      -0.816022342
                        -----------------------------------------
Magnitude (a.u.)       :      1.412209788
Magnitude (Debye)      :      3.589552015

Rotational constants in cm-1:             1.337970             0.387818             0.331365
Rotational constants in MHz :         40111.319826         11626.492625          9934.078201

                             ****ORCA TERMINATED NORMALLY****
TOTAL RUN TIME: 0 days 0 hours 0 minutes 26 seconds 687 msec
