                         Program Version 6.0.0  -   RELEASE  -
|  1> ! Engrad def2-TZVPPD wB97M-D3BJ
|  2> %pal nprocs 8 end%pal nprocs 64 end
|  3>  %tddft nroots 2 Iroot 2
|  4> sf true
|  5> end
|  6> *xyz 0 3
|  7> O   2.92812790382575 1.24946944897342 -0.49542113630048
|  8> O   -0.53235617682653 0.42689048907514 -1.86384177046814
|  9> O   1.41271911698873 -2.83522561491932 -1.79348577361943
| 10> O   -3.11498066377766 -1.36854654644291 1.40034096758055
| 11> N   0.76606334840454 -2.01756093118578 0.23059647534687
| 12> N   -2.35530295435989 0.76512369835537 1.65863191754282
| 13> N   2.20718443763049 -0.81020699717255 -1.09728477850564
| 14> N   -1.9234107950482 -0.38798143178261 -0.27991706501035
| 15> C   1.47635868419297 0.12008908276034 1.00275634212733
| 16> C   -0.94639750256071 1.79416551143382 0.03439663245292
| 17> C   0.79602728514632 -1.02027657478737 1.17437558070989
| 18> C   -1.61856758742924 1.83348049825846 1.18869924766439
| 19> C   1.58575632107101 1.18529724532976 2.04550308384061
| 20> C   -0.13659692716481 2.93107611574173 -0.5004689034778
| 21> C   2.25907046878242 0.2728033366181 -0.22770607290108
| 22> C   -1.08222353411612 0.59803904070662 -0.79782936199799
| 23> C   1.45594834931717 -1.95726340728851 -0.96456954475941
| 24> C   -2.51647750458673 -0.41020566245228 0.96171319302337
| 25> H   0.21945021187556 -1.21702765820364 2.06636243774656
| 26> H   -1.59293546560119 2.69356849008261 1.84020302156843
| 27> H   1.35443644185232 2.16268240779563 1.63106332386689
| 28> H   0.91006526081661 0.98295099040615 2.87387705834302
| 29> H   2.6030717545555 1.23848523684562 2.43010939032778
| 30> H   -0.52330311788565 3.24973895398519 -1.46662643647404
| 31> H   -0.16345168529887 3.77624770816549 0.18383839964182
| 32> H   0.89938702196937 2.63701438129619 -0.65425204420021
| 33> H   0.22615484197541 -2.85112963526399 0.37811824015563
| 34> H   -2.81150266957186 0.80323587837529 2.55187907206289
| 35> H   2.68577778795514 -0.70182276463619 -1.97731667055043
| 36> H   -2.01549265213184 -1.22811129006987 -0.82914482573678
| 37> *
| 38>
| 39>                          ****END OF INPUT****

CARTESIAN COORDINATES (ANGSTROEM)
---------------------------------
  O      2.928128    1.249469   -0.495421
  O     -0.532356    0.426890   -1.863842
  O      1.412719   -2.835226   -1.793486
  O     -3.114981   -1.368547    1.400341
  N      0.766063   -2.017561    0.230596
  N     -2.355303    0.765124    1.658632
  N      2.207184   -0.810207   -1.097285
  N     -1.923411   -0.387981   -0.279917
  C      1.476359    0.120089    1.002756
  C     -0.946398    1.794166    0.034397
  C      0.796027   -1.020277    1.174376
  C     -1.618568    1.833480    1.188699
  C      1.585756    1.185297    2.045503
  C     -0.136597    2.931076   -0.500469
  C      2.259070    0.272803   -0.227706
  C     -1.082224    0.598039   -0.797829
  C      1.455948   -1.957263   -0.964570
  C     -2.516478   -0.410206    0.961713
  H      0.219450   -1.217028    2.066362
  H     -1.592935    2.693568    1.840203
  H      1.354436    2.162682    1.631063
  H      0.910065    0.982951    2.873877
  H      2.603072    1.238485    2.430109
  H     -0.523303    3.249739   -1.466626
  H     -0.163452    3.776248    0.183838
  H      0.899387    2.637014   -0.654252
  H      0.226155   -2.851130    0.378118
  H     -2.811503    0.803236    2.551879
  H      2.685778   -0.701823   -1.977317
  H     -2.015493   -1.228111   -0.829145

 Total Charge           Charge          ....    0
 Multiplicity           Mult            ....    3
 Number of Electrons    NEL             ....  132
 Basis Dimension        Dim             ....  882

ORBITAL ENERGIES
----------------
                 SPIN UP ORBITALS
  NO   OCC          E(Eh)            E(eV)
   0   1.0000     -19.328663      -525.9596
   1   1.0000     -19.328037      -525.9426
   2   1.0000     -19.326344      -525.8966
   3   1.0000     -19.315798      -525.6096
   4   1.0000     -14.592485      -397.0817
   5   1.0000     -14.586391      -396.9159
   6   1.0000     -14.572114      -396.5274
   7   1.0000     -14.545635      -395.8069
   8   1.0000     -10.515374      -286.1379
   9   1.0000     -10.505778      -285.8768
  10   1.0000     -10.481536      -285.2171
  11   1.0000     -10.454816      -284.4900
  12   1.0000     -10.435324      -283.9596
  13   1.0000     -10.405688      -283.1532
  14   1.0000     -10.395252      -282.8692
  15   1.0000     -10.383096      -282.5384
  16   1.0000     -10.368885      -282.1517
  17   1.0000     -10.352789      -281.7137
  18   1.0000      -1.228390       -33.4262
  19   1.0000      -1.221993       -33.2521
  20   1.0000      -1.196690       -32.5636
  21   1.0000      -1.186192       -32.2779
  22   1.0000      -1.125007       -30.6130
  23   1.0000      -1.122673       -30.5495
  24   1.0000      -1.072256       -29.1776
  25   1.0000      -1.057155       -28.7667
  26   1.0000      -0.974475       -26.5168
  27   1.0000      -0.959103       -26.0985
  28   1.0000      -0.856414       -23.3042
  29   1.0000      -0.849215       -23.1083
  30   1.0000      -0.813476       -22.1358
  31   1.0000      -0.807640       -21.9770
  32   1.0000      -0.796622       -21.6772
  33   1.0000      -0.786914       -21.4130
  34   1.0000      -0.700294       -19.0560
  35   1.0000      -0.698056       -18.9951
  36   1.0000      -0.694601       -18.9010
  37   1.0000      -0.689062       -18.7503
  38   1.0000      -0.644667       -17.5423
  39   1.0000      -0.637105       -17.3365
  40   1.0000      -0.628690       -17.1075
  41   1.0000      -0.606693       -16.5089
  42   1.0000      -0.599854       -16.3229
  43   1.0000      -0.591503       -16.0956
  44   1.0000      -0.573582       -15.6080
  45   1.0000      -0.568257       -15.4630
  46   1.0000      -0.566668       -15.4198
  47   1.0000      -0.553629       -15.0650
  48   1.0000      -0.549959       -14.9651
  49   1.0000      -0.541379       -14.7317
  50   1.0000      -0.529966       -14.4211
  51   1.0000      -0.526546       -14.3280
  52   1.0000      -0.520991       -14.1769
  53   1.0000      -0.516648       -14.0587
  54   1.0000      -0.508413       -13.8346
  55   1.0000      -0.500704       -13.6249
  56   1.0000      -0.490371       -13.3437
  57   1.0000      -0.479569       -13.0497
  58   1.0000      -0.421363       -11.4659
  59   1.0000      -0.415595       -11.3089
  60   1.0000      -0.408350       -11.1118
  61   1.0000      -0.396238       -10.7822
  62   1.0000      -0.390277       -10.6200
  63   1.0000      -0.386722       -10.5232
  64   1.0000      -0.383264       -10.4291
  65   1.0000      -0.348326        -9.4784
  66   1.0000      -0.206916        -5.6305
  67   0.0000       0.010858         0.2955
  68   0.0000       0.018715         0.5093
  69   0.0000       0.028269         0.7693
  70   0.0000       0.037862         1.0303
  71   0.0000       0.041867         1.1393

                 SPIN DOWN ORBITALS
  NO   OCC          E(Eh)            E(eV)
   0   1.0000     -19.328626      -525.9586
   1   1.0000     -19.326361      -525.8970
   2   1.0000     -19.326035      -525.8882
   3   1.0000     -19.309783      -525.4459
   4   1.0000     -14.587206      -396.9381
   5   1.0000     -14.586223      -396.9113
   6   1.0000     -14.572075      -396.5263
   7   1.0000     -14.544772      -395.7834
   8   1.0000     -10.515368      -286.1377
   9   1.0000     -10.506230      -285.8890
  10   1.0000     -10.481511      -285.2164
  11   1.0000     -10.454479      -284.4808
  12   1.0000     -10.434948      -283.9494
  13   1.0000     -10.396140      -282.8934
  14   1.0000     -10.385028      -282.5910
  15   1.0000     -10.383168      -282.5404
  16   1.0000     -10.369374      -282.1650
  17   1.0000     -10.352772      -281.7133
  18   1.0000      -1.228212       -33.4214
  19   1.0000      -1.217576       -33.1319
  20   1.0000      -1.196650       -32.5625
  21   1.0000      -1.177211       -32.0335
  22   1.0000      -1.124639       -30.6030
  23   1.0000      -1.111587       -30.2478
  24   1.0000      -1.072064       -29.1723
  25   1.0000      -1.051789       -28.6206
  26   1.0000      -0.961483       -26.1633
  27   1.0000      -0.947911       -25.7940
  28   1.0000      -0.849114       -23.1056
  29   1.0000      -0.845200       -22.9991
  30   1.0000      -0.813100       -22.1256
  31   1.0000      -0.797547       -21.7024
  32   1.0000      -0.795711       -21.6524
  33   1.0000      -0.780037       -21.2259
  34   1.0000      -0.697757       -18.9869
  35   1.0000      -0.694769       -18.9056
  36   1.0000      -0.688266       -18.7287
  37   1.0000      -0.680849       -18.5268
  38   1.0000      -0.644296       -17.5322
  39   1.0000      -0.628127       -17.0922
  40   1.0000      -0.621206       -16.9039
  41   1.0000      -0.600464       -16.3394
  42   1.0000      -0.593887       -16.1605
  43   1.0000      -0.582999       -15.8642
  44   1.0000      -0.568641       -15.4735
  45   1.0000      -0.561406       -15.2766
  46   1.0000      -0.559746       -15.2315
  47   1.0000      -0.552655       -15.0385
  48   1.0000      -0.543016       -14.7762
  49   1.0000      -0.536387       -14.5958
  50   1.0000      -0.521402       -14.1881
  51   1.0000      -0.519378       -14.1330
  52   1.0000      -0.514892       -14.0109
  53   1.0000      -0.506442       -13.7810
  54   1.0000      -0.502019       -13.6606
  55   1.0000      -0.497021       -13.5246
  56   1.0000      -0.478356       -13.0167
  57   1.0000      -0.445845       -12.1321
  58   1.0000      -0.421088       -11.4584
  59   1.0000      -0.411331       -11.1929
  60   1.0000      -0.403712       -10.9856
  61   1.0000      -0.389996       -10.6123
  62   1.0000      -0.375833       -10.2269
  63   1.0000      -0.374330       -10.1860
  64   1.0000      -0.348985        -9.4964
  65   0.0000      -0.104890        -2.8542
  66   0.0000       0.010486         0.2853
  67   0.0000       0.020593         0.5604
  68   0.0000       0.026695         0.7264
  69   0.0000       0.035220         0.9584

----------------------------------------------------------------------------------------------------
          SPIN FLIP ABSORPTION SPECTRUM VIA TRANSITION ELECTRIC DIPOLE MOMENTS
----------------------------------------------------------------------------------------------------
     Transition      Energy     Energy  Wavelength fosc(D2)      D2        DX        DY        DZ
                      (eV)      (cm-1)    (nm)                 (au**2)    (au)      (au)      (au)
----------------------------------------------------------------------------------------------------
  1-3A  ->  2-3A    4.226695   34090.6   293.3   0.001702670   0.01644  -0.05805  -0.09515   0.06340

Dispersion correction             ... done (  0.1 sec)

MULLIKEN ATOMIC CHARGES AND SPIN DENSITIES
------------------------------------------
   0 O :   -0.702620    0.005629
   1 O :   -0.656958   -0.001925
   2 O :   -0.627144    0.005670
   3 O :   -0.665758    0.000226
   4 N :    0.075092    0.044878
   5 N :   -0.015796   -0.002760
   6 N :   -0.026384   -0.010369
   7 N :    0.003911    0.000236
   8 C :    1.232811    0.079961
   9 C :    0.440400    0.018229
  10 C :   -0.538311    0.000338
  11 C :    0.185961   -0.005464
  12 C :   -1.423683   -0.006950
  13 C :   -1.402863    0.008728
  14 C :    0.249147   -0.128210
  15 C :    0.489302   -0.021080
  16 C :    0.542046    0.007247
  17 C :    0.479728   -0.001098
  18 H :    0.194329    0.000334
  19 H :    0.185483   -0.000312
  20 H :    0.229303    0.008332
  21 H :    0.318648   -0.001818
  22 H :    0.411574    0.009938
  23 H :    0.374592    0.000110
  24 H :    0.323173   -0.000042
  25 H :    0.202457   -0.003622
  26 H :    0.037210   -0.004655
  27 H :    0.017019   -0.000972
  28 H :    0.023611    0.001375
  29 H :    0.043721   -0.001953
Sum of atomic charges       :    0.0000000

LOEWDIN ATOMIC CHARGES AND SPIN DENSITIES
-----------------------------------------
   0 O :    0.066685    0.005418
   1 O :    0.105137   -0.001173
   2 O :    0.113502    0.004561
   3 O :    0.077246    0.000171
   4 N :    0.318973    0.024321
   5 N :    0.280616   -0.000917
   6 N :    0.318577   -0.007790
   7 N :    0.331732   -0.000709
   8 C :   -0.104340    0.008068
   9 C :   -0.146131    0.000215
  10 C :   -0.002659   -0.017150
  11 C :    0.054627   -0.000063
  12 C :    0.206628    0.001842
  13 C :    0.183986   -0.000049
  14 C :   -0.433490   -0.009120
  15 C :   -0.397394   -0.000085
  16 C :   -0.464588   -0.002585
  17 C :   -0.489755   -0.000294
  18 H :    0.005110   -0.007491
  19 H :    0.038719   -0.000104
  20 H :   -0.010184    0.000979
  21 H :   -0.004013   -0.000477
  22 H :    0.015743    0.001099
  23 H :    0.005476    0.000014
  24 H :   -0.003043   -0.000043
  25 H :   -0.022133   -0.000090
  26 H :   -0.006332    0.002490
  27 H :   -0.021514   -0.000057
  28 H :   -0.009731   -0.000963
  29 H :   -0.007451   -0.000019

  Mayer bond orders larger than 0.100000
B(  0-O , 14-C ) :   1.2543 B(  1-O , 15-C ) :   1.4337 B(  2-O , 16-C ) :   1.5595
B(  3-O , 17-C ) :   1.5456 B(  4-N , 10-C ) :   0.9159 B(  4-N , 16-C ) :   0.9567
B(  4-N , 26-H ) :   1.1221 B(  5-N , 11-C ) :   0.9838 B(  5-N , 17-C ) :   1.0375
B(  5-N , 27-H ) :   1.1439 B(  6-N , 14-C ) :   0.9418 B(  6-N , 16-C ) :   0.9934
B(  6-N , 28-H ) :   1.1061 B(  7-N , 15-C ) :   1.0513 B(  7-N , 17-C ) :   0.9579
B(  7-N , 29-H ) :   1.0965 B(  8-C , 10-C ) :   0.3482 B(  8-C , 12-C ) :   0.2982
B(  8-C , 14-C ) :   0.7527 B(  8-C , 18-H ) :  -0.1767 B(  8-C , 21-H ) :  -0.1067
B(  9-C , 11-C ) :   1.0574 B(  9-C , 13-C ) :   0.4054 B(  9-C , 15-C ) :   0.8426
B(  9-C , 24-H ) :  -0.1091 B( 10-C , 12-C ) :  -0.1374 B( 10-C , 18-H ) :   1.2133
B( 11-C , 13-C ) :  -0.2358 B( 11-C , 19-H ) :   1.0655 B( 12-C , 20-H ) :   1.0446
B( 12-C , 21-H ) :   1.0277 B( 12-C , 22-H ) :   0.8141 B( 13-C , 23-H ) :   0.8771
B( 13-C , 24-H ) :   1.0758 B( 13-C , 25-H ) :   0.9728

Dispersion correction           -0.058215566
FINAL SINGLE POINT ENERGY      -908.768213994152

DIPOLE MOMENT
-------------

Method             : TDA/CIS
Type of density    : Electron Density
Level              : Relaxed density
State              :   2
Multiplicity       :   3
Irrep              :   0
Energy             :     0.0000000000000000 Eh
Relativity type    :
Basis              : AO
                                X                 Y                 Z
Electronic contribution:     -2.180692617      -9.719726012      -5.432381929
Nuclear contribution   :      1.238686719      10.731635342       7.565226649
                        -----------------------------------------
Total Dipole Moment    :     -0.942005898       1.011909329       2.132844720
                        -----------------------------------------
Magnitude (a.u.)       :      2.541724258
Magnitude (Debye)      :      6.460549635

Rotational constants in cm-1:             0.019693             0.013732             0.011066
Rotational constants in MHz :           590.377998           411.667036           331.740979

                             ****ORCA TERMINATED NORMALLY****
TOTAL RUN TIME: 0 days 0 hours 5 minutes 53 seconds 289 msec
