                         Program Version 6.0.0  -   RELEASE  -
|  1> ! Engrad def2-TZVPPD wB97M-D3BJ
|  2> %pal nprocs 8 end%pal nprocs 64 end
|  3> %tddft
|  4>  Iroot 2 Nroots 3
|  5> sf true
|  6> end
|  7> *xyz 0 3
|  8> O   2.8087551 -0.82156369 -1.93011918
|  9> O   -1.81230305 1.36016692 -1.86416299
| 10> O   -1.34298164 -2.28023866 -1.00695823
| 11> O   -3.0044423 0.30106949 2.25901054
| 12> N   -0.03577345 -1.53158523 0.70854011
| 13> N   -0.78928828 0.98426895 2.07408181
| 14> N   0.80909092 -1.65442625 -1.46400492
| 15> N   -2.20990409 0.48788629 0.18656215
| 16> C   2.07066588 -0.58329957 0.23948552
| 17> C   -0.07680471 1.4660143 -0.19187779
| 18> C   0.92505192 -0.55268846 1.12458937
| 19> C   0.39068079 0.88592937 1.18527183
| 20> C   3.3692002 0.17660749 0.55071158
| 21> C   0.8656508 2.10835025 -1.13491209
| 22> C   1.99400766 -1.05235887 -1.09898945
| 23> C   -1.36900885 1.18435797 -0.72425466
| 24> C   -0.28550175 -1.84513795 -0.6272116
| 25> C   -2.03763095 0.61199635 1.52603451
| 26> H   1.28547801 -0.62408395 2.15014805
| 27> H   1.13979003 1.58137422 1.57871414
| 28> H   4.30281991 -0.16665403 0.05925472
| 29> H   3.17363881 1.28268024 0.35633741
| 30> H   3.54854179 0.16542798 1.60856759
| 31> H   1.83075693 1.6006158 -1.18014548
| 32> H   0.37735097 2.21933463 -2.0932142
| 33> H   0.9671339 3.11027185 -0.73131162
| 34> H   -0.85915958 -1.56690079 1.21483866
| 35> H   -0.62311923 0.57428571 2.99186383
| 36> H   0.67436062 -1.84640919 -2.470729
| 37> H   -3.14157866 0.26745172 -0.10686874
| 38> *
| 39>
| 40>                          ****END OF INPUT****

CARTESIAN COORDINATES (ANGSTROEM)
---------------------------------
  O      2.808755   -0.821564   -1.930119
  O     -1.812303    1.360167   -1.864163
  O     -1.342982   -2.280239   -1.006958
  O     -3.004442    0.301069    2.259011
  N     -0.035773   -1.531585    0.708540
  N     -0.789288    0.984269    2.074082
  N      0.809091   -1.654426   -1.464005
  N     -2.209904    0.487886    0.186562
  C      2.070666   -0.583300    0.239486
  C     -0.076805    1.466014   -0.191878
  C      0.925052   -0.552688    1.124589
  C      0.390681    0.885929    1.185272
  C      3.369200    0.176607    0.550712
  C      0.865651    2.108350   -1.134912
  C      1.994008   -1.052359   -1.098989
  C     -1.369009    1.184358   -0.724255
  C     -0.285502   -1.845138   -0.627212
  C     -2.037631    0.611996    1.526035
  H      1.285478   -0.624084    2.150148
  H      1.139790    1.581374    1.578714
  H      4.302820   -0.166654    0.059255
  H      3.173639    1.282680    0.356337
  H      3.548542    0.165428    1.608568
  H      1.830757    1.600616   -1.180145
  H      0.377351    2.219335   -2.093214
  H      0.967134    3.110272   -0.731312
  H     -0.859160   -1.566901    1.214839
  H     -0.623119    0.574286    2.991864
  H      0.674361   -1.846409   -2.470729
  H     -3.141579    0.267452   -0.106869

 Total Charge           Charge          ....    0
 Multiplicity           Mult            ....    3
 Number of Electrons    NEL             ....  132
 Basis Dimension        Dim             ....  882

ORBITAL ENERGIES
----------------
                 SPIN UP ORBITALS
  NO   OCC          E(Eh)            E(eV)
   0   1.0000     -19.341729      -526.3152
   1   1.0000     -19.336078      -526.1614
   2   1.0000     -19.326390      -525.8978
   3   1.0000     -19.315063      -525.5896
   4   1.0000     -14.569753      -396.4631
   5   1.0000     -14.566161      -396.3654
   6   1.0000     -14.562092      -396.2547
   7   1.0000     -14.559210      -396.1762
   8   1.0000     -10.510257      -285.9986
   9   1.0000     -10.507612      -285.9266
  10   1.0000     -10.484213      -285.2899
  11   1.0000     -10.477746      -285.1140
  12   1.0000     -10.453662      -284.4586
  13   1.0000     -10.448979      -284.3312
  14   1.0000     -10.427746      -283.7534
  15   1.0000     -10.421651      -283.5875
  16   1.0000     -10.388188      -282.6770
  17   1.0000     -10.370031      -282.1829
  18   1.0000      -1.234153       -33.5830
  19   1.0000      -1.214120       -33.0379
  20   1.0000      -1.209543       -32.9133
  21   1.0000      -1.184644       -32.2358
  22   1.0000      -1.124644       -30.6031
  23   1.0000      -1.092739       -29.7349
  24   1.0000      -1.068802       -29.0836
  25   1.0000      -1.060230       -28.8503
  26   1.0000      -0.989912       -26.9369
  27   1.0000      -0.960196       -26.1283
  28   1.0000      -0.894962       -24.3531
  29   1.0000      -0.843447       -22.9514
  30   1.0000      -0.834805       -22.7162
  31   1.0000      -0.806264       -21.9396
  32   1.0000      -0.789562       -21.4851
  33   1.0000      -0.776834       -21.1387
  34   1.0000      -0.706480       -19.2243
  35   1.0000      -0.698370       -19.0036
  36   1.0000      -0.692176       -18.8351
  37   1.0000      -0.678849       -18.4724
  38   1.0000      -0.668609       -18.1938
  39   1.0000      -0.639870       -17.4117
  40   1.0000      -0.622719       -16.9451
  41   1.0000      -0.606791       -16.5116
  42   1.0000      -0.603552       -16.4235
  43   1.0000      -0.590856       -16.0780
  44   1.0000      -0.581068       -15.8117
  45   1.0000      -0.578917       -15.7531
  46   1.0000      -0.570150       -15.5146
  47   1.0000      -0.568781       -15.4773
  48   1.0000      -0.563173       -15.3247
  49   1.0000      -0.551721       -15.0131
  50   1.0000      -0.546309       -14.8658
  51   1.0000      -0.538265       -14.6469
  52   1.0000      -0.525250       -14.2928
  53   1.0000      -0.519712       -14.1421
  54   1.0000      -0.519163       -14.1272
  55   1.0000      -0.509763       -13.8713
  56   1.0000      -0.491546       -13.3756
  57   1.0000      -0.435583       -11.8528
  58   1.0000      -0.419992       -11.4286
  59   1.0000      -0.415157       -11.2970
  60   1.0000      -0.411993       -11.2109
  61   1.0000      -0.402143       -10.9429
  62   1.0000      -0.396717       -10.7952
  63   1.0000      -0.390046       -10.6137
  64   1.0000      -0.384043       -10.4503
  65   1.0000      -0.353247        -9.6123
  66   1.0000      -0.336452        -9.1553
  67   0.0000       0.008445         0.2298
  68   0.0000       0.029776         0.8103
  69   0.0000       0.034642         0.9427
  70   0.0000       0.036751         1.0001
  71   0.0000       0.055582         1.5125

                 SPIN DOWN ORBITALS
  NO   OCC          E(Eh)            E(eV)
   0   1.0000     -19.336457      -526.1717
   1   1.0000     -19.331908      -526.0480
   2   1.0000     -19.326328      -525.8961
   3   1.0000     -19.314845      -525.5837
   4   1.0000     -14.569360      -396.4525
   5   1.0000     -14.565383      -396.3442
   6   1.0000     -14.561494      -396.2384
   7   1.0000     -14.559184      -396.1755
   8   1.0000     -10.510311      -286.0001
   9   1.0000     -10.507671      -285.9283
  10   1.0000     -10.485294      -285.3194
  11   1.0000     -10.478665      -285.1390
  12   1.0000     -10.452951      -284.4393
  13   1.0000     -10.448989      -284.3314
  14   1.0000     -10.416631      -283.4509
  15   1.0000     -10.410327      -283.2794
  16   1.0000     -10.388819      -282.6941
  17   1.0000     -10.370410      -282.1932
  18   1.0000      -1.230102       -33.4728
  19   1.0000      -1.211040       -32.9541
  20   1.0000      -1.206528       -32.8313
  21   1.0000      -1.179822       -32.1046
  22   1.0000      -1.122046       -30.5324
  23   1.0000      -1.090347       -29.6699
  24   1.0000      -1.066614       -29.0240
  25   1.0000      -1.058656       -28.8075
  26   1.0000      -0.977316       -26.5941
  27   1.0000      -0.942748       -25.6535
  28   1.0000      -0.888332       -24.1727
  29   1.0000      -0.838208       -22.8088
  30   1.0000      -0.825978       -22.4760
  31   1.0000      -0.801470       -21.8091
  32   1.0000      -0.788180       -21.4475
  33   1.0000      -0.775301       -21.0970
  34   1.0000      -0.702364       -19.1123
  35   1.0000      -0.693053       -18.8589
  36   1.0000      -0.687585       -18.7101
  37   1.0000      -0.672442       -18.2981
  38   1.0000      -0.654196       -17.8016
  39   1.0000      -0.635641       -17.2967
  40   1.0000      -0.619626       -16.8609
  41   1.0000      -0.601145       -16.3580
  42   1.0000      -0.595301       -16.1990
  43   1.0000      -0.583471       -15.8770
  44   1.0000      -0.571270       -15.5451
  45   1.0000      -0.570110       -15.5135
  46   1.0000      -0.566657       -15.4195
  47   1.0000      -0.562909       -15.3175
  48   1.0000      -0.556565       -15.1449
  49   1.0000      -0.543941       -14.8014
  50   1.0000      -0.539185       -14.6720
  51   1.0000      -0.529993       -14.4219
  52   1.0000      -0.518609       -14.1121
  53   1.0000      -0.515786       -14.0353
  54   1.0000      -0.507109       -13.7991
  55   1.0000      -0.500288       -13.6135
  56   1.0000      -0.485895       -13.2219
  57   1.0000      -0.430219       -11.7069
  58   1.0000      -0.414286       -11.2733
  59   1.0000      -0.410486       -11.1699
  60   1.0000      -0.399251       -10.8642
  61   1.0000      -0.396098       -10.7784
  62   1.0000      -0.385509       -10.4902
  63   1.0000      -0.381223       -10.3736
  64   1.0000      -0.380432       -10.3521
  65   0.0000      -0.069397        -1.8884
  66   0.0000      -0.060650        -1.6504
  67   0.0000       0.007728         0.2103
  68   0.0000       0.029480         0.8022
  69   0.0000       0.034410         0.9363

----------------------------------------------------------------------------------------------------
          SPIN FLIP ABSORPTION SPECTRUM VIA TRANSITION ELECTRIC DIPOLE MOMENTS
----------------------------------------------------------------------------------------------------
     Transition      Energy     Energy  Wavelength fosc(D2)      D2        DX        DY        DZ
                      (eV)      (cm-1)    (nm)                 (au**2)    (au)      (au)      (au)
----------------------------------------------------------------------------------------------------
  1-3A  ->  2-3A    0.022796     183.9  54389.3   0.000004835   0.00866   0.08263  -0.04105  -0.01201
  1-3A  ->  3-3A    1.997425   16110.3   620.7   0.000235120   0.00480  -0.01107   0.02197  -0.06480

Dispersion correction             ... done (  0.1 sec)

MULLIKEN ATOMIC CHARGES AND SPIN DENSITIES
------------------------------------------
   0 O :   -0.647527    0.080637
   1 O :   -0.690451   -0.098603
   2 O :   -0.618883    0.000874
   3 O :   -0.689511   -0.002147
   4 N :   -0.210328    0.000259
   5 N :   -0.406188   -0.019031
   6 N :   -0.040871    0.002487
   7 N :    0.132147   -0.016327
   8 C :   -0.188087    0.349331
   9 C :    0.541078    0.304579
  10 C :    0.631788   -0.028813
  11 C :    0.324368   -0.230224
  12 C :   -1.323115   -0.008221
  13 C :   -1.356289   -0.033052
  14 C :    0.535539   -0.003756
  15 C :   -0.034130   -0.376087
  16 C :    0.354494    0.007710
  17 C :    0.358565    0.014154
  18 H :    0.479888    0.019010
  19 H :    0.628895    0.003749
  20 H :    0.313410    0.003960
  21 H :    0.276216    0.014746
  22 H :    0.361321    0.004870
  23 H :    0.274299    0.004194
  24 H :    0.319889   -0.010410
  25 H :    0.384809    0.010809
  26 H :    0.040024   -0.001184
  27 H :    0.164089    0.003412
  28 H :    0.059916   -0.001914
  29 H :    0.024647    0.004988
Sum of atomic charges       :   -0.0000000

LOEWDIN ATOMIC CHARGES AND SPIN DENSITIES
-----------------------------------------
   0 O :    0.120544    0.068359
   1 O :    0.076968   -0.087378
   2 O :    0.107623    0.001106
   3 O :    0.038058   -0.002156
   4 N :    0.322254    0.000480
   5 N :    0.271147   -0.000201
   6 N :    0.329432    0.006089
   7 N :    0.314137   -0.014291
   8 C :   -0.032464    0.260285
   9 C :    0.030089   -0.238606
  10 C :   -0.146169    0.025580
  11 C :   -0.086709   -0.004397
  12 C :    0.201508    0.029780
  13 C :    0.214975   -0.036549
  14 C :   -0.474179    0.044896
  15 C :   -0.387227   -0.052691
  16 C :   -0.460542   -0.000732
  17 C :   -0.458000   -0.000717
  18 H :    0.058664    0.005666
  19 H :    0.054409   -0.001721
  20 H :    0.020020    0.001765
  21 H :    0.020397    0.013127
  22 H :   -0.026040    0.002380
  23 H :   -0.016813   -0.005378
  24 H :   -0.001245   -0.000041
  25 H :    0.013603   -0.014429
  26 H :   -0.090660    0.000036
  27 H :   -0.030271    0.000507
  28 H :    0.025159    0.000536
  29 H :   -0.008667   -0.001305

  Mayer bond orders larger than 0.100000
B(  0-O , 14-C ) :   1.4536 B(  1-O , 15-C ) :   1.2147 B(  2-O , 16-C ) :   1.5177
B(  3-O , 17-C ) :   1.5418 B(  4-N ,  8-C ) :   0.2752 B(  4-N , 10-C ) :   0.2571
B(  4-N , 16-C ) :   1.0397 B(  4-N , 18-H ) :  -0.1207 B(  4-N , 26-H ) :   1.0044
B(  5-N ,  9-C ) :   0.3523 B(  5-N , 11-C ) :  -0.1808 B(  5-N , 15-C ) :   0.1031
B(  5-N , 17-C ) :   1.0790 B(  5-N , 19-H ) :  -0.1520 B(  5-N , 27-H ) :   0.9579
B(  6-N ,  8-C ) :  -0.1242 B(  6-N , 14-C ) :   1.0465 B(  6-N , 16-C ) :   0.9459
B(  6-N , 28-H ) :   1.0948 B(  7-N , 11-C ) :   0.1244 B(  7-N , 15-C ) :   1.0470
B(  7-N , 17-C ) :   1.0494 B(  7-N , 29-H ) :   1.0690 B(  8-C , 10-C ) :   0.3489
B(  8-C , 11-C ) :   0.2656 B(  8-C , 12-C ) :   0.5188 B(  8-C , 14-C ) :   0.8385
B(  8-C , 16-C ) :   0.1671 B(  8-C , 18-H ) :  -0.1262 B(  8-C , 22-H ) :  -0.1262
B(  9-C , 10-C ) :   0.1591 B(  9-C , 11-C ) :   0.3075 B(  9-C , 13-C ) :   0.5049
B(  9-C , 15-C ) :   0.8283 B(  9-C , 19-H ) :  -0.1868 B( 10-C , 11-C ) :   0.6561
B( 10-C , 16-C ) :  -0.1676 B( 10-C , 18-H ) :   0.8162 B( 11-C , 17-C ) :  -0.2511
B( 11-C , 19-H ) :   0.7740 B( 12-C , 20-H ) :   0.9831 B( 12-C , 21-H ) :   0.8709
B( 12-C , 22-H ) :   1.0384 B( 13-C , 23-H ) :   0.8828 B( 13-C , 24-H ) :   1.0120
B( 13-C , 25-H ) :   0.8821

Dispersion correction           -0.061302007
FINAL SINGLE POINT ENERGY      -908.772705051369

DIPOLE MOMENT
-------------

Method             : TDA/CIS
Type of density    : Electron Density
Level              : Relaxed density
State              :   2
Multiplicity       :   3
Irrep              :   0
Energy             :     0.0000000000000000 Eh
Relativity type    :
Basis              : AO
                                X                 Y                 Z
Electronic contribution:     -9.619592329      -5.931655956      -1.987626639
Nuclear contribution   :     11.911108224       6.679359788       3.408632318
                        -----------------------------------------
Total Dipole Moment    :      2.291515895       0.747703831       1.421005679
                        -----------------------------------------
Magnitude (a.u.)       :      2.798099937
Magnitude (Debye)      :      7.112204823

Rotational constants in cm-1:             0.022282             0.013135             0.012550
Rotational constants in MHz :           668.012073           393.788639           376.226734

                             ****ORCA TERMINATED NORMALLY****
TOTAL RUN TIME: 0 days 0 hours 5 minutes 3 seconds 188 msec
