                         Program Version 6.0.0  -   RELEASE  -
|  1> ! Engrad def2-TZVPPD wB97M-D3BJ
|  2> %pal nprocs 8 end%pal nprocs 64 end
|  3> %tddft
|  4>  Iroot 2 Nroots 3
|  5> sf true
|  6> end
|  7> *xyz 0 3
|  8> O   3.12554258 0.66424679 -0.70885357
|  9> O   -0.47332895 1.38582226 -2.40734597
| 10> O   0.4806997 -3.15171169 -0.51228786
| 11> O   -2.96360491 -1.79782959 -0.22308699
| 12> N   0.11859493 -1.45806181 1.07624305
| 13> N   -2.18417103 -0.09353287 0.97119836
| 14> N   1.73961665 -1.16044287 -0.64927781
| 15> N   -1.62894993 -0.29199346 -1.33625418
| 16> C   1.49093489 0.49145118 1.01621291
| 17> C   -0.74191385 1.59459312 -0.03072222
| 18> C   0.27129078 -0.11448267 1.57439191
| 19> C   -1.10033856 0.79971183 1.15470845
| 20> C   2.16692475 1.5415024 1.97122097
| 21> C   -0.14007645 2.95483819 -0.12396049
| 22> C   2.20739895 0.06324894 -0.14614436
| 23> C   -0.95612973 0.99595395 -1.36430029
| 24> C   0.78727192 -2.04761168 -0.03658588
| 25> C   -2.32418967 -0.7898227 -0.20044328
| 26> H   0.33084805 -0.10678239 2.66875034
| 27> H   -1.31667453 1.41029386 2.02344654
| 28> H   2.60239796 0.9005488 2.78679897
| 29> H   2.93197981 2.06727131 1.41059397
| 30> H   1.43187645 2.15344742 2.48218366
| 31> H   -0.72403448 3.60735234 -0.7258179
| 32> H   -0.02308403 3.42762237 0.82561877
| 33> H   0.83149867 2.86166257 -0.63437482
| 34> H   -0.68472333 -1.91399151 1.45916003
| 35> H   -2.83137633 -0.30192098 1.65355355
| 36> H   1.91378063 -1.33386563 -1.62973317
| 37> H   -1.78834781 -0.76737 -2.19676385
| 38> *
| 39>
| 40>                          ****END OF INPUT****

CARTESIAN COORDINATES (ANGSTROEM)
---------------------------------
  O      3.125543    0.664247   -0.708854
  O     -0.473329    1.385822   -2.407346
  O      0.480700   -3.151712   -0.512288
  O     -2.963605   -1.797830   -0.223087
  N      0.118595   -1.458062    1.076243
  N     -2.184171   -0.093533    0.971198
  N      1.739617   -1.160443   -0.649278
  N     -1.628950   -0.291993   -1.336254
  C      1.490935    0.491451    1.016213
  C     -0.741914    1.594593   -0.030722
  C      0.271291   -0.114483    1.574392
  C     -1.100339    0.799712    1.154708
  C      2.166925    1.541502    1.971221
  C     -0.140076    2.954838   -0.123960
  C      2.207399    0.063249   -0.146144
  C     -0.956130    0.995954   -1.364300
  C      0.787272   -2.047612   -0.036586
  C     -2.324190   -0.789823   -0.200443
  H      0.330848   -0.106782    2.668750
  H     -1.316675    1.410294    2.023447
  H      2.602398    0.900549    2.786799
  H      2.931980    2.067271    1.410594
  H      1.431876    2.153447    2.482184
  H     -0.724034    3.607352   -0.725818
  H     -0.023084    3.427622    0.825619
  H      0.831499    2.861663   -0.634375
  H     -0.684723   -1.913992    1.459160
  H     -2.831376   -0.301921    1.653554
  H      1.913781   -1.333866   -1.629733
  H     -1.788348   -0.767370   -2.196764

 Total Charge           Charge          ....    0
 Multiplicity           Mult            ....    3
 Number of Electrons    NEL             ....  132
 Basis Dimension        Dim             ....  882

ORBITAL ENERGIES
----------------
                 SPIN UP ORBITALS
  NO   OCC          E(Eh)            E(eV)
   0   1.0000     -19.338669      -526.2319
   1   1.0000     -19.334516      -526.1189
   2   1.0000     -19.326724      -525.9069
   3   1.0000     -19.319982      -525.7234
   4   1.0000     -14.560469      -396.2105
   5   1.0000     -14.560409      -396.2089
   6   1.0000     -14.559603      -396.1869
   7   1.0000     -14.558505      -396.1571
   8   1.0000     -10.519747      -286.2569
   9   1.0000     -10.504087      -285.8307
  10   1.0000     -10.485665      -285.3294
  11   1.0000     -10.481818      -285.2248
  12   1.0000     -10.450818      -284.3812
  13   1.0000     -10.445080      -284.2251
  14   1.0000     -10.419450      -283.5276
  15   1.0000     -10.418319      -283.4969
  16   1.0000     -10.381423      -282.4929
  17   1.0000     -10.368299      -282.1357
  18   1.0000      -1.223285       -33.2873
  19   1.0000      -1.201144       -32.6848
  20   1.0000      -1.200210       -32.6594
  21   1.0000      -1.181581       -32.1524
  22   1.0000      -1.119945       -30.4753
  23   1.0000      -1.089856       -29.6565
  24   1.0000      -1.054977       -28.7074
  25   1.0000      -1.046809       -28.4851
  26   1.0000      -0.979369       -26.6500
  27   1.0000      -0.947309       -25.7776
  28   1.0000      -0.881244       -23.9799
  29   1.0000      -0.835426       -22.7331
  30   1.0000      -0.825697       -22.4683
  31   1.0000      -0.802315       -21.8321
  32   1.0000      -0.780045       -21.2261
  33   1.0000      -0.776467       -21.1287
  34   1.0000      -0.700437       -19.0599
  35   1.0000      -0.690990       -18.8028
  36   1.0000      -0.687237       -18.7007
  37   1.0000      -0.662037       -18.0149
  38   1.0000      -0.653388       -17.7796
  39   1.0000      -0.641827       -17.4650
  40   1.0000      -0.629480       -17.1290
  41   1.0000      -0.603051       -16.4098
  42   1.0000      -0.590832       -16.0773
  43   1.0000      -0.577695       -15.7199
  44   1.0000      -0.571843       -15.5607
  45   1.0000      -0.570109       -15.5135
  46   1.0000      -0.566455       -15.4140
  47   1.0000      -0.559405       -15.2222
  48   1.0000      -0.555234       -15.1087
  49   1.0000      -0.548240       -14.9184
  50   1.0000      -0.545715       -14.8497
  51   1.0000      -0.538473       -14.6526
  52   1.0000      -0.525366       -14.2959
  53   1.0000      -0.520287       -14.1577
  54   1.0000      -0.514345       -13.9960
  55   1.0000      -0.507238       -13.8027
  56   1.0000      -0.493011       -13.4155
  57   1.0000      -0.420640       -11.4462
  58   1.0000      -0.417926       -11.3724
  59   1.0000      -0.408626       -11.1193
  60   1.0000      -0.402478       -10.9520
  61   1.0000      -0.399689       -10.8761
  62   1.0000      -0.393446       -10.7062
  63   1.0000      -0.389877       -10.6091
  64   1.0000      -0.386216       -10.5095
  65   1.0000      -0.331707        -9.0262
  66   1.0000      -0.327253        -8.9050
  67   0.0000       0.005328         0.1450
  68   0.0000       0.029797         0.8108
  69   0.0000       0.030894         0.8407
  70   0.0000       0.037810         1.0289
  71   0.0000       0.055430         1.5083

                 SPIN DOWN ORBITALS
  NO   OCC          E(Eh)            E(eV)
   0   1.0000     -19.334997      -526.1320
   1   1.0000     -19.329681      -525.9874
   2   1.0000     -19.326588      -525.9032
   3   1.0000     -19.319834      -525.7194
   4   1.0000     -14.560031      -396.1986
   5   1.0000     -14.559777      -396.1917
   6   1.0000     -14.559030      -396.1714
   7   1.0000     -14.558143      -396.1472
   8   1.0000     -10.519789      -286.2580
   9   1.0000     -10.504122      -285.8317
  10   1.0000     -10.486502      -285.3522
  11   1.0000     -10.482846      -285.2527
  12   1.0000     -10.450129      -284.3625
  13   1.0000     -10.444190      -284.2009
  14   1.0000     -10.408198      -283.2215
  15   1.0000     -10.407150      -283.1929
  16   1.0000     -10.381945      -282.5071
  17   1.0000     -10.368707      -282.1469
  18   1.0000      -1.222368       -33.2623
  19   1.0000      -1.196804       -32.5667
  20   1.0000      -1.195709       -32.5369
  21   1.0000      -1.177652       -32.0455
  22   1.0000      -1.117434       -30.4069
  23   1.0000      -1.087243       -29.5854
  24   1.0000      -1.053089       -28.6560
  25   1.0000      -1.044946       -28.4344
  26   1.0000      -0.964602       -26.2481
  27   1.0000      -0.930777       -25.3277
  28   1.0000      -0.875934       -23.8354
  29   1.0000      -0.831172       -22.6173
  30   1.0000      -0.816737       -22.2246
  31   1.0000      -0.796645       -21.6778
  32   1.0000      -0.778267       -21.1777
  33   1.0000      -0.774599       -21.0779
  34   1.0000      -0.694222       -18.8907
  35   1.0000      -0.686759       -18.6877
  36   1.0000      -0.679999       -18.5037
  37   1.0000      -0.656831       -17.8733
  38   1.0000      -0.646936       -17.6040
  39   1.0000      -0.632519       -17.2117
  40   1.0000      -0.623536       -16.9673
  41   1.0000      -0.598888       -16.2966
  42   1.0000      -0.584948       -15.9172
  43   1.0000      -0.568214       -15.4619
  44   1.0000      -0.566628       -15.4187
  45   1.0000      -0.561390       -15.2762
  46   1.0000      -0.558120       -15.1872
  47   1.0000      -0.553121       -15.0512
  48   1.0000      -0.550271       -14.9736
  49   1.0000      -0.544063       -14.8047
  50   1.0000      -0.536059       -14.5869
  51   1.0000      -0.531218       -14.4552
  52   1.0000      -0.519152       -14.1268
  53   1.0000      -0.511628       -13.9221
  54   1.0000      -0.504398       -13.7254
  55   1.0000      -0.500318       -13.6143
  56   1.0000      -0.485178       -13.2024
  57   1.0000      -0.417273       -11.3546
  58   1.0000      -0.413969       -11.2647
  59   1.0000      -0.400446       -10.8967
  60   1.0000      -0.391863       -10.6631
  61   1.0000      -0.387830       -10.5534
  62   1.0000      -0.385682       -10.4949
  63   1.0000      -0.384970       -10.4756
  64   1.0000      -0.370140       -10.0720
  65   0.0000      -0.064001        -1.7416
  66   0.0000      -0.048992        -1.3331
  67   0.0000       0.004887         0.1330
  68   0.0000       0.029905         0.8137
  69   0.0000       0.030778         0.8375

----------------------------------------------------------------------------------------------------
          SPIN FLIP ABSORPTION SPECTRUM VIA TRANSITION ELECTRIC DIPOLE MOMENTS
----------------------------------------------------------------------------------------------------
     Transition      Energy     Energy  Wavelength fosc(D2)      D2        DX        DY        DZ
                      (eV)      (cm-1)    (nm)                 (au**2)    (au)      (au)      (au)
----------------------------------------------------------------------------------------------------
  1-3A  ->  2-3A    0.037387     301.6  33162.0   0.000000650   0.00071  -0.01725   0.00744  -0.01889
  1-3A  ->  3-1A    1.848420   14908.5   670.8   0.006651403   0.14688   0.33343  -0.08796   0.16723

Dispersion correction             ... done (  0.1 sec)

MULLIKEN ATOMIC CHARGES AND SPIN DENSITIES
------------------------------------------
   0 O :   -0.693668   -0.119655
   1 O :   -0.651397    0.094482
   2 O :   -0.627737   -0.000374
   3 O :   -0.618639   -0.001065
   4 N :   -0.278437    0.004824
   5 N :   -0.221261    0.004910
   6 N :   -0.015304   -0.016948
   7 N :    0.108724    0.017679
   8 C :    1.296279    0.391475
   9 C :    0.254902    0.406088
  10 C :   -0.503524   -0.422191
  11 C :    0.506617    0.028230
  12 C :   -1.539677    0.081776
  13 C :   -1.552145   -0.035306
  14 C :    0.050849   -0.490753
  15 C :    0.365768   -0.028987
  16 C :    0.473155    0.030264
  17 C :    0.300239    0.004361
  18 H :    0.505947   -0.007968
  19 H :    0.527288    0.018018
  20 H :    0.420688   -0.003957
  21 H :    0.356767   -0.013567
  22 H :    0.344139    0.006017
  23 H :    0.425142    0.018954
  24 H :    0.314057   -0.001883
  25 H :    0.335855    0.032149
  26 H :    0.074033    0.002873
  27 H :   -0.019622   -0.000881
  28 H :    0.041526    0.001930
  29 H :    0.019436   -0.000495
Sum of atomic charges       :   -0.0000000

LOEWDIN ATOMIC CHARGES AND SPIN DENSITIES
-----------------------------------------
   0 O :    0.067703   -0.106471
   1 O :    0.097149    0.080635
   2 O :    0.063957   -0.000083
   3 O :    0.107609   -0.000952
   4 N :    0.269854    0.002902
   5 N :    0.281666   -0.003408
   6 N :    0.318600   -0.018890
   7 N :    0.346605    0.014234
   8 C :   -0.026401   -0.311029
   9 C :   -0.031176    0.332507
  10 C :   -0.090854   -0.004885
  11 C :   -0.073936    0.011112
  12 C :    0.214350   -0.031607
  13 C :    0.196385    0.044079
  14 C :   -0.422761   -0.062712
  15 C :   -0.362941    0.051076
  16 C :   -0.375817    0.001206
  17 C :   -0.491074   -0.000382
  18 H :    0.050453   -0.002265
  19 H :    0.049051    0.001176
  20 H :    0.026609   -0.014284
  21 H :   -0.011867    0.000263
  22 H :   -0.019625   -0.004884
  23 H :   -0.009099    0.011386
  24 H :   -0.018918   -0.001073
  25 H :    0.022703    0.013630
  26 H :   -0.052655   -0.000264
  27 H :   -0.071987   -0.000509
  28 H :   -0.017457   -0.001837
  29 H :   -0.036127    0.001327

  Mayer bond orders larger than 0.100000
B(  0-O , 14-C ) :   1.2300 B(  1-O , 15-C ) :   1.4087 B(  2-O , 16-C ) :   1.6105
B(  3-O , 17-C ) :   1.5477 B(  4-N ,  8-C ) :   0.1972 B(  4-N , 10-C ) :   0.4766
B(  4-N , 11-C ) :  -0.1084 B(  4-N , 16-C ) :   0.9901 B(  4-N , 18-H ) :  -0.1291
B(  4-N , 26-H ) :   1.1331 B(  5-N ,  9-C ) :   0.2331 B(  5-N , 10-C ) :   0.1445
B(  5-N , 11-C ) :   0.2198 B(  5-N , 17-C ) :   1.1023 B(  5-N , 27-H ) :   1.1466
B(  6-N ,  8-C ) :  -0.1888 B(  6-N , 10-C ) :   0.1424 B(  6-N , 14-C ) :   0.9884
B(  6-N , 16-C ) :   0.8953 B(  6-N , 28-H ) :   1.1154 B(  7-N , 11-C ) :   0.1264
B(  7-N , 15-C ) :   1.0014 B(  7-N , 17-C ) :   1.0063 B(  7-N , 29-H ) :   1.0944
B(  8-C ,  9-C ) :   0.2384 B(  8-C , 10-C ) :   0.2405 B(  8-C , 12-C ) :   0.3267
B(  8-C , 14-C ) :   0.4036 B(  8-C , 18-H ) :  -0.1526 B(  9-C , 10-C ) :   0.1309
B(  9-C , 11-C ) :   0.2188 B(  9-C , 13-C ) :   0.2996 B(  9-C , 15-C ) :   0.9273
B(  9-C , 19-H ) :  -0.1703 B(  9-C , 24-H ) :  -0.1208 B( 10-C , 11-C ) :   0.5225
B( 10-C , 12-C ) :  -0.1040 B( 10-C , 14-C ) :   0.1466 B( 10-C , 16-C ) :  -0.1194
B( 10-C , 18-H ) :   0.7688 B( 11-C , 13-C ) :  -0.1546 B( 11-C , 17-C ) :  -0.2069
B( 11-C , 19-H ) :   0.8333 B( 12-C , 20-H ) :   0.8100 B( 12-C , 21-H ) :   1.0164
B( 12-C , 22-H ) :   0.9732 B( 13-C , 23-H ) :   0.8486 B( 13-C , 24-H ) :   1.0404
B( 13-C , 25-H ) :   0.9217 B( 14-C , 16-C ) :  -0.1156

Dispersion correction           -0.059622453
FINAL SINGLE POINT ENERGY      -908.768489739981

DIPOLE MOMENT
-------------

Method             : TDA/CIS
Type of density    : Electron Density
Level              : Relaxed density
State              :   2
Multiplicity       :   3
Irrep              :   0
Energy             :     0.0000000000000000 Eh
Relativity type    :
Basis              : AO
                                X                 Y                 Z
Electronic contribution:     -3.356875207      -9.891834204      -7.024183919
Nuclear contribution   :      2.591625787      11.671718850       9.653809192
                        -----------------------------------------
Total Dipole Moment    :     -0.765249420       1.779884646       2.629625273
                        -----------------------------------------
Magnitude (a.u.)       :      3.266270825
Magnitude (Debye)      :      8.302200651

Rotational constants in cm-1:             0.019121             0.015215             0.012609
Rotational constants in MHz :           573.245939           456.149023           378.021951

                             ****ORCA TERMINATED NORMALLY****
TOTAL RUN TIME: 0 days 0 hours 4 minutes 57 seconds 719 msec
