                         Program Version 6.0.0  -   RELEASE  -
|  1> ! Engrad def2-TZVPPD wB97M-D3BJ
|  2> %pal nprocs 8 end%pal nprocs 64 end
|  3> %tddft
|  4>  Iroot 1 Nroots 3
|  5> sf true
|  6> end
|  7> *xyz 0 3
|  8> O   0.2264177 -0.10560784 1.2124076
|  9> C   -0.03711776 0.03623456 -0.08964005
| 10> C   1.11856644 0.26578444 -1.01950814
| 11> H   -0.87696971 0.78355643 -0.05868711
| 12> H   -0.61324438 -0.81310095 -0.39343169
| 13> H   1.06238598 0.11022311 -2.0883461
| 14> H   1.8754362 0.77462118 -0.39352461
| 15> *
| 16>
| 17>                          ****END OF INPUT****

CARTESIAN COORDINATES (ANGSTROEM)
---------------------------------
  O      0.226418   -0.105608    1.212408
  C     -0.037118    0.036235   -0.089640
  C      1.118566    0.265784   -1.019508
  H     -0.876970    0.783556   -0.058687
  H     -0.613244   -0.813101   -0.393432
  H      1.062386    0.110223   -2.088346
  H      1.875436    0.774621   -0.393525

 Total Charge           Charge          ....    0
 Multiplicity           Mult            ....    3
 Number of Electrons    NEL             ....   24
 Basis Dimension        Dim             ....  182

ORBITAL ENERGIES
----------------
                 SPIN UP ORBITALS
  NO   OCC          E(Eh)            E(eV)
   0   1.0000     -19.383473      -527.4511
   1   1.0000     -10.409809      -283.2653
   2   1.0000     -10.372412      -282.2477
   3   1.0000      -1.179294       -32.0902
   4   1.0000      -0.872130       -23.7319
   5   1.0000      -0.738775       -20.1031
   6   1.0000      -0.615768       -16.7559
   7   1.0000      -0.601903       -16.3786
   8   1.0000      -0.548168       -14.9164
   9   1.0000      -0.515597       -14.0301
  10   1.0000      -0.436716       -11.8837
  11   1.0000      -0.407974       -11.1015
  12   1.0000      -0.322999        -8.7893
  13   0.0000       0.039743         1.0815
  14   0.0000       0.060402         1.6436
  15   0.0000       0.079810         2.1717
  16   0.0000       0.084456         2.2982
  17   0.0000       0.108179         2.9437

                 SPIN DOWN ORBITALS
  NO   OCC          E(Eh)            E(eV)
   0   1.0000     -19.360960      -526.8385
   1   1.0000     -10.411096      -283.3003
   2   1.0000     -10.359259      -281.8898
   3   1.0000      -1.130272       -30.7563
   4   1.0000      -0.839236       -22.8368
   5   1.0000      -0.710792       -19.3416
   6   1.0000      -0.590168       -16.0593
   7   1.0000      -0.550776       -14.9874
   8   1.0000      -0.525068       -14.2878
   9   1.0000      -0.498086       -13.5536
  10   1.0000      -0.380757       -10.3609
  11   0.0000      -0.051066        -1.3896
  12   0.0000       0.000004         0.0001
  13   0.0000       0.039100         1.0640
  14   0.0000       0.060082         1.6349
  15   0.0000       0.080119         2.1802

----------------------------------------------------------------------------------------------------
          SPIN FLIP ABSORPTION SPECTRUM VIA TRANSITION ELECTRIC DIPOLE MOMENTS
----------------------------------------------------------------------------------------------------
     Transition      Energy     Energy  Wavelength fosc(D2)      D2        DX        DY        DZ
                      (eV)      (cm-1)    (nm)                 (au**2)    (au)      (au)      (au)
----------------------------------------------------------------------------------------------------
  1-3A  ->  2-3A    0.407380    3285.7  3043.5   0.001147764   0.11500   0.12693  -0.04476  -0.31126
  1-3A  ->  3-3A    0.673914    5435.5  1839.8   0.006845689   0.41462   0.10668   0.10940  -0.62552

Dispersion correction             ... done (  0.2 sec)

MULLIKEN ATOMIC CHARGES AND SPIN DENSITIES
------------------------------------------
   0 O :   -0.461183    0.495772
   1 C :   -0.025616    0.012249
   2 C :   -0.285389   -0.493500
   3 H :    0.221721    0.039826
   4 H :    0.210654    0.023568
   5 H :    0.182358   -0.052575
   6 H :    0.157454   -0.025340
Sum of atomic charges       :    0.0000000

LOEWDIN ATOMIC CHARGES AND SPIN DENSITIES
-----------------------------------------
   0 O :   -0.025454    0.443272
   1 C :   -0.309292   -0.006251
   2 C :    0.339999   -0.387120
   3 H :    0.074515    0.031407
   4 H :    0.021732    0.016884
   5 H :   -0.065897   -0.056608
   6 H :   -0.035603   -0.041583

  Mayer bond orders larger than 0.100000
B(  0-O ,  1-C ) :   1.0051 B(  0-O ,  2-C ) :   0.2225 B(  1-C ,  2-C ) :   0.9967
B(  1-C ,  3-H ) :   0.8852 B(  1-C ,  4-H ) :   0.8794 B(  2-C ,  5-H ) :   1.0292
B(  2-C ,  6-H ) :   1.0073

Dispersion correction           -0.005520557
FINAL SINGLE POINT ENERGY      -153.751321531483

DIPOLE MOMENT
-------------

Method             : TDA/CIS
Type of density    : Electron Density
Level              : Relaxed density
State              :   1
Multiplicity       :   3
Irrep              :   0
Energy             :     0.0000000000000000 Eh
Relativity type    :
Basis              : AO
                                X                 Y                 Z
Electronic contribution:     -0.080948482      -0.405954294       1.855064325
Nuclear contribution   :     -0.183999051       0.561392766      -3.001315084
                        -----------------------------------------
Total Dipole Moment    :     -0.264947533       0.155438472      -1.146250759
                        -----------------------------------------
Magnitude (a.u.)       :      1.186696724
Magnitude (Debye)      :      3.016343360

Rotational constants in cm-1:             1.598041             0.345849             0.301033
Rotational constants in MHz :         47908.052635         10368.280732          9024.734481

                             ****ORCA TERMINATED NORMALLY****
TOTAL RUN TIME: 0 days 0 hours 0 minutes 26 seconds 296 msec
