                         Program Version 6.0.0  -   RELEASE  -
|  1> ! EnGrad wB97M-D3BJ def2-TZVPPD
|  2> %pal nprocs 8 end%pal nprocs 16 end
|  3> %tddft
|  4>  sf true
|  5>  nroots 2 Iroot 1 end
|  6> *xyz 0 3
|  7> O   0.19365473504747 0.91636966858285 -0.00096729353673
|  8> C   0.65850400596401 -0.34964132025325 -0.00017089289235
|  9> C   -0.73190503075118 -0.62170084516927 0.00024760342421
| 10> H   1.21524228778507 -0.64654698138571 0.89366159770038
| 11> H   1.21526562887713 -0.64726544431842 -0.89371987783797
| 12> H   -1.27454103948099 -0.68595644886538 -0.92787958444723
| 13> H   -1.27402058744151 -0.68365862859083 0.92882844758969
| 14> *
| 15>
| 16>                          ****END OF INPUT****

CARTESIAN COORDINATES (ANGSTROEM)
---------------------------------
  O      0.193655    0.916370   -0.000967
  C      0.658504   -0.349641   -0.000171
  C     -0.731905   -0.621701    0.000248
  H      1.215242   -0.646547    0.893662
  H      1.215266   -0.647265   -0.893720
  H     -1.274541   -0.685956   -0.927880
  H     -1.274021   -0.683659    0.928828

 Total Charge           Charge          ....    0
 Multiplicity           Mult            ....    3
 Number of Electrons    NEL             ....   24
 Basis Dimension        Dim             ....  182

ORBITAL ENERGIES
----------------
                 SPIN UP ORBITALS
  NO   OCC          E(Eh)            E(eV)
   0   1.0000     -19.422959      -528.5256
   1   1.0000     -10.408703      -283.2352
   2   1.0000     -10.334268      -281.2097
   3   1.0000      -1.235084       -33.6083
   4   1.0000      -0.861220       -23.4350
   5   1.0000      -0.747839       -20.3497
   6   1.0000      -0.655214       -17.8293
   7   1.0000      -0.619057       -16.8454
   8   1.0000      -0.549914       -14.9639
   9   1.0000      -0.500766       -13.6265
  10   1.0000      -0.465506       -12.6671
  11   1.0000      -0.450140       -12.2489
  12   1.0000      -0.232842        -6.3359
  13   0.0000       0.040124         1.0918
  14   0.0000       0.063573         1.7299
  15   0.0000       0.072111         1.9622
  16   0.0000       0.085560         2.3282
  17   0.0000       0.114842         3.1250

                 SPIN DOWN ORBITALS
  NO   OCC          E(Eh)            E(eV)
   0   1.0000     -19.392306      -527.6915
   1   1.0000     -10.409674      -283.2616
   2   1.0000     -10.322106      -280.8788
   3   1.0000      -1.171265       -31.8717
   4   1.0000      -0.826612       -22.4933
   5   1.0000      -0.727776       -19.8038
   6   1.0000      -0.608468       -16.5572
   7   1.0000      -0.582384       -15.8475
   8   1.0000      -0.522033       -14.2052
   9   1.0000      -0.471118       -12.8198
  10   1.0000      -0.401092       -10.9143
  11   0.0000      -0.085103        -2.3158
  12   0.0000       0.037439         1.0188
  13   0.0000       0.048633         1.3234
  14   0.0000       0.062740         1.7073
  15   0.0000       0.069570         1.8931

----------------------------------------------------------------------------------------------------
          SPIN FLIP ABSORPTION SPECTRUM VIA TRANSITION ELECTRIC DIPOLE MOMENTS
----------------------------------------------------------------------------------------------------
     Transition      Energy     Energy  Wavelength fosc(D2)      D2        DX        DY        DZ
                      (eV)      (cm-1)    (nm)                 (au**2)    (au)      (au)      (au)
----------------------------------------------------------------------------------------------------
  1-3A  ->  2-3A    3.787558   30548.7   327.3   0.001912636   0.02061   0.00015   0.00031   0.14357

Dispersion correction             ... done (  0.0 sec)

MULLIKEN ATOMIC CHARGES AND SPIN DENSITIES
------------------------------------------
   0 O :   -0.468680   -0.010076
   1 C :   -0.140540   -0.069654
   2 C :   -0.345400   -0.002792
   3 H :    0.223895    0.030239
   4 H :    0.223921    0.030187
   5 H :    0.253345    0.011008
   6 H :    0.253460    0.011086
Sum of atomic charges       :    0.0000000

LOEWDIN ATOMIC CHARGES AND SPIN DENSITIES
-----------------------------------------
   0 O :   -0.057985   -0.046672
   1 C :   -0.283449   -0.008049
   2 C :    0.281369    0.042060
   3 H :    0.029619    0.005219
   4 H :    0.029616    0.005210
   5 H :    0.000420    0.001116
   6 H :    0.000409    0.001117

  Mayer bond orders larger than 0.100000
B(  0-O ,  1-C ) :   0.7403 B(  0-O ,  2-C ) :   0.9132 B(  1-C ,  2-C ) :   0.7882
B(  1-C ,  3-H ) :   1.0328 B(  1-C ,  4-H ) :   1.0326 B(  2-C ,  5-H ) :   0.9335
B(  2-C ,  6-H ) :   0.9335

Dispersion correction           -0.005371528
FINAL SINGLE POINT ENERGY      -153.831655084345

DIPOLE MOMENT
-------------

Method             : TDA/CIS
Type of density    : Electron Density
Level              : Relaxed density
State              :   1
Multiplicity       :   3
Irrep              :   0
Energy             :     0.0000000000000000 Eh
Relativity type    :
Basis              : AO
                                X                 Y                 Z
Electronic contribution:     -0.025360977       1.279843330      -0.001093837
Nuclear contribution   :     -0.287287360      -2.511679086       0.001989161
                        -----------------------------------------
Total Dipole Moment    :     -0.312648337      -1.231835756       0.000895323
                        -----------------------------------------
Magnitude (a.u.)       :      1.270893038
Magnitude (Debye)      :      3.230353382

Rotational constants in cm-1:             0.972998             0.579386             0.424348
Rotational constants in MHz :         29169.734511         17369.543398         12721.642441

                             ****ORCA TERMINATED NORMALLY****
TOTAL RUN TIME: 0 days 0 hours 0 minutes 18 seconds 153 msec
