                         Program Version 6.0.0  -   RELEASE  -
|  1> ! opt def2-TZVPPD wB97M-D3BJ
|  2> %pal nprocs 8 end%pal nprocs 32 end
|  3> %geom Constraints
|  4> {B 9 8 3.2 C}
|  5> {A 8 9 11 52.285714285714285 C}
|  6> end
|  7> MaxIter 300
|  8> end
|  9> *xyz 0 1
| 10> O   2.98579685529314 0.88758230159078 -0.86184571092411
| 11> O   -0.03983205397054 0.68929041702508 -2.10362336723772
| 12> O   0.93431434349854 -3.13274393337945 -0.68767288184107
| 13> O   -3.75829998830163 -0.84727300865116 -0.0472717177755
| 14> N   0.21184538946282 -1.54604804365365 0.7617588924445
| 15> N   -2.13631993928911 0.03188773433438 1.27350571071531
| 16> N   2.02598672506387 -1.14318467211666 -0.64531219127023
| 17> N   -1.91814233924584 0.03137116037665 -1.04498946748291
| 18> C   1.18097737274226 0.71693507080484 0.70173889017321
| 19> C   -0.20686880480777 1.27024627933494 0.21345042231937
| 20> C   0.41441080275909 -0.34173258966541 1.52336266615173
| 21> C   -0.82922175114212 0.58960593673968 1.44434972027296
| 22> C   1.92822011286806 1.69488653817281 1.5963734975385
| 23> C   -0.37809776891576 2.77134929626422 0.04819649358288
| 24> C   2.1403947470937 0.1972384729179 -0.35038567829864
| 25> C   -0.67361678962426 0.6214190571346 -1.0793014500539
| 26> C   1.04142578622994 -2.02697492875068 -0.21027082435993
| 27> C   -2.68467002550422 -0.30396816036989 0.07167054343891
| 28> H   0.80817443950001 -0.54572267081061 2.51895215321335
| 29> H   -0.83785272399001 1.27240685039143 2.28901317073582
| 30> H   2.31167340578204 2.52284411740894 1.00913016264629
| 31> H   1.28982602448342 2.08257620823614 2.38710022492991
| 32> H   2.77390820759972 1.19140411795486 2.06045858523949
| 33> H   -1.41857211141493 3.00964947214868 -0.16882755561625
| 34> H   -0.09065531563179 3.29799318042223 0.95389844358819
| 35> H   0.23426221611057 3.12492645074476 -0.77764887675592
| 36> H   -0.46772570547622 -2.21560145172536 1.0787081584806
| 37> H   -2.71769301149571 -0.17090724573546 2.06627440900372
| 38> H   2.60065167263658 -1.49057255715425 -1.3966820077142
| 39> H   -2.27169977231386 -0.32388339999036 -1.91951041514436
| 40> *
| 41>
| 42>                          ****END OF INPUT****
 Total Charge           Charge          ....    0
 Multiplicity           Mult            ....    1
 Number of Electrons    NEL             ....  132
Dispersion correction           -0.051976615
FINAL SINGLE POINT ENERGY      -908.642084335058
Dispersion correction             ... done (  0.0 sec)
Dispersion correction           -0.052754251
FINAL SINGLE POINT ENERGY      -908.677182210450
Dispersion correction             ... done (  0.0 sec)
Dispersion correction           -0.053557414
FINAL SINGLE POINT ENERGY      -908.702876741803
Dispersion correction             ... done (  0.0 sec)
FINAL SINGLE POINT ENERGY      -908.729876065810
FINAL SINGLE POINT ENERGY      -908.750422489785
FINAL SINGLE POINT ENERGY      -908.757774979501
FINAL SINGLE POINT ENERGY      -908.761152781372
FINAL SINGLE POINT ENERGY      -908.762455780362
FINAL SINGLE POINT ENERGY      -908.763377282938
FINAL SINGLE POINT ENERGY      -908.763906106459
FINAL SINGLE POINT ENERGY      -908.766185089373
FINAL SINGLE POINT ENERGY      -908.766327577917
FINAL SINGLE POINT ENERGY      -908.766431649184
FINAL SINGLE POINT ENERGY      -908.766515857180
FINAL SINGLE POINT ENERGY      -908.766556642633
FINAL SINGLE POINT ENERGY      -908.766568887151
FINAL SINGLE POINT ENERGY      -908.766563813782
Dispersion correction             ... done (  0.0 sec)
Dispersion correction           -0.056574590
FINAL SINGLE POINT ENERGY      -908.766581490489
Dispersion correction             ... done (  0.0 sec)
Dispersion correction           -0.056570882
FINAL SINGLE POINT ENERGY      -908.766584591823
Dispersion correction             ... done (  0.0 sec)
                    ***********************HURRAY********************

CARTESIAN COORDINATES (ANGSTROEM)
---------------------------------
  O      4.059634    0.139651    0.343048
  O     -1.714852    1.521441   -2.382164
  O      1.143140   -3.015627   -1.084964
  O     -3.629179   -1.350890    0.507669
  N      0.297880   -1.270249    0.096361
  N     -1.985207   -0.008681    1.315054
  N      2.589925   -1.484637   -0.244316
  N     -2.420692   -0.112469   -0.968872
  C      1.818311    0.405673    1.017173
  C     -0.919337    1.571711   -0.159958
  C      0.464550   -0.267967    1.128653
  C     -0.728163    0.703572    1.100779
  C      2.100370    1.655249    1.724157
  C     -0.640347    3.007336   -0.098057
  C      2.919135   -0.286635    0.360307
  C     -1.676893    1.024713   -1.273872
  C      1.315143   -2.002374   -0.448066
  C     -2.743340   -0.549812    0.310272
  H      0.443780   -0.771830    2.118146
  H     -0.606694    1.389923    1.939316
  H      3.165683    1.752019    1.912391
  H      1.806765    2.533679    1.120269
  H      1.533024    1.737044    2.653774
  H     -1.204260    3.478926    0.716207
  H      0.415931    3.204075    0.150528
  H     -0.886827    3.492889   -1.036315
  H     -0.572524   -1.773892    0.080955
  H     -2.220886   -0.356198    2.228040
  H      3.332643   -1.974386   -0.717041
  H     -3.004112   -0.477256   -1.704874

 Multiplicity           Mult            ....    1
 Number of Electrons    NEL             ....  132
 Basis Dimension        Dim             ....  882

ORBITAL ENERGIES
----------------

  NO   OCC          E(Eh)            E(eV)
   0   2.0000     -19.334547      -526.1198
   1   2.0000     -19.333298      -526.0858
   2   2.0000     -19.326744      -525.9074
   3   2.0000     -19.318621      -525.6864
   4   2.0000     -14.568549      -396.4304
   5   2.0000     -14.567270      -396.3956
   6   2.0000     -14.565852      -396.3570
   7   2.0000     -14.558615      -396.1601
   8   2.0000     -10.511347      -286.0283
   9   2.0000     -10.505276      -285.8631
  10   2.0000     -10.487731      -285.3857
  11   2.0000     -10.485284      -285.3191
  12   2.0000     -10.451326      -284.3950
  13   2.0000     -10.448253      -284.3114
  14   2.0000     -10.435619      -283.9676
  15   2.0000     -10.429717      -283.8070
  16   2.0000     -10.386123      -282.6208
  17   2.0000     -10.382198      -282.5140
  18   2.0000      -1.224754       -33.3272
  19   2.0000      -1.220379       -33.2082
  20   2.0000      -1.198058       -32.6008
  21   2.0000      -1.197658       -32.5899
  22   2.0000      -1.121118       -30.5072
  23   2.0000      -1.100170       -29.9371
  24   2.0000      -1.070523       -29.1304
  25   2.0000      -1.059987       -28.8437
  26   2.0000      -0.981433       -26.7061
  27   2.0000      -0.955467       -25.9996
  28   2.0000      -0.898205       -24.4414
  29   2.0000      -0.845649       -23.0113
  30   2.0000      -0.831108       -22.6156
  31   2.0000      -0.800627       -21.7862
  32   2.0000      -0.789266       -21.4770
  33   2.0000      -0.785635       -21.3782
  34   2.0000      -0.705233       -19.1904
  35   2.0000      -0.698998       -19.0207
  36   2.0000      -0.691127       -18.8065
  37   2.0000      -0.678361       -18.4591
  38   2.0000      -0.644382       -17.5345
  39   2.0000      -0.639327       -17.3970
  40   2.0000      -0.626365       -17.0443
  41   2.0000      -0.606098       -16.4928
  42   2.0000      -0.597688       -16.2639
  43   2.0000      -0.585105       -15.9215
  44   2.0000      -0.579206       -15.7610
  45   2.0000      -0.576146       -15.6777
  46   2.0000      -0.571585       -15.5536
  47   2.0000      -0.564727       -15.3670
  48   2.0000      -0.560748       -15.2587
  49   2.0000      -0.557797       -15.1784
  50   2.0000      -0.549967       -14.9654
  51   2.0000      -0.544773       -14.8240
  52   2.0000      -0.535664       -14.5761
  53   2.0000      -0.523788       -14.2530
  54   2.0000      -0.514568       -14.0021
  55   2.0000      -0.509072       -13.8525
  56   2.0000      -0.492832       -13.4107
  57   2.0000      -0.423984       -11.5372
  58   2.0000      -0.421872       -11.4797
  59   2.0000      -0.408987       -11.1291
  60   2.0000      -0.402105       -10.9418
  61   2.0000      -0.398170       -10.8347
  62   2.0000      -0.393188       -10.6992
  63   2.0000      -0.390764       -10.6332
  64   2.0000      -0.381556       -10.3827
  65   2.0000      -0.280481        -7.6323
  66   0.0000      -0.127259        -3.4629
  67   0.0000       0.007049         0.1918
  68   0.0000       0.028397         0.7727
  69   0.0000       0.031255         0.8505
  70   0.0000       0.033362         0.9078

MULLIKEN ATOMIC CHARGES
-----------------------
   0 O :   -0.646228
   1 O :   -0.643656
   2 O :   -0.657027
   3 O :   -0.640628
   4 N :   -0.149680
   5 N :   -0.300993
   6 N :   -0.036788
   7 N :    0.029033
   8 C :    0.369577
   9 C :    0.280754
  10 C :    0.250151
  11 C :    0.663144
  12 C :   -1.682636
  13 C :   -1.390472
  14 C :    0.582365
  15 C :    0.234413
  16 C :    0.371729
  17 C :    0.404734
  18 H :    0.499659
  19 H :    0.596950
  20 H :    0.333203
  21 H :    0.222740
  22 H :    0.327657
  23 H :    0.317066
  24 H :    0.153015
  25 H :    0.355184
  26 H :    0.020123
  27 H :    0.044509
  28 H :    0.050912
  29 H :    0.041192
Sum of atomic charges:    0.0000000

LOEWDIN ATOMIC CHARGES
----------------------
   0 O :    0.090294
   1 O :    0.099202
   2 O :    0.094443
   3 O :    0.090608
   4 N :    0.286960
   5 N :    0.277799
   6 N :    0.331423
   7 N :    0.321218
   8 C :    0.025522
   9 C :    0.019993
  10 C :   -0.140054
  11 C :   -0.115725
  12 C :    0.182596
  13 C :    0.180285
  14 C :   -0.397382
  15 C :   -0.403593
  16 C :   -0.469621
  17 C :   -0.502126
  18 H :    0.066504
  19 H :    0.038630
  20 H :    0.003248
  21 H :   -0.007677
  22 H :    0.009952
  23 H :    0.020292
  24 H :   -0.018383
  25 H :    0.002427
  26 H :   -0.039292
  27 H :   -0.028640
  28 H :   -0.009196
  29 H :   -0.009708

  Mayer bond orders larger than 0.100000
B(  0-O , 14-C ) :   1.3004 B(  1-O , 15-C ) :   1.4035 B(  2-O , 16-C ) :   1.5668
B(  3-O , 17-C ) :   1.5957 B(  4-N , 10-C ) :   0.5108 B(  4-N , 11-C ) :   0.1243
B(  4-N , 16-C ) :   1.1491 B(  4-N , 26-H ) :   1.0908 B(  5-N ,  9-C ) :   0.2158
B(  5-N , 10-C ) :   0.1903 B(  5-N , 17-C ) :   1.1472 B(  5-N , 27-H ) :   1.1081
B(  6-N , 14-C ) :   0.9949 B(  6-N , 16-C ) :   0.9224 B(  6-N , 28-H ) :   1.1171
B(  7-N , 15-C ) :   1.0603 B(  7-N , 17-C ) :   0.9452 B(  7-N , 29-H ) :   1.0840
B(  8-C ,  9-C ) :   0.6211 B(  8-C , 10-C ) :   0.5586 B(  8-C , 12-C ) :   0.3838
B(  8-C , 14-C ) :   0.7248 B(  8-C , 22-H ) :  -0.1607 B(  9-C , 10-C ) :   0.2248
B(  9-C , 11-C ) :  -0.1562 B(  9-C , 12-C ) :   0.1158 B(  9-C , 13-C ) :   0.4743
B(  9-C , 15-C ) :   0.7958 B(  9-C , 19-H ) :  -0.1570 B(  9-C , 24-H ) :  -0.1169
B(  9-C , 25-H ) :  -0.1001 B( 10-C , 11-C ) :   0.5447 B( 10-C , 12-C ) :  -0.2695
B( 10-C , 14-C ) :   0.2331 B( 10-C , 18-H ) :   0.7407 B( 11-C , 13-C ) :  -0.2527
B( 11-C , 15-C ) :  -0.1062 B( 11-C , 17-C ) :  -0.1902 B( 11-C , 19-H ) :   0.7771
B( 12-C , 13-C ) :   0.1109 B( 12-C , 14-C ) :  -0.3740 B( 12-C , 20-H ) :   1.0357
B( 12-C , 21-H ) :   0.8636 B( 12-C , 22-H ) :   1.0198 B( 13-C , 15-C ) :  -0.1021
B( 13-C , 23-H ) :   0.8861 B( 13-C , 24-H ) :   1.0723 B( 13-C , 25-H ) :   0.9461

Dispersion correction           -0.056578479
FINAL SINGLE POINT ENERGY      -908.766586193819

DIPOLE MOMENT
-------------

Method             : SCF
Type of density    : Electron Density
Multiplicity       :   1
Irrep              :   0
Energy             :  -908.7100077147573529 Eh
Relativity type    :
Basis              : AO
                                X                 Y                 Z
Electronic contribution:     -1.945462205     -10.272969811      -5.956426214
Nuclear contribution   :      1.982610529      11.784198783       8.190108624
                        -----------------------------------------
Total Dipole Moment    :      0.037148324       1.511228971       2.233682410
                        -----------------------------------------
Magnitude (a.u.)       :      2.697133684
Magnitude (Debye)      :      6.855569005

Rotational constants in cm-1:             0.020470             0.011407             0.009499
Rotational constants in MHz :           613.680650           341.961140           284.758535

                             ****ORCA TERMINATED NORMALLY****
TOTAL RUN TIME: 0 days 2 hours 0 minutes 18 seconds 441 msec
