                         Program Version 6.0.0  -   RELEASE  -
|  1> ! Engrad def2-TZVPPD wB97M-D3BJ
|  2> %pal nprocs 8 end%pal nprocs 64 end
|  3> %tddft
|  4>  Iroot 1 Nroots 3
|  5> sf true
|  6> end
|  7> *xyz 0 3
|  8> O   3.41417677 0.84253249 0.09340232
|  9> O   -0.80317511 0.79943049 -2.76114012
| 10> O   1.20796485 -2.93883677 -0.67244184
| 11> O   -3.66701653 -1.44435553 0.04653963
| 12> N   0.24867533 -1.43084987 0.80374297
| 13> N   -2.2361931 0.04329875 0.93891354
| 14> N   1.98379222 -0.84179984 -0.54731484
| 15> N   -2.14861199 -0.35934823 -1.30264368
| 16> C   1.4901721 0.59104988 1.31990124
| 17> C   -0.59258558 1.23481124 -0.46733504
| 18> C   0.26754973 -0.17689477 1.45433691
| 19> C   -0.95447619 0.77786242 0.90831274
| 20> C   1.823527 1.65888079 2.37446197
| 21> C   0.24641165 2.49036966 -0.60017359
| 22> C   2.33317439 0.2368898 0.24907264
| 23> C   -1.10025 0.53942523 -1.59316789
| 24> C   1.12368747 -1.83184575 -0.24764266
| 25> C   -2.72482942 -0.69322479 -0.10265281
| 26> H   -0.09322577 -0.41317452 2.48791864
| 27> H   -1.18147058 1.58550553 1.58836569
| 28> H   1.93802703 1.39371613 3.39864322
| 29> H   2.68977247 2.09740519 2.02678503
| 30> H   0.96816523 2.36522248 2.53519878
| 31> H   -0.12797489 3.16366562 -1.32371756
| 32> H   0.2645861 3.05426873 0.38702355
| 33> H   1.20523867 2.32327207 -0.89106244
| 34> H   -0.56469685 -2.03187216 0.7798702
| 35> H   -2.62312959 -0.11435963 1.84130262
| 36> H   2.70099915 -1.09279297 -1.21462499
| 37> H   -2.51749608 -0.81067428 -2.06792371
| 38> *
| 39>
| 40>                          ****END OF INPUT****

CARTESIAN COORDINATES (ANGSTROEM)
---------------------------------
  O      3.414177    0.842532    0.093402
  O     -0.803175    0.799430   -2.761140
  O      1.207965   -2.938837   -0.672442
  O     -3.667017   -1.444356    0.046540
  N      0.248675   -1.430850    0.803743
  N     -2.236193    0.043299    0.938914
  N      1.983792   -0.841800   -0.547315
  N     -2.148612   -0.359348   -1.302644
  C      1.490172    0.591050    1.319901
  C     -0.592586    1.234811   -0.467335
  C      0.267550   -0.176895    1.454337
  C     -0.954476    0.777862    0.908313
  C      1.823527    1.658881    2.374462
  C      0.246412    2.490370   -0.600174
  C      2.333174    0.236890    0.249073
  C     -1.100250    0.539425   -1.593168
  C      1.123687   -1.831846   -0.247643
  C     -2.724829   -0.693225   -0.102653
  H     -0.093226   -0.413175    2.487919
  H     -1.181471    1.585506    1.588366
  H      1.938027    1.393716    3.398643
  H      2.689772    2.097405    2.026785
  H      0.968165    2.365222    2.535199
  H     -0.127975    3.163666   -1.323718
  H      0.264586    3.054269    0.387024
  H      1.205239    2.323272   -0.891062
  H     -0.564697   -2.031872    0.779870
  H     -2.623130   -0.114360    1.841303
  H      2.700999   -1.092793   -1.214625
  H     -2.517496   -0.810674   -2.067924

 Total Charge           Charge          ....    0
 Multiplicity           Mult            ....    3
 Number of Electrons    NEL             ....  132
 Basis Dimension        Dim             ....  882

ORBITAL ENERGIES
----------------
                 SPIN UP ORBITALS
  NO   OCC          E(Eh)            E(eV)
   0   1.0000     -19.341129      -526.2989
   1   1.0000     -19.339273      -526.2484
   2   1.0000     -19.329905      -525.9934
   3   1.0000     -19.320618      -525.7407
   4   1.0000     -14.570124      -396.4732
   5   1.0000     -14.561668      -396.2431
   6   1.0000     -14.559849      -396.1936
   7   1.0000     -14.556174      -396.0936
   8   1.0000     -10.507868      -285.9336
   9   1.0000     -10.506264      -285.8900
  10   1.0000     -10.487958      -285.3918
  11   1.0000     -10.485646      -285.3289
  12   1.0000     -10.447904      -284.3019
  13   1.0000     -10.447754      -284.2978
  14   1.0000     -10.426484      -283.7191
  15   1.0000     -10.423387      -283.6348
  16   1.0000     -10.379694      -282.4458
  17   1.0000     -10.369734      -282.1748
  18   1.0000      -1.233167       -33.5562
  19   1.0000      -1.219064       -33.1724
  20   1.0000      -1.196338       -32.5540
  21   1.0000      -1.193826       -32.4857
  22   1.0000      -1.124105       -30.5884
  23   1.0000      -1.104836       -30.0641
  24   1.0000      -1.074068       -29.2269
  25   1.0000      -1.058306       -28.7980
  26   1.0000      -0.988181       -26.8898
  27   1.0000      -0.957561       -26.0566
  28   1.0000      -0.885517       -24.0961
  29   1.0000      -0.857670       -23.3384
  30   1.0000      -0.841997       -22.9119
  31   1.0000      -0.809566       -22.0294
  32   1.0000      -0.796544       -21.6751
  33   1.0000      -0.792189       -21.5566
  34   1.0000      -0.705914       -19.2089
  35   1.0000      -0.704548       -19.1717
  36   1.0000      -0.697524       -18.9806
  37   1.0000      -0.681275       -18.5384
  38   1.0000      -0.658604       -17.9215
  39   1.0000      -0.634679       -17.2705
  40   1.0000      -0.621450       -16.9105
  41   1.0000      -0.603481       -16.4216
  42   1.0000      -0.602020       -16.3818
  43   1.0000      -0.591742       -16.1021
  44   1.0000      -0.580818       -15.8049
  45   1.0000      -0.574674       -15.6377
  46   1.0000      -0.573290       -15.6000
  47   1.0000      -0.568698       -15.4751
  48   1.0000      -0.565834       -15.3971
  49   1.0000      -0.557024       -15.1574
  50   1.0000      -0.553480       -15.0610
  51   1.0000      -0.543874       -14.7996
  52   1.0000      -0.533881       -14.5276
  53   1.0000      -0.524026       -14.2595
  54   1.0000      -0.517088       -14.0707
  55   1.0000      -0.509291       -13.8585
  56   1.0000      -0.498723       -13.5710
  57   1.0000      -0.428389       -11.6571
  58   1.0000      -0.420088       -11.4312
  59   1.0000      -0.414429       -11.2772
  60   1.0000      -0.410721       -11.1763
  61   1.0000      -0.404589       -11.0094
  62   1.0000      -0.401344       -10.9211
  63   1.0000      -0.396918       -10.8007
  64   1.0000      -0.386981       -10.5303
  65   1.0000      -0.353526        -9.6199
  66   1.0000      -0.327220        -8.9041
  67   0.0000       0.006536         0.1779
  68   0.0000       0.030053         0.8178
  69   0.0000       0.032397         0.8816
  70   0.0000       0.033959         0.9241
  71   0.0000       0.052848         1.4381

                 SPIN DOWN ORBITALS
  NO   OCC          E(Eh)            E(eV)
   0   1.0000     -19.335233      -526.1384
   1   1.0000     -19.334205      -526.1105
   2   1.0000     -19.329924      -525.9940
   3   1.0000     -19.320436      -525.7358
   4   1.0000     -14.569481      -396.4557
   5   1.0000     -14.561032      -396.2258
   6   1.0000     -14.559509      -396.1844
   7   1.0000     -14.556076      -396.0910
   8   1.0000     -10.507921      -285.9351
   9   1.0000     -10.506321      -285.8915
  10   1.0000     -10.489092      -285.4227
  11   1.0000     -10.486730      -285.3584
  12   1.0000     -10.447421      -284.2888
  13   1.0000     -10.446738      -284.2702
  14   1.0000     -10.415848      -283.4296
  15   1.0000     -10.412346      -283.3343
  16   1.0000     -10.380306      -282.4625
  17   1.0000     -10.370154      -282.1862
  18   1.0000      -1.232299       -33.5326
  19   1.0000      -1.217419       -33.1277
  20   1.0000      -1.189077       -32.3564
  21   1.0000      -1.187623       -32.3169
  22   1.0000      -1.120758       -30.4974
  23   1.0000      -1.102184       -29.9919
  24   1.0000      -1.071643       -29.1609
  25   1.0000      -1.056695       -28.7541
  26   1.0000      -0.974258       -26.5109
  27   1.0000      -0.940213       -25.5845
  28   1.0000      -0.880659       -23.9639
  29   1.0000      -0.852852       -23.2073
  30   1.0000      -0.833424       -22.6786
  31   1.0000      -0.805168       -21.9097
  32   1.0000      -0.794865       -21.6294
  33   1.0000      -0.790228       -21.5032
  34   1.0000      -0.700147       -19.0520
  35   1.0000      -0.698843       -19.0165
  36   1.0000      -0.691114       -18.8062
  37   1.0000      -0.674613       -18.3572
  38   1.0000      -0.645817       -17.5736
  39   1.0000      -0.630552       -17.1582
  40   1.0000      -0.617513       -16.8034
  41   1.0000      -0.597957       -16.2712
  42   1.0000      -0.596473       -16.2309
  43   1.0000      -0.586963       -15.9721
  44   1.0000      -0.576548       -15.6887
  45   1.0000      -0.568568       -15.4715
  46   1.0000      -0.563299       -15.3281
  47   1.0000      -0.562120       -15.2961
  48   1.0000      -0.557235       -15.1631
  49   1.0000      -0.551091       -14.9960
  50   1.0000      -0.542732       -14.7685
  51   1.0000      -0.535229       -14.5643
  52   1.0000      -0.527549       -14.3553
  53   1.0000      -0.512704       -13.9514
  54   1.0000      -0.506692       -13.7878
  55   1.0000      -0.503735       -13.7073
  56   1.0000      -0.493026       -13.4159
  57   1.0000      -0.422161       -11.4876
  58   1.0000      -0.415665       -11.3108
  59   1.0000      -0.404931       -11.0187
  60   1.0000      -0.397993       -10.8299
  61   1.0000      -0.395527       -10.7628
  62   1.0000      -0.392800       -10.6886
  63   1.0000      -0.390892       -10.6367
  64   1.0000      -0.369917       -10.0660
  65   0.0000      -0.072707        -1.9785
  66   0.0000      -0.061398        -1.6707
  67   0.0000       0.006105         0.1661
  68   0.0000       0.029919         0.8141
  69   0.0000       0.032393         0.8815

----------------------------------------------------------------------------------------------------
          SPIN FLIP ABSORPTION SPECTRUM VIA TRANSITION ELECTRIC DIPOLE MOMENTS
----------------------------------------------------------------------------------------------------
     Transition      Energy     Energy  Wavelength fosc(D2)      D2        DX        DY        DZ
                      (eV)      (cm-1)    (nm)                 (au**2)    (au)      (au)      (au)
----------------------------------------------------------------------------------------------------
  1-3A  ->  2-3A    0.046180     372.5  26848.1   0.000015380   0.01359   0.10227  -0.00210   0.05594
  1-3A  ->  3-3A    1.947354   15706.5   636.7   0.021347353   0.44745   0.59967   0.16387   0.24695

Dispersion correction             ... done (  0.1 sec)

MULLIKEN ATOMIC CHARGES AND SPIN DENSITIES
------------------------------------------
   0 O :   -0.718379   -0.114105
   1 O :   -0.673231    0.109658
   2 O :   -0.614196    0.000150
   3 O :   -0.654474   -0.001553
   4 N :   -0.225096   -0.009594
   5 N :   -0.252758   -0.000426
   6 N :    0.045042   -0.010408
   7 N :    0.096099    0.013007
   8 C :    0.806049    0.337321
   9 C :    0.302765    0.338774
  10 C :    0.033878   -0.269620
  11 C :    0.465061   -0.033024
  12 C :   -1.389518   -0.014489
  13 C :   -1.524028   -0.014289
  14 C :    0.041978   -0.372515
  15 C :    0.206371   -0.014306
  16 C :    0.428806    0.012364
  17 C :    0.509963    0.001212
  18 H :    0.458908   -0.027225
  19 H :    0.529950    0.015842
  20 H :    0.312503    0.001979
  21 H :    0.335301   -0.004185
  22 H :    0.328555    0.007281
  23 H :    0.390675    0.013114
  24 H :    0.322018    0.000136
  25 H :    0.323665    0.029326
  26 H :    0.072145    0.001420
  27 H :    0.030960    0.000623
  28 H :    0.070961    0.003120
  29 H :   -0.059974    0.000410
Sum of atomic charges       :    0.0000000

LOEWDIN ATOMIC CHARGES AND SPIN DENSITIES
-----------------------------------------
   0 O :    0.052596   -0.103081
   1 O :    0.091181    0.095443
   2 O :    0.130497   -0.000119
   3 O :    0.085383   -0.001611
   4 N :    0.279994   -0.001821
   5 N :    0.280521   -0.005608
   6 N :    0.338700   -0.007669
   7 N :    0.358338    0.012749
   8 C :   -0.038263   -0.249024
   9 C :   -0.014235    0.280061
  10 C :   -0.127610   -0.015293
  11 C :   -0.059458    0.000509
  12 C :    0.243792   -0.029726
  13 C :    0.242381    0.031344
  14 C :   -0.404655   -0.050365
  15 C :   -0.379035    0.047763
  16 C :   -0.478697    0.000162
  17 C :   -0.502557   -0.000683
  18 H :    0.081673   -0.004475
  19 H :    0.039417    0.002418
  20 H :   -0.015263   -0.007618
  21 H :   -0.053414    0.001075
  22 H :    0.016915   -0.008847
  23 H :   -0.009889    0.006375
  24 H :    0.037414   -0.000669
  25 H :   -0.056686    0.008908
  26 H :   -0.032944   -0.000214
  27 H :   -0.043239   -0.000612
  28 H :    0.004193   -0.000826
  29 H :   -0.067053    0.001453

  Mayer bond orders larger than 0.100000
B(  0-O , 14-C ) :   1.3642 B(  1-O , 15-C ) :   1.2710 B(  2-O , 16-C ) :   1.5906
B(  3-O , 17-C ) :   1.5893 B(  4-N ,  8-C ) :   0.1317 B(  4-N , 10-C ) :   0.4739
B(  4-N , 16-C ) :   0.9628 B(  4-N , 26-H ) :   1.0651 B(  5-N ,  9-C ) :   0.1403
B(  5-N , 10-C ) :   0.1147 B(  5-N , 11-C ) :   0.2164 B(  5-N , 17-C ) :   1.0850
B(  5-N , 27-H ) :   1.1396 B(  6-N , 10-C ) :   0.1176 B(  6-N , 14-C ) :   1.0673
B(  6-N , 16-C ) :   0.9895 B(  6-N , 28-H ) :   1.0651 B(  7-N , 15-C ) :   0.9947
B(  7-N , 17-C ) :   0.9296 B(  7-N , 29-H ) :   1.1646 B(  8-C ,  9-C ) :   0.1755
B(  8-C , 10-C ) :   0.7650 B(  8-C , 11-C ) :   0.1875 B(  8-C , 12-C ) :   0.3632
B(  8-C , 14-C ) :   0.5021 B(  8-C , 16-C ) :   0.1174 B(  8-C , 21-H ) :  -0.1107
B(  9-C , 10-C ) :   0.1781 B(  9-C , 11-C ) :   0.1927 B(  9-C , 13-C ) :   0.4364
B(  9-C , 15-C ) :   0.7928 B(  9-C , 19-H ) :  -0.2547 B(  9-C , 24-H ) :  -0.1321
B( 10-C , 11-C ) :   0.4381 B( 10-C , 16-C ) :  -0.1797 B( 10-C , 18-H ) :   0.8165
B( 11-C , 13-C ) :  -0.3783 B( 11-C , 15-C ) :  -0.1369 B( 11-C , 17-C ) :  -0.1082
B( 11-C , 18-H ) :  -0.1273 B( 11-C , 19-H ) :   0.8422 B( 12-C , 20-H ) :   0.9353
B( 12-C , 21-H ) :   1.0097 B( 12-C , 22-H ) :   0.8432 B( 13-C , 23-H ) :   0.8829
B( 13-C , 24-H ) :   1.0212 B( 13-C , 25-H ) :   0.8808

Dispersion correction           -0.059322241
FINAL SINGLE POINT ENERGY      -908.766446419829

DIPOLE MOMENT
-------------

Method             : TDA/CIS
Type of density    : Electron Density
Level              : Relaxed density
State              :   1
Multiplicity       :   3
Irrep              :   0
Energy             :     0.0000000000000000 Eh
Relativity type    :
Basis              : AO
                                X                 Y                 Z
Electronic contribution:     -2.893475487      -9.663466147      -6.899448734
Nuclear contribution   :      2.577741271      11.226264215       9.132807781
                        -----------------------------------------
Total Dipole Moment    :     -0.315734216       1.562798069       2.233359047
                        -----------------------------------------
Magnitude (a.u.)       :      2.744069702
Magnitude (Debye)      :      6.974870882

Rotational constants in cm-1:             0.020968             0.012678             0.011792
Rotational constants in MHz :           628.615238           380.068825           353.513743

                             ****ORCA TERMINATED NORMALLY****
TOTAL RUN TIME: 0 days 0 hours 5 minutes 4 seconds 585 msec
