                         Program Version 6.0.0  -   RELEASE  -
|  1> ! Opt wB97M-D3BJ def2-TZVPPD
|  2> %pal nprocs 8 end %pal nprocs 64 end
|  3> %geom
|  4> Constraints
|  5>     {A 2 1 0 94.54545454545455 C }
|  6> end
|  7> MaxIter 500
|  8> end
|  9> *xyz 0 1
| 10> O   -0.0007 0.8141 0.0
| 11> C   0.7509 -0.4065 0.0
| 12> C   -0.7502 -0.4076 0.0
| 13> H   1.2625 -0.6786 0.9136
| 14> H   1.2625 -0.6787 -0.9136
| 15> H   -1.2614 -0.6806 -0.9136
| 16> H   -1.2614 -0.6805 0.9136
| 17> *
| 18>
| 19>                          ****END OF INPUT****
 Total Charge           Charge          ....    0
 Multiplicity           Mult            ....    1
 Number of Electrons    NEL             ....   24
Dispersion correction           -0.005721469
FINAL SINGLE POINT ENERGY      -153.772698783049
Dispersion correction             ... done (  0.1 sec)
Dispersion correction           -0.005683442
FINAL SINGLE POINT ENERGY      -153.800028659920
Dispersion correction             ... done (  0.2 sec)
Dispersion correction           -0.005654736
FINAL SINGLE POINT ENERGY      -153.808602833851
Dispersion correction             ... done (  0.2 sec)
FINAL SINGLE POINT ENERGY      -153.811842081467
FINAL SINGLE POINT ENERGY      -153.812603601180
FINAL SINGLE POINT ENERGY      -153.812823679112
FINAL SINGLE POINT ENERGY      -153.812950986636
FINAL SINGLE POINT ENERGY      -153.813022255491
FINAL SINGLE POINT ENERGY      -153.813066734627
FINAL SINGLE POINT ENERGY      -153.813093280899
Dispersion correction             ... done (  0.1 sec)
Dispersion correction           -0.005673858
FINAL SINGLE POINT ENERGY      -153.813103088458
Dispersion correction             ... done (  0.1 sec)
Dispersion correction           -0.005672796
FINAL SINGLE POINT ENERGY      -153.813105938786
Dispersion correction             ... done (  0.1 sec)
                    ***********************HURRAY********************

CARTESIAN COORDINATES (ANGSTROEM)
---------------------------------
  O      0.342794    1.013044   -0.002528
  C      0.628339   -0.295229   -0.000560
  C     -0.740541   -0.710024    0.000598
  H      1.183777   -0.634527    0.884835
  H      1.184251   -0.636986   -0.884635
  H     -1.299054   -0.729225   -0.923924
  H     -1.297364   -0.725454    0.926214

 Multiplicity           Mult            ....    1
 Number of Electrons    NEL             ....   24
 Basis Dimension        Dim             ....  182

ORBITAL ENERGIES
----------------

  NO   OCC          E(Eh)            E(eV)
   0   2.0000     -19.333866      -526.1012
   1   2.0000     -10.437853      -284.0284
   2   2.0000     -10.397043      -282.9179
   3   2.0000      -1.136819       -30.9344
   4   2.0000      -0.874909       -23.8075
   5   2.0000      -0.734028       -19.9739
   6   2.0000      -0.624900       -17.0044
   7   2.0000      -0.577048       -15.7023
   8   2.0000      -0.517020       -14.0688
   9   2.0000      -0.509623       -13.8676
  10   2.0000      -0.377856       -10.2820
  11   2.0000      -0.358751        -9.7621
  12   0.0000      -0.038178        -1.0389
  13   0.0000       0.038485         1.0472
  14   0.0000       0.061005         1.6600
  15   0.0000       0.076554         2.0831
  16   0.0000       0.097995         2.6666

MULLIKEN ATOMIC CHARGES
-----------------------
   0 O :   -0.499101
   1 C :   -0.091510
   2 C :   -0.281424
   3 H :    0.217615
   4 H :    0.217760
   5 H :    0.218277
   6 H :    0.218382
Sum of atomic charges:    0.0000000

LOEWDIN ATOMIC CHARGES
----------------------
   0 O :   -0.015794
   1 C :   -0.377905
   2 C :    0.361768
   3 H :    0.023631
   4 H :    0.023630
   5 H :   -0.007660
   6 H :   -0.007669

  Mayer bond orders larger than 0.100000
B(  0-O ,  1-C ) :   0.6897 B(  0-O ,  2-C ) :   0.9307 B(  1-C ,  2-C ) :   0.7716
B(  1-C ,  3-H ) :   1.0451 B(  1-C ,  4-H ) :   1.0449 B(  2-C ,  5-H ) :   0.9651
B(  2-C ,  6-H ) :   0.9651

Dispersion correction           -0.005672618
FINAL SINGLE POINT ENERGY      -153.813106722642

DIPOLE MOMENT
-------------

Method             : SCF
Type of density    : Electron Density
Multiplicity       :   1
Irrep              :   0
Energy             :  -153.8074341050915450 Eh
Relativity type    :
Basis              : AO
                                X                 Y                 Z
Electronic contribution:      0.078493105       1.418661017      -0.003342388
Nuclear contribution   :     -0.543289759      -2.661165281       0.005503899
                        -----------------------------------------
Total Dipole Moment    :     -0.464796654      -1.242504264       0.002161510
                        -----------------------------------------
Magnitude (a.u.)       :      1.326596188
Magnitude (Debye)      :      3.371939539

Rotational constants in cm-1:             1.113827             0.469351             0.379289
Rotational constants in MHz :         33391.695809         14070.776218         11370.805785

                             ****ORCA TERMINATED NORMALLY****
TOTAL RUN TIME: 0 days 0 hours 3 minutes 1 seconds 691 msec
