                         Program Version 6.0.0  -   RELEASE  -
|  1> ! Engrad wB97M-D3BJ def2-TZVPPD
|  2> %pal nprocs 8 end%pal nprocs 16 end
|  3> %tddft nroots 2 Iroot 2
|  4>  sf true
|  5> end
|  6> *xyz 0 3
|  7> O   1.52508393033725 1.00398059756183 -0.04607335551675
|  8> C   0.94979011601866 -0.01012710005958 0.23440689102375
|  9> C   -0.30714874630042 -0.67352274373853 -0.23620211418993
| 10> H   1.41868060528999 -0.64289397703452 1.02408301008827
| 11> H   -0.03953863468452 -1.66651528320724 -0.59684177928896
| 12> H   -0.83299590460655 -0.12161479211504 -1.01138734533138
| 13> H   -0.9517260119509 -0.80948062848876 0.63201469321499
| 14> *
| 15>
| 16>                          ****END OF INPUT****

CARTESIAN COORDINATES (ANGSTROEM)
---------------------------------
  O      1.525084    1.003981   -0.046073
  C      0.949790   -0.010127    0.234407
  C     -0.307149   -0.673523   -0.236202
  H      1.418681   -0.642894    1.024083
  H     -0.039539   -1.666515   -0.596842
  H     -0.832996   -0.121615   -1.011387
  H     -0.951726   -0.809481    0.632015

 Total Charge           Charge          ....    0
 Multiplicity           Mult            ....    3
 Number of Electrons    NEL             ....   24
 Basis Dimension        Dim             ....  182

ORBITAL ENERGIES
----------------
                 SPIN UP ORBITALS
  NO   OCC          E(Eh)            E(eV)
   0   1.0000     -19.406840      -528.0870
   1   1.0000     -10.380167      -282.4587
   2   1.0000     -10.369558      -282.1700
   3   1.0000      -1.243628       -33.8408
   4   1.0000      -0.887246       -24.1432
   5   1.0000      -0.716071       -19.4853
   6   1.0000      -0.630700       -17.1622
   7   1.0000      -0.589165       -16.0320
   8   1.0000      -0.580888       -15.8068
   9   1.0000      -0.516769       -14.0620
  10   1.0000      -0.516071       -14.0430
  11   1.0000      -0.426906       -11.6167
  12   1.0000      -0.217853        -5.9281
  13   0.0000       0.038706         1.0532
  14   0.0000       0.059890         1.6297
  15   0.0000       0.077767         2.1162
  16   0.0000       0.087535         2.3820
  17   0.0000       0.106677         2.9028

                 SPIN DOWN ORBITALS
  NO   OCC          E(Eh)            E(eV)
   0   1.0000     -19.379641      -527.3469
   1   1.0000     -10.369920      -282.1799
   2   1.0000     -10.367564      -282.1157
   3   1.0000      -1.187229       -32.3062
   4   1.0000      -0.868230       -23.6257
   5   1.0000      -0.670392       -18.2423
   6   1.0000      -0.585388       -15.9292
   7   1.0000      -0.541637       -14.7387
   8   1.0000      -0.535795       -14.5797
   9   1.0000      -0.497945       -13.5498
  10   1.0000      -0.471564       -12.8319
  11   0.0000      -0.082540        -2.2460
  12   0.0000       0.039629         1.0784
  13   0.0000       0.059555         1.6206
  14   0.0000       0.077397         2.1061
  15   0.0000       0.084802         2.3076

----------------------------------------------------------------------------------------------------
          SPIN FLIP ABSORPTION SPECTRUM VIA TRANSITION ELECTRIC DIPOLE MOMENTS
----------------------------------------------------------------------------------------------------
     Transition      Energy     Energy  Wavelength fosc(D2)      D2        DX        DY        DZ
                      (eV)      (cm-1)    (nm)                 (au**2)    (au)      (au)      (au)
----------------------------------------------------------------------------------------------------
  1-3A  ->  2-3A    4.624204   37296.7   268.1   0.000268909   0.00237  -0.02537   0.02380   0.03411

Dispersion correction             ... done (  0.0 sec)

MULLIKEN ATOMIC CHARGES AND SPIN DENSITIES
------------------------------------------
   0 O :   -0.272350    0.560517
   1 C :    0.233892   -0.604757
   2 C :   -0.708815    0.118449
   3 H :    0.085082    0.025386
   4 H :    0.206753   -0.049846
   5 H :    0.247926   -0.001835
   6 H :    0.207512   -0.047913
Sum of atomic charges       :   -0.0000000

LOEWDIN ATOMIC CHARGES AND SPIN DENSITIES
-----------------------------------------
   0 O :    0.156351    0.373774
   1 C :   -0.259204   -0.333463
   2 C :    0.132469   -0.019814
   3 H :    0.018157    0.017786
   4 H :   -0.020625   -0.023213
   5 H :   -0.006560    0.008117
   6 H :   -0.020588   -0.023188

  Mayer bond orders larger than 0.100000
B(  0-O ,  1-C ) :   1.2974 B(  1-C ,  2-C ) :   0.6077 B(  1-C ,  3-H ) :   0.9953
B(  2-C ,  4-H ) :   1.0161 B(  2-C ,  5-H ) :   0.9288 B(  2-C ,  6-H ) :   1.0153

Dispersion correction           -0.005512341
FINAL SINGLE POINT ENERGY      -153.751199260460

DIPOLE MOMENT
-------------

Method             : TDA/CIS
Type of density    : Electron Density
Level              : Relaxed density
State              :   2
Multiplicity       :   3
Irrep              :   0
Energy             :     0.0000000000000000 Eh
Relativity type    :
Basis              : AO
                                X                 Y                 Z
Electronic contribution:      2.640367701       2.903478331      -0.066095522
Nuclear contribution   :     -3.069828499      -3.417429425       0.104985810
                        -----------------------------------------
Total Dipole Moment    :     -0.429460798      -0.513951094       0.038890288
                        -----------------------------------------
Magnitude (a.u.)       :      0.670891018
Magnitude (Debye)      :      1.705269448

Rotational constants in cm-1:             2.220565             0.317170             0.292462
Rotational constants in MHz :         66570.872008          9508.519787          8767.787708

                             ****ORCA TERMINATED NORMALLY****
TOTAL RUN TIME: 0 days 0 hours 0 minutes 16 seconds 280 msec
