                         Program Version 6.0.0  -   RELEASE  -
|  1> ! Opt wB97M-D3BJ def2-TZVPPD
|  2> %pal nprocs 8 end %pal nprocs 64 end
|  3> %geom
|  4> Constraints
|  5>     {A 2 1 0 81.81818181818181 C }
|  6> end
|  7> MaxIter 500
|  8> end
|  9> *xyz 0 1
| 10> O   -0.0007 0.8141 0.0
| 11> C   0.7509 -0.4065 0.0
| 12> C   -0.7502 -0.4076 0.0
| 13> H   1.2625 -0.6786 0.9136
| 14> H   1.2625 -0.6787 -0.9136
| 15> H   -1.2614 -0.6806 -0.9136
| 16> H   -1.2614 -0.6805 0.9136
| 17> *
| 18>
| 19>                          ****END OF INPUT****
 Total Charge           Charge          ....    0
 Multiplicity           Mult            ....    1
 Number of Electrons    NEL             ....   24
Dispersion correction           -0.005374031
FINAL SINGLE POINT ENERGY      -153.831568611576
Dispersion correction             ... done (  0.1 sec)
Dispersion correction           -0.005374592
FINAL SINGLE POINT ENERGY      -153.842306863376
Dispersion correction             ... done (  0.1 sec)
Dispersion correction           -0.005392453
FINAL SINGLE POINT ENERGY      -153.846065347931
Dispersion correction             ... done (  0.1 sec)
FINAL SINGLE POINT ENERGY      -153.846905598073
FINAL SINGLE POINT ENERGY      -153.847122049558
FINAL SINGLE POINT ENERGY      -153.847190278565
FINAL SINGLE POINT ENERGY      -153.847207744293
Dispersion correction             ... done (  0.2 sec)
Dispersion correction           -0.005404348
FINAL SINGLE POINT ENERGY      -153.847214351209
Dispersion correction             ... done (  0.2 sec)
Dispersion correction           -0.005405033
FINAL SINGLE POINT ENERGY      -153.847217743586
Dispersion correction             ... done (  0.2 sec)
                    ***********************HURRAY********************

CARTESIAN COORDINATES (ANGSTROEM)
---------------------------------
  O      0.202663    0.922644   -0.001058
  C      0.656356   -0.346292   -0.000192
  C     -0.732377   -0.628633    0.000258
  H      1.213318   -0.645914    0.893020
  H      1.213390   -0.646695   -0.893063
  H     -1.275890   -0.687994   -0.927831
  H     -1.275260   -0.685517    0.928866

 Multiplicity           Mult            ....    1
 Number of Electrons    NEL             ....   24
 Basis Dimension        Dim             ....  182

ORBITAL ENERGIES
----------------

  NO   OCC          E(Eh)            E(eV)
   0   2.0000     -19.342337      -526.3318
   1   2.0000     -10.420195      -283.5479
   2   2.0000     -10.396637      -282.9069
   3   2.0000      -1.159053       -31.5394
   4   2.0000      -0.852691       -23.2029
   5   2.0000      -0.737696       -20.0737
   6   2.0000      -0.626701       -17.0534
   7   2.0000      -0.584805       -15.9134
   8   2.0000      -0.508815       -13.8456
   9   2.0000      -0.502122       -13.6634
  10   2.0000      -0.400454       -10.8969
  11   2.0000      -0.369857       -10.0643
  12   0.0000       0.016557         0.4505
  13   0.0000       0.043371         1.1802
  14   0.0000       0.060697         1.6517
  15   0.0000       0.076735         2.0881
  16   0.0000       0.100428         2.7328

MULLIKEN ATOMIC CHARGES
-----------------------
   0 O :   -0.452581
   1 C :   -0.088136
   2 C :   -0.305621
   3 H :    0.211660
   4 H :    0.211671
   5 H :    0.211439
   6 H :    0.211568
Sum of atomic charges:    0.0000000

LOEWDIN ATOMIC CHARGES
----------------------
   0 O :   -0.022034
   1 C :   -0.290053
   2 C :    0.270525
   3 H :    0.024769
   4 H :    0.024770
   5 H :   -0.003983
   6 H :   -0.003995

  Mayer bond orders larger than 0.100000
B(  0-O ,  1-C ) :   0.6761 B(  0-O ,  2-C ) :   0.9415 B(  1-C ,  2-C ) :   0.7716
B(  1-C ,  3-H ) :   1.0513 B(  1-C ,  4-H ) :   1.0512 B(  2-C ,  5-H ) :   0.9684
B(  2-C ,  6-H ) :   0.9684

Dispersion correction           -0.005405170
FINAL SINGLE POINT ENERGY      -153.847218845384

DIPOLE MOMENT
-------------

Method             : SCF
Type of density    : Electron Density
Multiplicity       :   1
Irrep              :   0
Energy             :  -153.8418136751474208 Eh
Relativity type    :
Basis              : AO
                                X                 Y                 Z
Electronic contribution:      0.035401162       1.475022715      -0.001409828
Nuclear contribution   :     -0.302229565      -2.518784428       0.002209632
                        -----------------------------------------
Total Dipole Moment    :     -0.266828403      -1.043761713       0.000799804
                        -----------------------------------------
Magnitude (a.u.)       :      1.077328432
Magnitude (Debye)      :      2.738351254

Rotational constants in cm-1:             0.981125             0.571123             0.421356
Rotational constants in MHz :         29413.381068         17121.829471         12631.925014

                             ****ORCA TERMINATED NORMALLY****
TOTAL RUN TIME: 0 days 0 hours 2 minutes 17 seconds 454 msec
