                         Program Version 6.0.0  -   RELEASE  -
|  1> ! Engrad def2-TZVPPD wB97M-D3BJ
|  2> %pal nprocs 8 end%pal nprocs 64 end
|  3> %tddft
|  4>  Iroot 1 Nroots 3
|  5> sf true
|  6> end
|  7> *xyz 0 3
|  8> O   3.62287782 -0.81627578 -0.53748303
|  9> O   -1.33236148 1.23925272 -2.63722299
| 10> O   -0.42634751 -2.79087662 -0.59396634
| 11> O   -3.45023022 -0.76231944 0.84112844
| 12> N   -0.02825343 -1.34231646 1.04959338
| 13> N   -1.84410924 0.85521314 1.2021201
| 14> N   1.51221932 -1.61032116 -0.65370446
| 15> N   -2.14456615 -0.01753013 -0.92006861
| 16> C   1.95748497 0.11640665 0.93971789
| 17> C   -0.26118473 1.53728727 -0.55036107
| 18> C   0.50783374 -0.01331901 1.39758937
| 19> C   -0.37478328 1.12965049 0.89503819
| 20> C   2.86114026 1.16789619 1.52658735
| 21> C   0.59678813 2.57744985 -0.98142299
| 22> C   2.46998721 -0.79739152 -0.09620491
| 23> C   -1.30845052 1.00997282 -1.44795835
| 24> C   0.31460315 -1.98489866 -0.09202934
| 25> C   -2.56476795 0.00481865 0.44009887
| 26> H   0.57287445 0.02696301 2.52011645
| 27> H   -0.1602773 2.03990643 1.46198815
| 28> H   3.84036344 1.25769136 1.10480806
| 29> H   2.35027244 2.12731182 1.41903793
| 30> H   2.86981127 0.85223601 2.5658944
| 31> H   0.568029 2.69931385 -2.08102281
| 32> H   0.32029251 3.53021712 -0.4463162
| 33> H   1.61478476 2.28762952 -0.61490653
| 34> H   -0.88439092 -1.4765784 1.58214449
| 35> H   -2.05166363 0.8447894 2.19984439
| 36> H   1.79289758 -2.22706533 -1.44523331
| 37> H   -2.94755641 -0.34948843 -1.40882294
| 38> *
| 39>
| 40>                          ****END OF INPUT****

CARTESIAN COORDINATES (ANGSTROEM)
---------------------------------
  O      3.622878   -0.816276   -0.537483
  O     -1.332361    1.239253   -2.637223
  O     -0.426348   -2.790877   -0.593966
  O     -3.450230   -0.762319    0.841128
  N     -0.028253   -1.342316    1.049593
  N     -1.844109    0.855213    1.202120
  N      1.512219   -1.610321   -0.653704
  N     -2.144566   -0.017530   -0.920069
  C      1.957485    0.116407    0.939718
  C     -0.261185    1.537287   -0.550361
  C      0.507834   -0.013319    1.397589
  C     -0.374783    1.129650    0.895038
  C      2.861140    1.167896    1.526587
  C      0.596788    2.577450   -0.981423
  C      2.469987   -0.797392   -0.096205
  C     -1.308451    1.009973   -1.447958
  C      0.314603   -1.984899   -0.092029
  C     -2.564768    0.004819    0.440099
  H      0.572874    0.026963    2.520116
  H     -0.160277    2.039906    1.461988
  H      3.840363    1.257691    1.104808
  H      2.350272    2.127312    1.419038
  H      2.869811    0.852236    2.565894
  H      0.568029    2.699314   -2.081023
  H      0.320293    3.530217   -0.446316
  H      1.614785    2.287630   -0.614907
  H     -0.884391   -1.476578    1.582144
  H     -2.051664    0.844789    2.199844
  H      1.792898   -2.227065   -1.445233
  H     -2.947556   -0.349488   -1.408823

 Total Charge           Charge          ....    0
 Multiplicity           Mult            ....    3
 Number of Electrons    NEL             ....  132
 Basis Dimension        Dim             ....  882

ORBITAL ENERGIES
----------------
                 SPIN UP ORBITALS
  NO   OCC          E(Eh)            E(eV)
   0   1.0000     -19.336141      -526.1631
   1   1.0000     -19.335439      -526.1440
   2   1.0000     -19.324404      -525.8438
   3   1.0000     -19.310439      -525.4638
   4   1.0000     -14.568939      -396.4410
   5   1.0000     -14.566214      -396.3668
   6   1.0000     -14.556837      -396.1117
   7   1.0000     -14.554533      -396.0490
   8   1.0000     -10.506397      -285.8936
   9   1.0000     -10.499265      -285.6995
  10   1.0000     -10.486142      -285.3424
  11   1.0000     -10.481954      -285.2285
  12   1.0000     -10.454357      -284.4775
  13   1.0000     -10.453557      -284.4557
  14   1.0000     -10.429418      -283.7989
  15   1.0000     -10.419438      -283.5273
  16   1.0000     -10.383636      -282.5531
  17   1.0000     -10.381640      -282.4988
  18   1.0000      -1.218612       -33.1601
  19   1.0000      -1.212175       -32.9850
  20   1.0000      -1.193478       -32.4762
  21   1.0000      -1.190127       -32.3850
  22   1.0000      -1.114214       -30.3193
  23   1.0000      -1.093857       -29.7654
  24   1.0000      -1.062626       -28.9155
  25   1.0000      -1.046977       -28.4897
  26   1.0000      -0.991043       -26.9677
  27   1.0000      -0.962196       -26.1827
  28   1.0000      -0.898114       -24.4389
  29   1.0000      -0.844730       -22.9863
  30   1.0000      -0.828191       -22.5362
  31   1.0000      -0.799340       -21.7511
  32   1.0000      -0.788176       -21.4474
  33   1.0000      -0.767244       -20.8778
  34   1.0000      -0.705004       -19.1841
  35   1.0000      -0.694758       -18.9053
  36   1.0000      -0.682051       -18.5596
  37   1.0000      -0.667822       -18.1724
  38   1.0000      -0.655556       -17.8386
  39   1.0000      -0.636215       -17.3123
  40   1.0000      -0.607835       -16.5400
  41   1.0000      -0.607160       -16.5217
  42   1.0000      -0.597454       -16.2575
  43   1.0000      -0.586104       -15.9487
  44   1.0000      -0.582705       -15.8562
  45   1.0000      -0.572765       -15.5857
  46   1.0000      -0.569206       -15.4889
  47   1.0000      -0.563080       -15.3222
  48   1.0000      -0.560957       -15.2644
  49   1.0000      -0.558393       -15.1946
  50   1.0000      -0.547485       -14.8978
  51   1.0000      -0.538738       -14.6598
  52   1.0000      -0.527023       -14.3410
  53   1.0000      -0.522394       -14.2151
  54   1.0000      -0.516312       -14.0496
  55   1.0000      -0.512995       -13.9593
  56   1.0000      -0.491766       -13.3816
  57   1.0000      -0.421481       -11.4691
  58   1.0000      -0.418544       -11.3892
  59   1.0000      -0.412304       -11.2193
  60   1.0000      -0.405032       -11.0215
  61   1.0000      -0.398621       -10.8470
  62   1.0000      -0.392851       -10.6900
  63   1.0000      -0.386718       -10.5231
  64   1.0000      -0.381794       -10.3892
  65   1.0000      -0.345377        -9.3982
  66   1.0000      -0.336337        -9.1522
  67   0.0000       0.003950         0.1075
  68   0.0000       0.026164         0.7120
  69   0.0000       0.030883         0.8404
  70   0.0000       0.036950         1.0055
  71   0.0000       0.052307         1.4234

                 SPIN DOWN ORBITALS
  NO   OCC          E(Eh)            E(eV)
   0   1.0000     -19.331594      -526.0394
   1   1.0000     -19.331145      -526.0272
   2   1.0000     -19.324272      -525.8402
   3   1.0000     -19.310301      -525.4600
   4   1.0000     -14.568547      -396.4303
   5   1.0000     -14.565471      -396.3466
   6   1.0000     -14.556787      -396.1103
   7   1.0000     -14.554232      -396.0408
   8   1.0000     -10.506434      -285.8946
   9   1.0000     -10.499320      -285.7010
  10   1.0000     -10.487246      -285.3725
  11   1.0000     -10.483083      -285.2592
  12   1.0000     -10.454321      -284.4765
  13   1.0000     -10.453364      -284.4505
  14   1.0000     -10.417744      -283.4812
  15   1.0000     -10.408078      -283.2182
  16   1.0000     -10.384123      -282.5664
  17   1.0000     -10.382179      -282.5135
  18   1.0000      -1.217115       -33.1194
  19   1.0000      -1.208848       -32.8944
  20   1.0000      -1.189613       -32.3710
  21   1.0000      -1.185207       -32.2511
  22   1.0000      -1.111919       -30.2568
  23   1.0000      -1.091756       -29.7082
  24   1.0000      -1.060882       -28.8681
  25   1.0000      -1.045775       -28.4570
  26   1.0000      -0.977990       -26.6125
  27   1.0000      -0.945597       -25.7310
  28   1.0000      -0.893054       -24.3012
  29   1.0000      -0.838823       -22.8255
  30   1.0000      -0.818806       -22.2808
  31   1.0000      -0.794419       -21.6172
  32   1.0000      -0.785994       -21.3880
  33   1.0000      -0.765727       -20.8365
  34   1.0000      -0.699744       -19.0410
  35   1.0000      -0.688296       -18.7295
  36   1.0000      -0.676341       -18.4042
  37   1.0000      -0.659073       -17.9343
  38   1.0000      -0.644816       -17.5463
  39   1.0000      -0.633243       -17.2314
  40   1.0000      -0.603750       -16.4289
  41   1.0000      -0.601664       -16.3721
  42   1.0000      -0.589468       -16.0402
  43   1.0000      -0.578168       -15.7327
  44   1.0000      -0.576181       -15.6787
  45   1.0000      -0.566529       -15.4160
  46   1.0000      -0.564012       -15.3475
  47   1.0000      -0.557713       -15.1761
  48   1.0000      -0.554808       -15.0971
  49   1.0000      -0.548806       -14.9338
  50   1.0000      -0.541708       -14.7406
  51   1.0000      -0.531960       -14.4754
  52   1.0000      -0.516361       -14.0509
  53   1.0000      -0.512268       -13.9395
  54   1.0000      -0.511291       -13.9129
  55   1.0000      -0.505195       -13.7471
  56   1.0000      -0.486357       -13.2345
  57   1.0000      -0.418419       -11.3858
  58   1.0000      -0.413727       -11.2581
  59   1.0000      -0.402696       -10.9579
  60   1.0000      -0.393825       -10.7165
  61   1.0000      -0.391876       -10.6635
  62   1.0000      -0.385993       -10.5034
  63   1.0000      -0.382415       -10.4060
  64   1.0000      -0.378255       -10.2928
  65   0.0000      -0.059296        -1.6135
  66   0.0000      -0.056218        -1.5298
  67   0.0000       0.003664         0.0997
  68   0.0000       0.025906         0.7049
  69   0.0000       0.030679         0.8348

----------------------------------------------------------------------------------------------------
          SPIN FLIP ABSORPTION SPECTRUM VIA TRANSITION ELECTRIC DIPOLE MOMENTS
----------------------------------------------------------------------------------------------------
     Transition      Energy     Energy  Wavelength fosc(D2)      D2        DX        DY        DZ
                      (eV)      (cm-1)    (nm)                 (au**2)    (au)      (au)      (au)
----------------------------------------------------------------------------------------------------
  1-3A  ->  2-1A    0.019001     153.3  65250.6   0.000000583   0.00125   0.03505  -0.00473  -0.00084
  1-3A  ->  3-3A    2.136470   17231.8   580.3   0.000442372   0.00845  -0.04544  -0.04884   0.06326

Dispersion correction             ... done (  0.1 sec)

MULLIKEN ATOMIC CHARGES AND SPIN DENSITIES
------------------------------------------
   0 O :   -0.672488    0.139000
   1 O :   -0.662201   -0.150310
   2 O :   -0.648713    0.004445
   3 O :   -0.660481   -0.002065
   4 N :   -0.200618    0.007084
   5 N :   -0.366155   -0.017806
   6 N :   -0.020856    0.016686
   7 N :    0.155311   -0.016774
   8 C :   -0.450409    0.295280
   9 C :    1.085225    0.427935
  10 C :    0.358773    0.098599
  11 C :   -0.158121   -0.590401
  12 C :   -1.240771    0.006406
  13 C :   -1.270045    0.001879
  14 C :    0.643045    0.134956
  15 C :   -0.191918   -0.439662
  16 C :    0.461190   -0.023783
  17 C :    0.287631    0.027462
  18 H :    0.581797    0.034310
  19 H :    0.613049    0.012518
  20 H :    0.255071    0.004222
  21 H :    0.325311    0.002206
  22 H :    0.419124    0.022121
  23 H :    0.293413   -0.031896
  24 H :    0.344559    0.002328
  25 H :    0.278090    0.033861
  26 H :    0.118333   -0.000839
  27 H :    0.133293    0.001244
  28 H :    0.098291   -0.005399
  29 H :    0.091272    0.006393
Sum of atomic charges       :    0.0000000

LOEWDIN ATOMIC CHARGES AND SPIN DENSITIES
-----------------------------------------
   0 O :    0.074174    0.122302
   1 O :    0.085833   -0.132090
   2 O :    0.098746    0.003900
   3 O :    0.060566   -0.001945
   4 N :    0.284673    0.001206
   5 N :    0.270782   -0.007234
   6 N :    0.306385    0.012164
   7 N :    0.334771   -0.012917
   8 C :   -0.014883    0.467448
   9 C :   -0.032309   -0.421304
  10 C :   -0.111491    0.030999
  11 C :   -0.089937   -0.032573
  12 C :    0.204731    0.059941
  13 C :    0.167972   -0.076595
  14 C :   -0.386886    0.068300
  15 C :   -0.377924   -0.071582
  16 C :   -0.516572   -0.000295
  17 C :   -0.489367   -0.000514
  18 H :    0.075126    0.009427
  19 H :    0.049395   -0.006633
  20 H :   -0.008332   -0.000860
  21 H :   -0.013411    0.013927
  22 H :    0.000588    0.020337
  23 H :    0.022979    0.000441
  24 H :    0.047699   -0.029193
  25 H :    0.011249   -0.016193
  26 H :   -0.026941    0.000206
  27 H :   -0.022466   -0.000487
  28 H :    0.032741    0.001060
  29 H :   -0.037890   -0.001244

  Mayer bond orders larger than 0.100000
B(  0-O , 14-C ) :   1.3785 B(  1-O ,  9-C ) :   0.1061 B(  1-O , 15-C ) :   1.3090
B(  2-O , 16-C ) :   1.5571 B(  3-O , 17-C ) :   1.5866 B(  4-N ,  8-C ) :   0.2092
B(  4-N ,  9-C ) :   0.1003 B(  4-N , 10-C ) :   0.4420 B(  4-N , 16-C ) :   0.9671
B(  4-N , 26-H ) :   1.0264 B(  5-N ,  9-C ) :   0.3091 B(  5-N , 10-C ) :   0.1091
B(  5-N , 17-C ) :   1.1295 B(  5-N , 27-H ) :   1.0060 B(  6-N , 10-C ) :   0.1348
B(  6-N , 14-C ) :   1.1142 B(  6-N , 16-C ) :   0.9589 B(  6-N , 28-H ) :   1.0492
B(  7-N , 11-C ) :   0.1368 B(  7-N , 15-C ) :   0.9466 B(  7-N , 17-C ) :   0.9999
B(  7-N , 29-H ) :   1.0028 B(  8-C , 11-C ) :   0.4365 B(  8-C , 12-C ) :   0.6905
B(  8-C , 14-C ) :   0.6372 B(  8-C , 18-H ) :  -0.2931 B(  9-C , 13-C ) :   0.3948
B(  9-C , 15-C ) :   0.4265 B(  9-C , 18-H ) :   0.1095 B(  9-C , 23-H ) :  -0.1062
B( 10-C , 11-C ) :   0.6696 B( 10-C , 12-C ) :  -0.1318 B( 10-C , 16-C ) :  -0.1006
B( 10-C , 18-H ) :   0.8384 B( 11-C , 12-C ) :   0.1150 B( 11-C , 13-C ) :  -0.1656
B( 11-C , 15-C ) :   0.2732 B( 11-C , 17-C ) :  -0.1725 B( 11-C , 18-H ) :  -0.1936
B( 11-C , 19-H ) :   0.7178 B( 12-C , 14-C ) :  -0.1089 B( 12-C , 20-H ) :   1.1169
B( 12-C , 21-H ) :   0.8551 B( 12-C , 22-H ) :   0.8332 B( 13-C , 15-C ) :  -0.1214
B( 13-C , 23-H ) :   1.0465 B( 13-C , 24-H ) :   0.8570 B( 13-C , 25-H ) :   1.0112
B( 15-C , 17-C ) :  -0.1473

Dispersion correction           -0.058676163
FINAL SINGLE POINT ENERGY      -908.771098530624

DIPOLE MOMENT
-------------

Method             : TDA/CIS
Type of density    : Electron Density
Level              : Relaxed density
State              :   1
Multiplicity       :   3
Irrep              :   0
Energy             :     0.0000000000000000 Eh
Relativity type    :
Basis              : AO
                                X                 Y                 Z
Electronic contribution:     -6.483378473      -9.201289571      -4.460862003
Nuclear contribution   :      7.454206275      11.330293641       6.665298530
                        -----------------------------------------
Total Dipole Moment    :      0.970827802       2.129004070       2.204436527
                        -----------------------------------------
Magnitude (a.u.)       :      3.214763654
Magnitude (Debye)      :      8.171279826

Rotational constants in cm-1:             0.020623             0.013082             0.011578
Rotational constants in MHz :           618.269705           392.173633           347.086550

                             ****ORCA TERMINATED NORMALLY****
TOTAL RUN TIME: 0 days 0 hours 5 minutes 31 seconds 65 msec
