                         Program Version 6.0.0  -   RELEASE  -
|  1> ! Engrad def2-TZVPPD wB97M-D3BJ
|  2> %pal nprocs 8 end%pal nprocs 32 end
|  3> %tddft Nroots 2 Iroot 1
|  4> sf true
|  5> end
|  6> *xyz 0 3
|  7> O   -0.34466086 1.30136544 0.04914279
|  8> C   0.78825889 -1.16142071 -0.03473219
|  9> C   -0.46826369 -0.38368727 -0.02608426
| 10> H   1.42503619 -0.92234383 0.86161664
| 11> H   1.41300899 -1.10467682 -0.93310428
| 12> H   -1.05630482 -0.6476304 -0.91011075
| 13> H   -0.93927315 -0.68876973 0.91077322
| 14> *
| 15>
| 16>                          ****END OF INPUT****

CARTESIAN COORDINATES (ANGSTROEM)
---------------------------------
  O     -0.344661    1.301365    0.049143
  C      0.788259   -1.161421   -0.034732
  C     -0.468264   -0.383687   -0.026084
  H      1.425036   -0.922344    0.861617
  H      1.413009   -1.104677   -0.933104
  H     -1.056305   -0.647630   -0.910111
  H     -0.939273   -0.688770    0.910773

 Total Charge           Charge          ....    0
 Multiplicity           Mult            ....    3
 Number of Electrons    NEL             ....   24
 Basis Dimension        Dim             ....  182

ORBITAL ENERGIES
----------------
                 SPIN UP ORBITALS
  NO   OCC          E(Eh)            E(eV)
   0   1.0000     -19.404369      -528.0197
   1   1.0000     -10.420098      -283.5453
   2   1.0000     -10.389774      -282.7201
   3   1.0000      -1.095353       -29.8061
   4   1.0000      -0.900446       -24.5024
   5   1.0000      -0.731348       -19.9010
   6   1.0000      -0.603231       -16.4148
   7   1.0000      -0.534479       -14.5439
   8   1.0000      -0.527056       -14.3419
   9   1.0000      -0.502801       -13.6819
  10   1.0000      -0.461786       -12.5658
  11   1.0000      -0.429449       -11.6859
  12   1.0000      -0.365477        -9.9451
  13   0.0000       0.040316         1.0971
  14   0.0000       0.062601         1.7035
  15   0.0000       0.078789         2.1439
  16   0.0000       0.081064         2.2059
  17   0.0000       0.107809         2.9336

                 SPIN DOWN ORBITALS
  NO   OCC          E(Eh)            E(eV)
   0   1.0000     -19.374411      -527.2045
   1   1.0000     -10.421995      -283.5969
   2   1.0000     -10.376959      -282.3714
   3   1.0000      -1.017512       -27.6879
   4   1.0000      -0.873895       -23.7799
   5   1.0000      -0.713179       -19.4066
   6   1.0000      -0.589697       -16.0465
   7   1.0000      -0.510585       -13.8937
   8   1.0000      -0.480302       -13.0697
   9   1.0000      -0.471055       -12.8181
  10   1.0000      -0.393039       -10.6951
  11   0.0000      -0.047188        -1.2841
  12   0.0000      -0.040124        -1.0918
  13   0.0000       0.039732         1.0812
  14   0.0000       0.063530         1.7287
  15   0.0000       0.081338         2.2133

----------------------------------------------------------------------------------------------------
          SPIN FLIP ABSORPTION SPECTRUM VIA TRANSITION ELECTRIC DIPOLE MOMENTS
----------------------------------------------------------------------------------------------------
     Transition      Energy     Energy  Wavelength fosc(D2)      D2        DX        DY        DZ
                      (eV)      (cm-1)    (nm)                 (au**2)    (au)      (au)      (au)
----------------------------------------------------------------------------------------------------
  1-3A  ->  2-3A    0.037624     303.5  32953.2   0.000002090   0.00227   0.00799  -0.04587   0.00997

Dispersion correction             ... done (  0.1 sec)

MULLIKEN ATOMIC CHARGES AND SPIN DENSITIES
------------------------------------------
   0 O :   -0.298500    0.765355
   1 C :   -0.486443   -0.766078
   2 C :   -0.094047    0.092331
   3 H :    0.201466   -0.041449
   4 H :    0.218728   -0.046249
   5 H :    0.224465   -0.012070
   6 H :    0.234332    0.008160
Sum of atomic charges       :   -0.0000000

LOEWDIN ATOMIC CHARGES AND SPIN DENSITIES
-----------------------------------------
   0 O :   -0.063434    0.723754
   1 C :    0.241963   -0.540199
   2 C :   -0.076496   -0.057748
   3 H :   -0.029041   -0.054722
   4 H :   -0.056974   -0.064899
   5 H :   -0.010308   -0.010349
   6 H :   -0.005710    0.004163

  Mayer bond orders larger than 0.100000
B(  0-O ,  2-C ) :   0.7523 B(  1-C ,  2-C ) :   0.7106 B(  1-C ,  3-H ) :   1.0449
B(  1-C ,  4-H ) :   1.0417 B(  2-C ,  5-H ) :   1.0183 B(  2-C ,  6-H ) :   0.9499

Dispersion correction           -0.005435257
FINAL SINGLE POINT ENERGY      -153.704600149928

DIPOLE MOMENT
-------------

Method             : TDA/CIS
Type of density    : Electron Density
Level              : Relaxed density
State              :   1
Multiplicity       :   3
Irrep              :   0
Energy             :     0.0000000000000000 Eh
Relativity type    :
Basis              : AO
                                X                 Y                 Z
Electronic contribution:     -0.752771664       2.320994763       0.036903057
Nuclear contribution   :      0.855546907      -3.039760738      -0.064383638
                        -----------------------------------------
Total Dipole Moment    :      0.102775243      -0.718765975      -0.027480581
                        -----------------------------------------
Magnitude (a.u.)       :      0.726596491
Magnitude (Debye)      :      1.846861507

Rotational constants in cm-1:             1.274627             0.283385             0.254783
Rotational constants in MHz :         38212.359497          8495.677332          7638.200902

                             ****ORCA TERMINATED NORMALLY****
TOTAL RUN TIME: 0 days 0 hours 0 minutes 18 seconds 528 msec
