                         Program Version 6.0.0  -   RELEASE  -
|  1> ! Engrad def2-TZVPPD wB97M-D3BJ
|  2> %pal nprocs 8 end%pal nprocs 64 end
|  3> %tddft
|  4>  Iroot 1 Nroots 3
|  5> sf true
|  6> end
|  7> *xyz 0 3
|  8> O   3.00617299 -0.89324119 -1.81150097
|  9> O   -1.67153388 1.08757778 -2.0306678
| 10> O   -0.9648793 -2.78133223 -0.69431317
| 11> O   -3.10182314 -0.08094942 2.12615166
| 12> N   0.08933563 -1.43676354 0.82962936
| 13> N   -1.05435453 0.98895611 1.91260673
| 14> N   0.81166918 -1.43490683 -1.35166212
| 15> N   -2.41179392 0.77744113 0.06783101
| 16> C   2.14711636 -0.31607968 0.24902593
| 17> C   -0.17890485 1.51586392 -0.2826497
| 18> C   0.97891996 -0.33204762 1.11804835
| 19> C   0.14213671 1.04869245 1.0534124
| 20> C   3.45154953 0.20786612 0.66172009
| 21> C   0.69420755 2.34126996 -1.16052255
| 22> C   2.0546527 -0.92823605 -1.07103121
| 23> C   -1.4614716 1.12263423 -0.83224352
| 24> C   -0.14707656 -1.94940866 -0.40967627
| 25> C   -2.22042411 0.49093867 1.41031366
| 26> H   1.2691973 -0.33421098 2.18290707
| 27> H   0.85370455 1.74804952 1.54282463
| 28> H   4.32549537 -0.37485013 0.48453325
| 29> H   3.77107146 1.05777606 -0.01185929
| 30> H   3.38009579 0.56658083 1.66121203
| 31> H   0.72817116 1.93620974 -2.17174477
| 32> H   0.36309077 3.38201183 -1.35513849
| 33> H   1.64976992 2.39627861 -0.68081562
| 34> H   -0.68397242 -1.55202394 1.45861413
| 35> H   -0.93966012 0.8377438 2.85857747
| 36> H   0.70225094 -1.85932452 -2.28587171
| 37> H   -3.21669539 0.28866063 -0.38161613
| 38> *
| 39>
| 40>                          ****END OF INPUT****

CARTESIAN COORDINATES (ANGSTROEM)
---------------------------------
  O      3.006173   -0.893241   -1.811501
  O     -1.671534    1.087578   -2.030668
  O     -0.964879   -2.781332   -0.694313
  O     -3.101823   -0.080949    2.126152
  N      0.089336   -1.436764    0.829629
  N     -1.054355    0.988956    1.912607
  N      0.811669   -1.434907   -1.351662
  N     -2.411794    0.777441    0.067831
  C      2.147116   -0.316080    0.249026
  C     -0.178905    1.515864   -0.282650
  C      0.978920   -0.332048    1.118048
  C      0.142137    1.048692    1.053412
  C      3.451550    0.207866    0.661720
  C      0.694208    2.341270   -1.160523
  C      2.054653   -0.928236   -1.071031
  C     -1.461472    1.122634   -0.832244
  C     -0.147077   -1.949409   -0.409676
  C     -2.220424    0.490939    1.410314
  H      1.269197   -0.334211    2.182907
  H      0.853705    1.748050    1.542825
  H      4.325495   -0.374850    0.484533
  H      3.771071    1.057776   -0.011859
  H      3.380096    0.566581    1.661212
  H      0.728171    1.936210   -2.171745
  H      0.363091    3.382012   -1.355138
  H      1.649770    2.396279   -0.680816
  H     -0.683972   -1.552024    1.458614
  H     -0.939660    0.837744    2.858577
  H      0.702251   -1.859325   -2.285872
  H     -3.216695    0.288661   -0.381616

 Total Charge           Charge          ....    0
 Multiplicity           Mult            ....    3
 Number of Electrons    NEL             ....  132
 Basis Dimension        Dim             ....  882

ORBITAL ENERGIES
----------------
                 SPIN UP ORBITALS
  NO   OCC          E(Eh)            E(eV)
   0   1.0000     -19.332723      -526.0701
   1   1.0000     -19.332295      -526.0585
   2   1.0000     -19.331803      -526.0451
   3   1.0000     -19.328213      -525.9474
   4   1.0000     -14.572617      -396.5411
   5   1.0000     -14.570680      -396.4884
   6   1.0000     -14.565663      -396.3518
   7   1.0000     -14.563047      -396.2807
   8   1.0000     -10.519132      -286.2401
   9   1.0000     -10.514163      -286.1049
  10   1.0000     -10.477539      -285.1083
  11   1.0000     -10.476921      -285.0915
  12   1.0000     -10.450919      -284.3840
  13   1.0000     -10.450659      -284.3769
  14   1.0000     -10.413454      -283.3645
  15   1.0000     -10.412651      -283.3426
  16   1.0000     -10.373743      -282.2839
  17   1.0000     -10.371721      -282.2289
  18   1.0000      -1.225528       -33.3483
  19   1.0000      -1.217778       -33.1374
  20   1.0000      -1.203867       -32.7589
  21   1.0000      -1.188269       -32.3344
  22   1.0000      -1.125101       -30.6156
  23   1.0000      -1.103652       -30.0319
  24   1.0000      -1.074212       -29.2308
  25   1.0000      -1.058723       -28.8093
  26   1.0000      -0.989716       -26.9315
  27   1.0000      -0.961668       -26.1683
  28   1.0000      -0.892630       -24.2897
  29   1.0000      -0.849765       -23.1233
  30   1.0000      -0.826611       -22.4932
  31   1.0000      -0.804245       -21.8846
  32   1.0000      -0.800697       -21.7881
  33   1.0000      -0.786221       -21.3942
  34   1.0000      -0.702919       -19.1274
  35   1.0000      -0.698736       -19.0136
  36   1.0000      -0.692960       -18.8564
  37   1.0000      -0.683657       -18.6033
  38   1.0000      -0.659234       -17.9387
  39   1.0000      -0.639451       -17.4004
  40   1.0000      -0.624905       -17.0045
  41   1.0000      -0.603947       -16.4342
  42   1.0000      -0.598512       -16.2863
  43   1.0000      -0.588309       -16.0087
  44   1.0000      -0.578104       -15.7310
  45   1.0000      -0.572628       -15.5820
  46   1.0000      -0.570079       -15.5127
  47   1.0000      -0.564898       -15.3716
  48   1.0000      -0.558024       -15.1846
  49   1.0000      -0.556475       -15.1424
  50   1.0000      -0.549303       -14.9473
  51   1.0000      -0.539491       -14.6803
  52   1.0000      -0.534527       -14.5452
  53   1.0000      -0.520294       -14.1579
  54   1.0000      -0.517848       -14.0914
  55   1.0000      -0.504409       -13.7257
  56   1.0000      -0.501964       -13.6591
  57   1.0000      -0.429686       -11.6924
  58   1.0000      -0.427402       -11.6302
  59   1.0000      -0.410330       -11.1657
  60   1.0000      -0.407946       -11.1008
  61   1.0000      -0.403434       -10.9780
  62   1.0000      -0.397928       -10.8282
  63   1.0000      -0.393908       -10.7188
  64   1.0000      -0.388442       -10.5700
  65   1.0000      -0.345323        -9.3967
  66   1.0000      -0.319790        -8.7019
  67   0.0000       0.006141         0.1671
  68   0.0000       0.029805         0.8110
  69   0.0000       0.032752         0.8912
  70   0.0000       0.036497         0.9931
  71   0.0000       0.051241         1.3944

                 SPIN DOWN ORBITALS
  NO   OCC          E(Eh)            E(eV)
   0   1.0000     -19.332167      -526.0550
   1   1.0000     -19.329211      -525.9746
   2   1.0000     -19.328116      -525.9448
   3   1.0000     -19.328098      -525.9443
   4   1.0000     -14.572110      -396.5273
   5   1.0000     -14.570220      -396.4759
   6   1.0000     -14.565380      -396.3442
   7   1.0000     -14.562214      -396.2580
   8   1.0000     -10.519182      -286.2415
   9   1.0000     -10.514212      -286.1063
  10   1.0000     -10.478447      -285.1330
  11   1.0000     -10.477849      -285.1168
  12   1.0000     -10.450227      -284.3651
  13   1.0000     -10.450056      -284.3605
  14   1.0000     -10.402060      -283.0545
  15   1.0000     -10.401464      -283.0382
  16   1.0000     -10.374372      -282.3010
  17   1.0000     -10.372272      -282.2439
  18   1.0000      -1.224211       -33.3125
  19   1.0000      -1.214763       -33.0554
  20   1.0000      -1.199384       -32.6369
  21   1.0000      -1.185338       -32.2547
  22   1.0000      -1.122585       -30.5471
  23   1.0000      -1.101692       -29.9786
  24   1.0000      -1.072309       -29.1790
  25   1.0000      -1.056973       -28.7617
  26   1.0000      -0.976264       -26.5655
  27   1.0000      -0.944440       -25.6995
  28   1.0000      -0.886566       -24.1247
  29   1.0000      -0.844971       -22.9928
  30   1.0000      -0.817927       -22.2569
  31   1.0000      -0.802679       -21.8420
  32   1.0000      -0.795351       -21.6426
  33   1.0000      -0.784435       -21.3456
  34   1.0000      -0.697314       -18.9749
  35   1.0000      -0.694349       -18.8942
  36   1.0000      -0.685751       -18.6602
  37   1.0000      -0.676286       -18.4027
  38   1.0000      -0.646261       -17.5856
  39   1.0000      -0.634636       -17.2693
  40   1.0000      -0.620312       -16.8795
  41   1.0000      -0.600111       -16.3298
  42   1.0000      -0.592173       -16.1139
  43   1.0000      -0.583990       -15.8912
  44   1.0000      -0.573347       -15.6016
  45   1.0000      -0.569085       -15.4856
  46   1.0000      -0.563388       -15.3306
  47   1.0000      -0.555846       -15.1253
  48   1.0000      -0.547612       -14.9013
  49   1.0000      -0.546718       -14.8769
  50   1.0000      -0.542094       -14.7511
  51   1.0000      -0.530978       -14.4486
  52   1.0000      -0.525371       -14.2961
  53   1.0000      -0.515071       -14.0158
  54   1.0000      -0.511509       -13.9189
  55   1.0000      -0.497903       -13.5486
  56   1.0000      -0.493304       -13.4235
  57   1.0000      -0.425468       -11.5776
  58   1.0000      -0.421800       -11.4777
  59   1.0000      -0.406255       -11.0548
  60   1.0000      -0.398113       -10.8332
  61   1.0000      -0.392584       -10.6828
  62   1.0000      -0.391576       -10.6553
  63   1.0000      -0.388501       -10.5717
  64   1.0000      -0.379813       -10.3352
  65   0.0000      -0.062787        -1.7085
  66   0.0000      -0.047311        -1.2874
  67   0.0000       0.005731         0.1560
  68   0.0000       0.029378         0.7994
  69   0.0000       0.032766         0.8916

----------------------------------------------------------------------------------------------------
          SPIN FLIP ABSORPTION SPECTRUM VIA TRANSITION ELECTRIC DIPOLE MOMENTS
----------------------------------------------------------------------------------------------------
     Transition      Energy     Energy  Wavelength fosc(D2)      D2        DX        DY        DZ
                      (eV)      (cm-1)    (nm)                 (au**2)    (au)      (au)      (au)
----------------------------------------------------------------------------------------------------
  1-3A  ->  2-3A    0.087801     708.2  14121.1   0.000018659   0.00867  -0.08237   0.04088   0.01477
  1-3A  ->  3-1A    2.313197   18657.2   536.0   0.022870130   0.40355   0.58791  -0.23524  -0.05075

Dispersion correction             ... done (  0.1 sec)

MULLIKEN ATOMIC CHARGES AND SPIN DENSITIES
------------------------------------------
   0 O :   -0.683560   -0.041613
   1 O :   -0.670065    0.042705
   2 O :   -0.625425   -0.001265
   3 O :   -0.669807   -0.001250
   4 N :   -0.261521   -0.013906
   5 N :   -0.174104    0.004493
   6 N :    0.047634   -0.010086
   7 N :   -0.057726    0.005495
   8 C :    0.414528    0.325959
   9 C :    0.154831    0.347340
  10 C :    0.234436   -0.302498
  11 C :    0.613375   -0.130366
  12 C :   -1.356823   -0.005793
  13 C :   -1.392162    0.022108
  14 C :    0.255213   -0.206637
  15 C :    0.213467   -0.071193
  16 C :    0.382922    0.013452
  17 C :    0.358385    0.005924
  18 H :    0.547097   -0.012443
  19 H :    0.431960    0.003929
  20 H :    0.329812   -0.012584
  21 H :    0.280032    0.002182
  22 H :    0.370650    0.003783
  23 H :    0.298830    0.012651
  24 H :    0.358306    0.011599
  25 H :    0.312854   -0.000637
  26 H :    0.056076    0.001315
  27 H :    0.034515    0.000863
  28 H :    0.087246    0.005111
  29 H :    0.109024    0.001362
Sum of atomic charges       :   -0.0000000

LOEWDIN ATOMIC CHARGES AND SPIN DENSITIES
-----------------------------------------
   0 O :    0.095550   -0.034896
   1 O :    0.093907    0.037313
   2 O :    0.115359   -0.001237
   3 O :    0.031187   -0.001352
   4 N :    0.291466   -0.003381
   5 N :    0.308572   -0.000297
   6 N :    0.330030   -0.006876
   7 N :    0.312801    0.005401
   8 C :   -0.048940   -0.142333
   9 C :   -0.038397    0.161529
  10 C :   -0.099564   -0.012089
  11 C :   -0.094278    0.006085
  12 C :    0.188502   -0.026017
  13 C :    0.211508    0.023635
  14 C :   -0.443299   -0.026464
  15 C :   -0.444185    0.022288
  16 C :   -0.457292   -0.000330
  17 C :   -0.440335   -0.000716
  18 H :    0.066240   -0.001792
  19 H :    0.067889    0.002317
  20 H :   -0.007604   -0.005978
  21 H :    0.039574   -0.008891
  22 H :   -0.020477    0.000559
  23 H :    0.009126    0.005728
  24 H :    0.030220    0.008837
  25 H :   -0.026863   -0.000687
  26 H :   -0.040459   -0.000338
  27 H :   -0.078882   -0.000019
  28 H :    0.012116   -0.000450
  29 H :    0.036529    0.000452

  Mayer bond orders larger than 0.100000
B(  0-O , 14-C ) :   1.3683 B(  1-O , 15-C ) :   1.4254 B(  2-O , 16-C ) :   1.5671
B(  3-O , 17-C ) :   1.5291 B(  4-N ,  8-C ) :   0.1921 B(  4-N , 10-C ) :   0.2392
B(  4-N , 16-C ) :   1.0174 B(  4-N , 26-H ) :   1.0802 B(  5-N ,  9-C ) :   0.2750
B(  5-N , 10-C ) :   0.1330 B(  5-N , 17-C ) :   1.1574 B(  5-N , 27-H ) :   1.0686
B(  6-N ,  8-C ) :  -0.1168 B(  6-N , 10-C ) :   0.2133 B(  6-N , 11-C ) :  -0.1023
B(  6-N , 14-C ) :   1.0948 B(  6-N , 16-C ) :   0.9392 B(  6-N , 28-H ) :   1.0460
B(  7-N , 15-C ) :   0.9885 B(  7-N , 17-C ) :   0.9595 B(  7-N , 29-H ) :   1.0279
B(  8-C ,  9-C ) :   0.2020 B(  8-C , 10-C ) :   0.4639 B(  8-C , 11-C ) :   0.2919
B(  8-C , 12-C ) :   0.2693 B(  8-C , 14-C ) :   0.6671 B(  8-C , 16-C ) :   0.1101
B(  8-C , 18-H ) :  -0.2147 B(  8-C , 22-H ) :  -0.1401 B(  9-C , 10-C ) :   0.1903
B(  9-C , 11-C ) :   0.1702 B(  9-C , 13-C ) :   0.4240 B(  9-C , 15-C ) :   0.6867
B(  9-C , 19-H ) :  -0.2558 B(  9-C , 25-H ) :  -0.1136 B( 10-C , 11-C ) :   0.2428
B( 10-C , 16-C ) :  -0.1772 B( 10-C , 18-H ) :   0.8025 B( 11-C , 15-C ) :  -0.1427
B( 11-C , 17-C ) :  -0.1230 B( 11-C , 18-H ) :  -0.1056 B( 11-C , 19-H ) :   1.0672
B( 12-C , 20-H ) :   0.9035 B( 12-C , 21-H ) :   0.8790 B( 12-C , 22-H ) :   0.9980
B( 13-C , 23-H ) :   0.9819 B( 13-C , 24-H ) :   0.8556 B( 13-C , 25-H ) :   0.9521
B( 14-C , 16-C ) :  -0.1010

Dispersion correction           -0.059055932
FINAL SINGLE POINT ENERGY      -908.784404154476

DIPOLE MOMENT
-------------

Method             : TDA/CIS
Type of density    : Electron Density
Level              : Relaxed density
State              :   1
Multiplicity       :   3
Irrep              :   0
Energy             :     0.0000000000000000 Eh
Relativity type    :
Basis              : AO
                                X                 Y                 Z
Electronic contribution:     -9.767712698      -6.560332897      -1.690298442
Nuclear contribution   :     11.472329240       8.066505167       3.337921302
                        -----------------------------------------
Total Dipole Moment    :      1.704616542       1.506172270       1.647622860
                        -----------------------------------------
Magnitude (a.u.)       :      2.808724542
Magnitude (Debye)      :      7.139210423

Rotational constants in cm-1:             0.021585             0.012729             0.012118
Rotational constants in MHz :           647.100350           381.603199           363.302534

                             ****ORCA TERMINATED NORMALLY****
TOTAL RUN TIME: 0 days 0 hours 4 minutes 53 seconds 632 msec
