                         Program Version 6.0.0  -   RELEASE  -
|  1> ! opt def2-TZVPPD wB97M-D3BJ
|  2> %pal nprocs 8 end%pal nprocs 32 end
|  3> %geom Constraints
|  4> {B 9 8 3.4 C}
|  5> {A 8 9 11 43.14285714285714 C}
|  6>  end
|  7>  end
|  8> *xyz 0 1
|  9> O   2.98579685529314 0.88758230159078 -0.86184571092411
| 10> O   -0.03983205397054 0.68929041702508 -2.10362336723772
| 11> O   0.93431434349854 -3.13274393337945 -0.68767288184107
| 12> O   -3.75829998830163 -0.84727300865116 -0.0472717177755
| 13> N   0.21184538946282 -1.54604804365365 0.7617588924445
| 14> N   -2.13631993928911 0.03188773433438 1.27350571071531
| 15> N   2.02598672506387 -1.14318467211666 -0.64531219127023
| 16> N   -1.91814233924584 0.03137116037665 -1.04498946748291
| 17> C   1.18097737274226 0.71693507080484 0.70173889017321
| 18> C   -0.20686880480777 1.27024627933494 0.21345042231937
| 19> C   0.41441080275909 -0.34173258966541 1.52336266615173
| 20> C   -0.82922175114212 0.58960593673968 1.44434972027296
| 21> C   1.92822011286806 1.69488653817281 1.5963734975385
| 22> C   -0.37809776891576 2.77134929626422 0.04819649358288
| 23> C   2.1403947470937 0.1972384729179 -0.35038567829864
| 24> C   -0.67361678962426 0.6214190571346 -1.0793014500539
| 25> C   1.04142578622994 -2.02697492875068 -0.21027082435993
| 26> C   -2.68467002550422 -0.30396816036989 0.07167054343891
| 27> H   0.80817443950001 -0.54572267081061 2.51895215321335
| 28> H   -0.83785272399001 1.27240685039143 2.28901317073582
| 29> H   2.31167340578204 2.52284411740894 1.00913016264629
| 30> H   1.28982602448342 2.08257620823614 2.38710022492991
| 31> H   2.77390820759972 1.19140411795486 2.06045858523949
| 32> H   -1.41857211141493 3.00964947214868 -0.16882755561625
| 33> H   -0.09065531563179 3.29799318042223 0.95389844358819
| 34> H   0.23426221611057 3.12492645074476 -0.77764887675592
| 35> H   -0.46772570547622 -2.21560145172536 1.0787081584806
| 36> H   -2.71769301149571 -0.17090724573546 2.06627440900372
| 37> H   2.60065167263658 -1.49057255715425 -1.3966820077142
| 38> H   -2.27169977231386 -0.32388339999036 -1.91951041514436
| 39> *
| 40>
| 41>                          ****END OF INPUT****
 Total Charge           Charge          ....    0
 Multiplicity           Mult            ....    1
 Number of Electrons    NEL             ....  132
Dispersion correction           -0.052076839
FINAL SINGLE POINT ENERGY      -908.563683837581
Dispersion correction             ... done (  0.0 sec)
Dispersion correction           -0.052476405
FINAL SINGLE POINT ENERGY      -908.608179815965
Dispersion correction             ... done (  0.0 sec)
Dispersion correction           -0.052953022
FINAL SINGLE POINT ENERGY      -908.640049843555
Dispersion correction             ... done (  0.0 sec)
FINAL SINGLE POINT ENERGY      -908.675420103126
FINAL SINGLE POINT ENERGY      -908.711447596413
FINAL SINGLE POINT ENERGY      -908.729289219959
FINAL SINGLE POINT ENERGY      -908.738171935616
FINAL SINGLE POINT ENERGY      -908.743345319065
FINAL SINGLE POINT ENERGY      -908.745234205511
FINAL SINGLE POINT ENERGY      -908.746387744803
FINAL SINGLE POINT ENERGY      -908.752288256440
FINAL SINGLE POINT ENERGY      -908.752579691307
FINAL SINGLE POINT ENERGY      -908.752690638484
FINAL SINGLE POINT ENERGY      -908.752783630624
FINAL SINGLE POINT ENERGY      -908.752809530819
FINAL SINGLE POINT ENERGY      -908.752822796673
FINAL SINGLE POINT ENERGY      -908.752826482067
Dispersion correction             ... done (  0.0 sec)
Dispersion correction           -0.057386366
FINAL SINGLE POINT ENERGY      -908.752840118942
Dispersion correction             ... done (  0.0 sec)
Dispersion correction           -0.057374538
FINAL SINGLE POINT ENERGY      -908.752841850176
Dispersion correction             ... done (  0.0 sec)
                    ***********************HURRAY********************

CARTESIAN COORDINATES (ANGSTROEM)
---------------------------------
  O      4.008471   -0.417125    1.520317
  O     -2.277672    1.770125   -2.146722
  O      1.483197   -2.727340   -1.398863
  O     -3.560177   -1.484625    0.681890
  N      0.513494   -0.912130   -0.400151
  N     -1.904457   -0.082738    1.361638
  N      2.554161   -1.734027    0.353780
  N     -2.642073   -0.051495   -0.833397
  C      1.776455    0.348820    1.194598
  C     -1.091825    1.624927   -0.110975
  C      0.464014   -0.254082    0.896418
  C     -0.715601    0.718984    1.015910
  C      2.040128    1.748089    1.450421
  C     -0.530437    2.969999   -0.188305
  C      2.889151   -0.595470    1.083919
  C     -2.022012    1.169132   -1.118914
  C      1.490954   -1.860308   -0.561020
  C     -2.759513   -0.610304    0.437820
  H      0.322930   -1.046175    1.653989
  H     -0.512669    1.350306    1.881868
  H      1.927093    2.351551    0.520870
  H      1.297791    2.200334    2.120531
  H      3.047187    1.890756    1.829253
  H     -0.561622    3.475335    0.782508
  H      0.551607    2.946926   -0.443692
  H     -1.031673    3.561914   -0.946790
  H     -0.354175   -1.116852   -0.871799
  H     -1.914891   -0.575784    2.237344
  H      3.305345   -2.388458    0.195809
  H     -3.340585   -0.355284   -1.493653

 Multiplicity           Mult            ....    1
 Number of Electrons    NEL             ....  132
 Basis Dimension        Dim             ....  882

ORBITAL ENERGIES
----------------

  NO   OCC          E(Eh)            E(eV)
   0   2.0000     -19.344202      -526.3825
   1   2.0000     -19.329526      -525.9831
   2   2.0000     -19.328576      -525.9573
   3   2.0000     -19.320940      -525.7495
   4   2.0000     -14.575785      -396.6273
   5   2.0000     -14.566045      -396.3622
   6   2.0000     -14.566017      -396.3615
   7   2.0000     -14.562436      -396.2640
   8   2.0000     -10.511900      -286.0433
   9   2.0000     -10.506425      -285.8944
  10   2.0000     -10.494027      -285.5570
  11   2.0000     -10.481744      -285.2227
  12   2.0000     -10.451952      -284.4121
  13   2.0000     -10.448972      -284.3310
  14   2.0000     -10.434817      -283.9458
  15   2.0000     -10.415563      -283.4219
  16   2.0000     -10.396847      -282.9126
  17   2.0000     -10.381018      -282.4819
  18   2.0000      -1.228218       -33.4215
  19   2.0000      -1.220079       -33.2000
  20   2.0000      -1.205811       -32.8118
  21   2.0000      -1.193722       -32.4828
  22   2.0000      -1.126602       -30.6564
  23   2.0000      -1.104761       -30.0621
  24   2.0000      -1.070324       -29.1250
  25   2.0000      -1.060134       -28.8477
  26   2.0000      -0.990422       -26.9508
  27   2.0000      -0.961012       -26.1505
  28   2.0000      -0.901934       -24.5429
  29   2.0000      -0.856603       -23.3093
  30   2.0000      -0.832377       -22.6501
  31   2.0000      -0.795190       -21.6382
  32   2.0000      -0.793509       -21.5925
  33   2.0000      -0.783187       -21.3116
  34   2.0000      -0.707310       -19.2469
  35   2.0000      -0.699381       -19.0311
  36   2.0000      -0.693332       -18.8665
  37   2.0000      -0.684462       -18.6252
  38   2.0000      -0.646766       -17.5994
  39   2.0000      -0.642088       -17.4721
  40   2.0000      -0.625269       -17.0144
  41   2.0000      -0.610678       -16.6174
  42   2.0000      -0.603991       -16.4354
  43   2.0000      -0.585727       -15.9384
  44   2.0000      -0.583373       -15.8744
  45   2.0000      -0.580978       -15.8092
  46   2.0000      -0.577145       -15.7049
  47   2.0000      -0.568206       -15.4617
  48   2.0000      -0.563413       -15.3312
  49   2.0000      -0.558938       -15.2095
  50   2.0000      -0.552202       -15.0262
  51   2.0000      -0.541130       -14.7249
  52   2.0000      -0.535745       -14.5784
  53   2.0000      -0.529147       -14.3988
  54   2.0000      -0.518916       -14.1204
  55   2.0000      -0.510174       -13.8825
  56   2.0000      -0.498642       -13.5687
  57   2.0000      -0.433261       -11.7896
  58   2.0000      -0.420494       -11.4422
  59   2.0000      -0.412242       -11.2177
  60   2.0000      -0.402078       -10.9411
  61   2.0000      -0.400944       -10.9102
  62   2.0000      -0.394278       -10.7288
  63   2.0000      -0.391308       -10.6480
  64   2.0000      -0.388246       -10.5647
  65   2.0000      -0.277829        -7.5601
  66   0.0000      -0.134784        -3.6677
  67   0.0000       0.006579         0.1790
  68   0.0000       0.027272         0.7421
  69   0.0000       0.030900         0.8408
  70   0.0000       0.034073         0.9272

MULLIKEN ATOMIC CHARGES
-----------------------
   0 O :   -0.620888
   1 O :   -0.668072
   2 O :   -0.620468
   3 O :   -0.651488
   4 N :   -0.247571
   5 N :   -0.271327
   6 N :   -0.019939
   7 N :   -0.034170
   8 C :    0.285075
   9 C :    0.361870
  10 C :    0.828539
  11 C :    0.190013
  12 C :   -1.291425
  13 C :   -1.376174
  14 C :    0.258600
  15 C :    0.331134
  16 C :    0.299697
  17 C :    0.423611
  18 H :    0.331946
  19 H :    0.511849
  20 H :    0.203804
  21 H :    0.253067
  22 H :    0.319070
  23 H :    0.311775
  24 H :    0.217858
  25 H :    0.322626
  26 H :    0.148464
  27 H :    0.068615
  28 H :    0.082119
  29 H :    0.051789
Sum of atomic charges:   -0.0000000

LOEWDIN ATOMIC CHARGES
----------------------
   0 O :    0.099259
   1 O :    0.089281
   2 O :    0.103991
   3 O :    0.086420
   4 N :    0.306156
   5 N :    0.277516
   6 N :    0.329742
   7 N :    0.313212
   8 C :    0.009188
   9 C :   -0.022203
  10 C :   -0.135647
  11 C :   -0.106436
  12 C :    0.193502
  13 C :    0.174792
  14 C :   -0.391184
  15 C :   -0.407520
  16 C :   -0.465610
  17 C :   -0.497260
  18 H :    0.064911
  19 H :    0.038001
  20 H :    0.005046
  21 H :    0.008886
  22 H :    0.008866
  23 H :    0.013417
  24 H :   -0.004413
  25 H :    0.002459
  26 H :   -0.037613
  27 H :   -0.032452
  28 H :   -0.012072
  29 H :   -0.012237

  Mayer bond orders larger than 0.100000
B(  0-O , 14-C ) :   1.4339 B(  1-O , 15-C ) :   1.3378 B(  2-O , 16-C ) :   1.6139
B(  3-O , 17-C ) :   1.5699 B(  4-N ,  8-C ) :   0.3988 B(  4-N , 11-C ) :   0.1909
B(  4-N , 16-C ) :   1.2023 B(  4-N , 26-H ) :   1.0043 B(  5-N ,  9-C ) :   0.1883
B(  5-N , 10-C ) :   0.2902 B(  5-N , 11-C ) :  -0.2047 B(  5-N , 17-C ) :   1.1340
B(  5-N , 27-H ) :   1.0952 B(  6-N , 14-C ) :   1.0050 B(  6-N , 16-C ) :   0.9461
B(  6-N , 28-H ) :   1.0516 B(  7-N , 15-C ) :   1.0484 B(  7-N , 17-C ) :   0.9952
B(  7-N , 29-H ) :   1.0845 B(  8-C ,  9-C ) :   0.4183 B(  8-C , 10-C ) :  -0.3783
B(  8-C , 11-C ) :   0.2967 B(  8-C , 12-C ) :   0.3443 B(  8-C , 14-C ) :   0.9534
B(  8-C , 21-H ) :  -0.1052 B(  8-C , 22-H ) :  -0.1033 B(  9-C , 10-C ) :   0.2119
B(  9-C , 13-C ) :   0.2362 B(  9-C , 15-C ) :   0.8515 B(  9-C , 19-H ) :  -0.2654
B(  9-C , 23-H ) :  -0.1035 B(  9-C , 25-H ) :  -0.1018 B( 10-C , 11-C ) :   0.2810
B( 10-C , 14-C ) :  -0.1496 B( 10-C , 16-C ) :  -0.1706 B( 10-C , 18-H ) :   1.0185
B( 11-C , 13-C ) :  -0.2075 B( 11-C , 15-C ) :  -0.1577 B( 11-C , 17-C ) :  -0.1595
B( 11-C , 19-H ) :   0.9912 B( 12-C , 14-C ) :  -0.1234 B( 12-C , 20-H ) :   0.8790
B( 12-C , 21-H ) :   0.9848 B( 12-C , 22-H ) :   1.0397 B( 13-C , 23-H ) :   1.0010
B( 13-C , 24-H ) :   0.9063 B( 13-C , 25-H ) :   0.9616 B( 18-H , 19-H ) :   0.1125

Dispersion correction           -0.057374857
FINAL SINGLE POINT ENERGY      -908.752843993245

DIPOLE MOMENT
-------------

Method             : SCF
Type of density    : Electron Density
Multiplicity       :   1
Irrep              :   0
Energy             :  -908.6954691362492440 Eh
Relativity type    :
Basis              : AO
                                X                 Y                 Z
Electronic contribution:     -2.273248358     -10.411800191      -3.449327660
Nuclear contribution   :      2.777885123      11.886759746       5.098089203
                        -----------------------------------------
Total Dipole Moment    :      0.504636765       1.474959555       1.648761543
                        -----------------------------------------
Magnitude (a.u.)       :      2.269047945
Magnitude (Debye)      :      5.767461529

Rotational constants in cm-1:             0.021610             0.010577             0.009018
Rotational constants in MHz :           647.852182           317.084004           270.355296

                             ****ORCA TERMINATED NORMALLY****
TOTAL RUN TIME: 0 days 2 hours 53 minutes 30 seconds 360 msec
