                         Program Version 6.0.0  -   RELEASE  -
|  1> ! Engrad def2-TZVPPD wB97M-D3BJ
|  2> %pal nprocs 8 end%pal nprocs 64 end
|  3>  %tddft nroots 2 Iroot 1
|  4> sf true
|  5> end
|  6> *xyz 0 3
|  7> O   3.23724139039636 0.34235260828752 -0.91302723838993
|  8> O   -0.69925777731991 1.58334915121377 -2.31283276151578
|  9> O   0.40253859192415 -3.07878884336973 -0.29539795644818
| 10> O   -2.97973189445839 -1.81291206624664 -0.45982047372431
| 11> N   0.35270821090091 -1.41077474666315 1.24246631669178
| 12> N   -2.16274400851886 -0.21742332639274 0.94145020241777
| 13> N   1.54554361504694 -1.16800246595576 -0.74976461324639
| 14> N   -1.50215761409384 -0.28017711237323 -1.2797744206156
| 15> C   1.8150871575731 0.49762227669672 0.95190334733321
| 16> C   -0.92347775770529 1.63105819260138 0.04328609581802
| 17> C   0.38594217669114 -0.01205492964481 1.55189354640283
| 18> C   -1.12481627528068 0.72366008141428 1.21960238474937
| 19> C   2.53259122609226 1.56702046202785 1.64543645419072
| 20> C   -0.71428465833165 3.07260143980952 0.20387942915301
| 21> C   2.27252618959224 -0.0683197755272 -0.28942685320876
| 22> C   -1.01368741501395 1.02523566627921 -1.28031856419176
| 23> C   0.73373247685818 -1.96446019860393 0.03638522455606
| 24> C   -2.27119782580201 -0.8564919873156 -0.26903163071659
| 25> H   0.48035674956482 0.07762732206497 2.63620827531202
| 26> H   -1.38777372372476 1.29873684230806 2.10305721522817
| 27> H   3.52203865512538 1.70923021660749 1.22219662029001
| 28> H   1.98442415536977 2.52145830157005 1.55802542151658
| 29> H   2.6013904333226 1.36602719870345 2.71843143050156
| 30> H   -1.57163615793558 3.53043528665411 0.70882383516579
| 31> H   0.14900641751151 3.26970859756873 0.85644601620725
| 32> H   -0.55355281236998 3.55007399874144 -0.75678108956826
| 33> H   -0.26164802889873 -2.01973710595877 1.75576684964543
| 34> H   -2.69062683118928 -0.63703677769596 1.68532124483956
| 35> H   1.89136876333569 -1.6058535231755 -1.58783277084498
| 36> H   -1.59730342866215 -0.71916478362555 -2.18197153754857
| 37> *
| 38>
| 39>                          ****END OF INPUT****

CARTESIAN COORDINATES (ANGSTROEM)
---------------------------------
  O      3.237241    0.342353   -0.913027
  O     -0.699258    1.583349   -2.312833
  O      0.402539   -3.078789   -0.295398
  O     -2.979732   -1.812912   -0.459820
  N      0.352708   -1.410775    1.242466
  N     -2.162744   -0.217423    0.941450
  N      1.545544   -1.168002   -0.749765
  N     -1.502158   -0.280177   -1.279774
  C      1.815087    0.497622    0.951903
  C     -0.923478    1.631058    0.043286
  C      0.385942   -0.012055    1.551894
  C     -1.124816    0.723660    1.219602
  C      2.532591    1.567020    1.645436
  C     -0.714285    3.072601    0.203879
  C      2.272526   -0.068320   -0.289427
  C     -1.013687    1.025236   -1.280319
  C      0.733732   -1.964460    0.036385
  C     -2.271198   -0.856492   -0.269032
  H      0.480357    0.077627    2.636208
  H     -1.387774    1.298737    2.103057
  H      3.522039    1.709230    1.222197
  H      1.984424    2.521458    1.558025
  H      2.601390    1.366027    2.718431
  H     -1.571636    3.530435    0.708824
  H      0.149006    3.269709    0.856446
  H     -0.553553    3.550074   -0.756781
  H     -0.261648   -2.019737    1.755767
  H     -2.690627   -0.637037    1.685321
  H      1.891369   -1.605854   -1.587833
  H     -1.597303   -0.719165   -2.181972

 Total Charge           Charge          ....    0
 Multiplicity           Mult            ....    3
 Number of Electrons    NEL             ....  132
 Basis Dimension        Dim             ....  882

ORBITAL ENERGIES
----------------
                 SPIN UP ORBITALS
  NO   OCC          E(Eh)            E(eV)
   0   1.0000     -19.334090      -526.1073
   1   1.0000     -19.331387      -526.0338
   2   1.0000     -19.318756      -525.6901
   3   1.0000     -19.314562      -525.5760
   4   1.0000     -14.564541      -396.3213
   5   1.0000     -14.558395      -396.1541
   6   1.0000     -14.557723      -396.1358
   7   1.0000     -14.556078      -396.0910
   8   1.0000     -10.503342      -285.8105
   9   1.0000     -10.499434      -285.7041
  10   1.0000     -10.479213      -285.1539
  11   1.0000     -10.477304      -285.1019
  12   1.0000     -10.451728      -284.4060
  13   1.0000     -10.448054      -284.3060
  14   1.0000     -10.427414      -283.7444
  15   1.0000     -10.411610      -283.3143
  16   1.0000     -10.375570      -282.3336
  17   1.0000     -10.372926      -282.2617
  18   1.0000      -1.219749       -33.1910
  19   1.0000      -1.214646       -33.0522
  20   1.0000      -1.195555       -32.5327
  21   1.0000      -1.193967       -32.4895
  22   1.0000      -1.115512       -30.3546
  23   1.0000      -1.095544       -29.8113
  24   1.0000      -1.064105       -28.9558
  25   1.0000      -1.054202       -28.6863
  26   1.0000      -0.970920       -26.4201
  27   1.0000      -0.952137       -25.9090
  28   1.0000      -0.879440       -23.9308
  29   1.0000      -0.838155       -22.8074
  30   1.0000      -0.827894       -22.5282
  31   1.0000      -0.804618       -21.8948
  32   1.0000      -0.783983       -21.3333
  33   1.0000      -0.774296       -21.0697
  34   1.0000      -0.697389       -18.9769
  35   1.0000      -0.691683       -18.8216
  36   1.0000      -0.682216       -18.5640
  37   1.0000      -0.658278       -17.9126
  38   1.0000      -0.648509       -17.6468
  39   1.0000      -0.645097       -17.5540
  40   1.0000      -0.616631       -16.7794
  41   1.0000      -0.602436       -16.3931
  42   1.0000      -0.590827       -16.0772
  43   1.0000      -0.584534       -15.9060
  44   1.0000      -0.580136       -15.7863
  45   1.0000      -0.568983       -15.4828
  46   1.0000      -0.562792       -15.3144
  47   1.0000      -0.558033       -15.1849
  48   1.0000      -0.556291       -15.1375
  49   1.0000      -0.550447       -14.9784
  50   1.0000      -0.544407       -14.8141
  51   1.0000      -0.540678       -14.7126
  52   1.0000      -0.535606       -14.5746
  53   1.0000      -0.525159       -14.2903
  54   1.0000      -0.514929       -14.0119
  55   1.0000      -0.505521       -13.7559
  56   1.0000      -0.484932       -13.1957
  57   1.0000      -0.421160       -11.4603
  58   1.0000      -0.417079       -11.3493
  59   1.0000      -0.409174       -11.1342
  60   1.0000      -0.406430       -11.0595
  61   1.0000      -0.394800       -10.7430
  62   1.0000      -0.391766       -10.6605
  63   1.0000      -0.388030       -10.5588
  64   1.0000      -0.379746       -10.3334
  65   1.0000      -0.338971        -9.2239
  66   1.0000      -0.325270        -8.8510
  67   0.0000       0.006495         0.1767
  68   0.0000       0.028558         0.7771
  69   0.0000       0.031880         0.8675
  70   0.0000       0.039514         1.0752
  71   0.0000       0.055884         1.5207

                 SPIN DOWN ORBITALS
  NO   OCC          E(Eh)            E(eV)
   0   1.0000     -19.329141      -525.9727
   1   1.0000     -19.326958      -525.9133
   2   1.0000     -19.318569      -525.6850
   3   1.0000     -19.314295      -525.5687
   4   1.0000     -14.564085      -396.3089
   5   1.0000     -14.558018      -396.1438
   6   1.0000     -14.557395      -396.1269
   7   1.0000     -14.555594      -396.0779
   8   1.0000     -10.503370      -285.8112
   9   1.0000     -10.499458      -285.7048
  10   1.0000     -10.480309      -285.1837
  11   1.0000     -10.478287      -285.1287
  12   1.0000     -10.451227      -284.3923
  13   1.0000     -10.448162      -284.3089
  14   1.0000     -10.415906      -283.4312
  15   1.0000     -10.400269      -283.0057
  16   1.0000     -10.376153      -282.3495
  17   1.0000     -10.373520      -282.2778
  18   1.0000      -1.218158       -33.1478
  19   1.0000      -1.212503       -32.9939
  20   1.0000      -1.190168       -32.3861
  21   1.0000      -1.188527       -32.3415
  22   1.0000      -1.113316       -30.2949
  23   1.0000      -1.093279       -29.7496
  24   1.0000      -1.062399       -28.9093
  25   1.0000      -1.052733       -28.6463
  26   1.0000      -0.956252       -26.0210
  27   1.0000      -0.935433       -25.4544
  28   1.0000      -0.875743       -23.8302
  29   1.0000      -0.832940       -22.6655
  30   1.0000      -0.819033       -22.2870
  31   1.0000      -0.799333       -21.7510
  32   1.0000      -0.782762       -21.3000
  33   1.0000      -0.772738       -21.0273
  34   1.0000      -0.691402       -18.8140
  35   1.0000      -0.685472       -18.6527
  36   1.0000      -0.677224       -18.4282
  37   1.0000      -0.652057       -17.7434
  38   1.0000      -0.642266       -17.4769
  39   1.0000      -0.637290       -17.3416
  40   1.0000      -0.614415       -16.7191
  41   1.0000      -0.597555       -16.2603
  42   1.0000      -0.583540       -15.8789
  43   1.0000      -0.575209       -15.6522
  44   1.0000      -0.568381       -15.4664
  45   1.0000      -0.564038       -15.3482
  46   1.0000      -0.558394       -15.1947
  47   1.0000      -0.554433       -15.0869
  48   1.0000      -0.548106       -14.9147
  49   1.0000      -0.540676       -14.7126
  50   1.0000      -0.537666       -14.6306
  51   1.0000      -0.533362       -14.5135
  52   1.0000      -0.529479       -14.4078
  53   1.0000      -0.514054       -13.9881
  54   1.0000      -0.502902       -13.6847
  55   1.0000      -0.500919       -13.6307
  56   1.0000      -0.478915       -13.0319
  57   1.0000      -0.416462       -11.3325
  58   1.0000      -0.413124       -11.2417
  59   1.0000      -0.402447       -10.9511
  60   1.0000      -0.393755       -10.7146
  61   1.0000      -0.386290       -10.5115
  62   1.0000      -0.383890       -10.4462
  63   1.0000      -0.380758       -10.3609
  64   1.0000      -0.368662       -10.0318
  65   0.0000      -0.061417        -1.6712
  66   0.0000      -0.045399        -1.2354
  67   0.0000       0.006100         0.1660
  68   0.0000       0.028359         0.7717
  69   0.0000       0.031539         0.8582

----------------------------------------------------------------------------------------------------
          SPIN FLIP ABSORPTION SPECTRUM VIA TRANSITION ELECTRIC DIPOLE MOMENTS
----------------------------------------------------------------------------------------------------
     Transition      Energy     Energy  Wavelength fosc(D2)      D2        DX        DY        DZ
                      (eV)      (cm-1)    (nm)                 (au**2)    (au)      (au)      (au)
----------------------------------------------------------------------------------------------------
  1-3A  ->  2-3A    0.037386     301.5  33163.4   0.000000478   0.00052   0.01294  -0.00637   0.01773

Dispersion correction             ... done (  0.1 sec)

MULLIKEN ATOMIC CHARGES AND SPIN DENSITIES
------------------------------------------
   0 O :   -0.665099    0.152913
   1 O :   -0.692077   -0.140730
   2 O :   -0.647908    0.005212
   3 O :   -0.640901   -0.002341
   4 N :   -0.277903    0.009744
   5 N :   -0.281370   -0.009878
   6 N :    0.082763    0.007699
   7 N :    0.068697   -0.012294
   8 C :    0.126561    0.421415
   9 C :    1.114910    0.426007
  10 C :    0.218835   -0.004897
  11 C :    0.046561   -0.418441
  12 C :   -1.250438    0.017606
  13 C :   -1.148909   -0.031672
  14 C :    0.469111    0.087007
  15 C :   -0.292062   -0.597893
  16 C :    0.371964   -0.008493
  17 C :    0.374026    0.025144
  18 H :    0.582710    0.023455
  19 H :    0.529960   -0.009572
  20 H :    0.322089    0.007155
  21 H :    0.192172    0.021770
  22 H :    0.297091    0.015226
  23 H :    0.339549    0.000795
  24 H :    0.268091    0.024036
  25 H :    0.291655   -0.015920
  26 H :    0.070710    0.000497
  27 H :    0.055606    0.001026
  28 H :    0.037875    0.000420
  29 H :    0.035729    0.005005
Sum of atomic charges       :   -0.0000000

LOEWDIN ATOMIC CHARGES AND SPIN DENSITIES
-----------------------------------------
   0 O :    0.099383    0.135996
   1 O :    0.083305   -0.127309
   2 O :    0.095828    0.005260
   3 O :    0.100513   -0.001890
   4 N :    0.249441    0.000475
   5 N :    0.266001   -0.004255
   6 N :    0.322376    0.008994
   7 N :    0.326455   -0.015255
   8 C :    0.012670    0.441968
   9 C :   -0.018845   -0.403699
  10 C :   -0.014329   -0.010565
  11 C :   -0.078585   -0.026222
  12 C :    0.174396    0.071488
  13 C :    0.187827   -0.067461
  14 C :   -0.406216    0.071480
  15 C :   -0.420621   -0.076257
  16 C :   -0.494152   -0.000604
  17 C :   -0.488163   -0.000524
  18 H :    0.025287   -0.002443
  19 H :    0.043150   -0.000600
  20 H :   -0.000620   -0.000348
  21 H :   -0.004105    0.023386
  22 H :    0.006088    0.014416
  23 H :    0.015359   -0.019501
  24 H :   -0.008574   -0.016920
  25 H :    0.001973    0.001239
  26 H :   -0.029148    0.000123
  27 H :   -0.028131   -0.000384
  28 H :   -0.010693    0.000687
  29 H :   -0.007867   -0.001274

  Mayer bond orders larger than 0.100000
B(  0-O , 14-C ) :   1.3462 B(  1-O , 15-C ) :   1.3944 B(  2-O , 16-C ) :   1.5121
B(  3-O , 17-C ) :   1.5392 B(  4-N ,  5-N ) :   0.1218 B(  4-N ,  8-C ) :   0.2581
B(  4-N , 10-C ) :   0.3089 B(  4-N , 16-C ) :   1.0326 B(  4-N , 26-H ) :   1.0822
B(  5-N ,  9-C ) :   0.2906 B(  5-N , 11-C ) :   0.1715 B(  5-N , 17-C ) :   1.1383
B(  5-N , 27-H ) :   1.0837 B(  6-N ,  8-C ) :  -0.1257 B(  6-N , 10-C ) :   0.1017
B(  6-N , 14-C ) :   1.0954 B(  6-N , 16-C ) :   0.9779 B(  6-N , 28-H ) :   1.0826
B(  7-N , 11-C ) :   0.1339 B(  7-N , 15-C ) :   0.9845 B(  7-N , 17-C ) :   0.9474
B(  7-N , 29-H ) :   1.0930 B(  8-C , 10-C ) :  -0.1125 B(  8-C , 12-C ) :   0.6262
B(  8-C , 14-C ) :   0.7799 B(  8-C , 16-C ) :   0.1003 B(  8-C , 18-H ) :  -0.1660
B(  8-C , 20-H ) :  -0.1157 B(  9-C , 11-C ) :   0.2521 B(  9-C , 13-C ) :   0.6126
B(  9-C , 15-C ) :   0.1470 B(  9-C , 25-H ) :  -0.1028 B( 10-C , 11-C ) :   0.7814
B( 10-C , 16-C ) :  -0.1002 B( 10-C , 18-H ) :   0.7602 B( 11-C , 15-C ) :   0.1332
B( 11-C , 17-C ) :  -0.2040 B( 11-C , 19-H ) :   0.7607 B( 12-C , 20-H ) :   0.9878
B( 12-C , 21-H ) :   0.9441 B( 12-C , 22-H ) :   0.9713 B( 13-C , 23-H ) :   0.9486
B( 13-C , 24-H ) :   0.7857 B( 13-C , 25-H ) :   1.0287 B( 15-C , 17-C ) :  -0.1245

Dispersion correction           -0.057706436
FINAL SINGLE POINT ENERGY      -908.785517724404

DIPOLE MOMENT
-------------

Method             : TDA/CIS
Type of density    : Electron Density
Level              : Relaxed density
State              :   1
Multiplicity       :   3
Irrep              :   0
Energy             :     0.0000000000000000 Eh
Relativity type    :
Basis              : AO
                                X                 Y                 Z
Electronic contribution:     -2.693935273     -10.360913724      -7.306150468
Nuclear contribution   :      2.507623539      11.996549172      10.218342097
                        -----------------------------------------
Total Dipole Moment    :     -0.186311734       1.635635447       2.912191629
                        -----------------------------------------
Magnitude (a.u.)       :      3.345276590
Magnitude (Debye)      :      8.503017346

Rotational constants in cm-1:             0.018736             0.015081             0.012039
Rotational constants in MHz :           561.703840           452.114298           360.930743

                             ****ORCA TERMINATED NORMALLY****
TOTAL RUN TIME: 0 days 0 hours 4 minutes 29 seconds 456 msec
