                         Program Version 6.0.0  -   RELEASE  -
|  1> ! Engrad def2-TZVPPD wB97M-D3BJ
|  2> %pal nprocs 8 end%pal nprocs 32 end
|  3>  %tddft nroots 2 Iroot 2
|  4> sf true
|  5> end
|  6> *xyz 0 3
|  7> O   3.5623567276198 0.5718628003324 -0.09749512169263
|  8> O   -0.8917687766824 0.92249561092592 -2.54008865296518
|  9> O   0.77101615134192 -2.83667269177212 -1.18251795463497
| 10> O   -3.60127495955212 -1.0778123759128 0.45886971177169
| 11> N   0.21755988559082 -1.53898577124274 0.58867122020844
| 12> N   -2.01771321501993 0.34789861605209 1.2702441419036
| 13> N   2.16692696566982 -1.13883316594359 -0.61092592631102
| 14> N   -2.03622628985932 -0.278636932563 -0.98239310780744
| 15> C   1.58774902710875 0.37835156510342 1.1758513158369
| 16> C   -0.57225018348068 1.45173556216898 -0.24620713336816
| 17> C   0.35027562819553 -0.37017826956448 1.41329133235012
| 18> C   -0.60128822897967 0.75490572907211 1.12685472148237
| 19> C   2.01760044496603 1.46288868778985 2.08299163370882
| 20> C   -0.45600939555954 2.91822880857599 -0.32851810375712
| 21> C   2.52538547186248 -0.02369795590124 0.12502288949849
| 22> C   -1.12618320295259 0.69638635315043 -1.37357497865317
| 23> C   1.0193782798277 -1.90260229348818 -0.45539080413133
| 24> C   -2.62352474463267 -0.38724516331242 0.27957445177017
| 25> H   0.2552884837833 -0.6590209494864 2.46727891172198
| 26> H   -0.43517654468195 1.52348839303361 1.87629234996585
| 27> H   1.73938127827631 2.44917524623469 1.69084311531494
| 28> H   1.57040702912221 1.36273421891736 3.07086060166239
| 29> H   3.10241935864181 1.46967809303546 2.15612067593954
| 30> H   -1.32480362579319 3.40146147446257 0.13461981022985
| 31> H   0.42263037243039 3.27593215588981 0.21590999315652
| 32> H   -0.3986331733172 3.23683038765689 -1.36509181050017
| 33> H   -0.61331277168684 -2.09734346275136 0.67340621812339
| 34> H   -2.43590474086844 0.20360424391382 2.17455473450559
| 35> H   2.76270221430253 -1.39376307353369 -1.38099937871033
| 36> H   -2.48440746567289 -0.80786584084338 -1.7134548566191
| 37> *
| 38>
| 39>                          ****END OF INPUT****

CARTESIAN COORDINATES (ANGSTROEM)
---------------------------------
  O      3.562357    0.571863   -0.097495
  O     -0.891769    0.922496   -2.540089
  O      0.771016   -2.836673   -1.182518
  O     -3.601275   -1.077812    0.458870
  N      0.217560   -1.538986    0.588671
  N     -2.017713    0.347899    1.270244
  N      2.166927   -1.138833   -0.610926
  N     -2.036226   -0.278637   -0.982393
  C      1.587749    0.378352    1.175851
  C     -0.572250    1.451736   -0.246207
  C      0.350276   -0.370178    1.413291
  C     -0.601288    0.754906    1.126855
  C      2.017600    1.462889    2.082992
  C     -0.456009    2.918229   -0.328518
  C      2.525385   -0.023698    0.125023
  C     -1.126183    0.696386   -1.373575
  C      1.019378   -1.902602   -0.455391
  C     -2.623525   -0.387245    0.279574
  H      0.255288   -0.659021    2.467279
  H     -0.435177    1.523488    1.876292
  H      1.739381    2.449175    1.690843
  H      1.570407    1.362734    3.070861
  H      3.102419    1.469678    2.156121
  H     -1.324804    3.401461    0.134620
  H      0.422630    3.275932    0.215910
  H     -0.398633    3.236830   -1.365092
  H     -0.613313   -2.097343    0.673406
  H     -2.435905    0.203604    2.174555
  H      2.762702   -1.393763   -1.380999
  H     -2.484407   -0.807866   -1.713455

 Total Charge           Charge          ....    0
 Multiplicity           Mult            ....    3
 Number of Electrons    NEL             ....  132
 Basis Dimension        Dim             ....  882

ORBITAL ENERGIES
----------------
                 SPIN UP ORBITALS
  NO   OCC          E(Eh)            E(eV)
   0   1.0000     -19.335741      -526.1523
   1   1.0000     -19.331278      -526.0308
   2   1.0000     -19.324549      -525.8477
   3   1.0000     -19.316481      -525.6282
   4   1.0000     -14.564088      -396.3090
   5   1.0000     -14.562454      -396.2645
   6   1.0000     -14.562429      -396.2638
   7   1.0000     -14.560190      -396.2029
   8   1.0000     -10.508009      -285.9375
   9   1.0000     -10.504550      -285.8433
  10   1.0000     -10.482837      -285.2525
  11   1.0000     -10.481054      -285.2040
  12   1.0000     -10.446792      -284.2717
  13   1.0000     -10.442905      -284.1659
  14   1.0000     -10.419195      -283.5207
  15   1.0000     -10.417091      -283.4634
  16   1.0000     -10.378780      -282.4210
  17   1.0000     -10.376186      -282.3504
  18   1.0000      -1.223167       -33.2841
  19   1.0000      -1.218233       -33.1498
  20   1.0000      -1.200251       -32.6605
  21   1.0000      -1.195955       -32.5436
  22   1.0000      -1.122995       -30.5583
  23   1.0000      -1.098760       -29.8988
  24   1.0000      -1.067839       -29.0574
  25   1.0000      -1.058533       -28.8042
  26   1.0000      -0.996493       -27.1160
  27   1.0000      -0.954964       -25.9859
  28   1.0000      -0.897503       -24.4223
  29   1.0000      -0.842857       -22.9353
  30   1.0000      -0.830430       -22.5971
  31   1.0000      -0.802270       -21.8309
  32   1.0000      -0.787066       -21.4172
  33   1.0000      -0.784724       -21.3534
  34   1.0000      -0.707602       -19.2548
  35   1.0000      -0.697874       -18.9901
  36   1.0000      -0.695874       -18.9357
  37   1.0000      -0.678049       -18.4507
  38   1.0000      -0.658913       -17.9299
  39   1.0000      -0.638123       -17.3642
  40   1.0000      -0.626193       -17.0396
  41   1.0000      -0.602089       -16.3837
  42   1.0000      -0.596375       -16.2282
  43   1.0000      -0.589154       -16.0317
  44   1.0000      -0.582302       -15.8452
  45   1.0000      -0.575862       -15.6700
  46   1.0000      -0.567241       -15.4354
  47   1.0000      -0.564308       -15.3556
  48   1.0000      -0.558332       -15.1930
  49   1.0000      -0.556316       -15.1381
  50   1.0000      -0.549725       -14.9588
  51   1.0000      -0.548138       -14.9156
  52   1.0000      -0.535326       -14.5670
  53   1.0000      -0.525297       -14.2941
  54   1.0000      -0.515322       -14.0226
  55   1.0000      -0.511377       -13.9153
  56   1.0000      -0.495219       -13.4756
  57   1.0000      -0.424372       -11.5477
  58   1.0000      -0.422141       -11.4870
  59   1.0000      -0.411817       -11.2061
  60   1.0000      -0.404512       -11.0073
  61   1.0000      -0.400597       -10.9008
  62   1.0000      -0.393509       -10.7079
  63   1.0000      -0.390318       -10.6211
  64   1.0000      -0.383087       -10.4243
  65   1.0000      -0.350005        -9.5241
  66   1.0000      -0.324613        -8.8332
  67   0.0000       0.007212         0.1962
  68   0.0000       0.027895         0.7591
  69   0.0000       0.032816         0.8930
  70   0.0000       0.035205         0.9580
  71   0.0000       0.054244         1.4761

                 SPIN DOWN ORBITALS
  NO   OCC          E(Eh)            E(eV)
   0   1.0000     -19.332235      -526.0569
   1   1.0000     -19.327470      -525.9272
   2   1.0000     -19.324239      -525.8393
   3   1.0000     -19.316483      -525.6282
   4   1.0000     -14.562914      -396.2770
   5   1.0000     -14.562190      -396.2573
   6   1.0000     -14.561669      -396.2432
   7   1.0000     -14.560168      -396.2023
   8   1.0000     -10.508023      -285.9378
   9   1.0000     -10.504600      -285.8447
  10   1.0000     -10.483809      -285.2789
  11   1.0000     -10.481918      -285.2275
  12   1.0000     -10.446138      -284.2539
  13   1.0000     -10.443145      -284.1724
  14   1.0000     -10.406876      -283.1855
  15   1.0000     -10.405546      -283.1493
  16   1.0000     -10.379393      -282.4376
  17   1.0000     -10.376792      -282.3669
  18   1.0000      -1.221462       -33.2377
  19   1.0000      -1.216579       -33.1048
  20   1.0000      -1.195953       -32.5435
  21   1.0000      -1.191702       -32.4279
  22   1.0000      -1.119896       -30.4739
  23   1.0000      -1.096469       -29.8364
  24   1.0000      -1.065898       -29.0046
  25   1.0000      -1.056847       -28.7583
  26   1.0000      -0.984409       -26.7871
  27   1.0000      -0.937773       -25.5181
  28   1.0000      -0.891205       -24.2509
  29   1.0000      -0.837285       -22.7837
  30   1.0000      -0.821505       -22.3543
  31   1.0000      -0.797459       -21.7000
  32   1.0000      -0.785507       -21.3747
  33   1.0000      -0.782833       -21.3020
  34   1.0000      -0.703150       -19.1337
  35   1.0000      -0.689354       -18.7583
  36   1.0000      -0.688911       -18.7462
  37   1.0000      -0.669221       -18.2104
  38   1.0000      -0.648333       -17.6420
  39   1.0000      -0.634650       -17.2697
  40   1.0000      -0.621940       -16.9239
  41   1.0000      -0.597330       -16.2542
  42   1.0000      -0.589672       -16.0458
  43   1.0000      -0.583966       -15.8905
  44   1.0000      -0.575583       -15.6624
  45   1.0000      -0.566229       -15.4079
  46   1.0000      -0.563234       -15.3264
  47   1.0000      -0.561488       -15.2789
  48   1.0000      -0.551977       -15.0201
  49   1.0000      -0.546150       -14.8615
  50   1.0000      -0.543475       -14.7887
  51   1.0000      -0.538586       -14.6557
  52   1.0000      -0.529986       -14.4217
  53   1.0000      -0.516101       -14.0438
  54   1.0000      -0.509842       -13.8735
  55   1.0000      -0.504072       -13.7165
  56   1.0000      -0.488718       -13.2987
  57   1.0000      -0.419473       -11.4144
  58   1.0000      -0.418877       -11.3982
  59   1.0000      -0.406894       -11.0721
  60   1.0000      -0.393809       -10.7161
  61   1.0000      -0.390426       -10.6240
  62   1.0000      -0.388828       -10.5805
  63   1.0000      -0.385991       -10.5034
  64   1.0000      -0.375964       -10.2305
  65   0.0000      -0.066340        -1.8052
  66   0.0000      -0.036265        -0.9868
  67   0.0000       0.006579         0.1790
  68   0.0000       0.027782         0.7560
  69   0.0000       0.032586         0.8867

----------------------------------------------------------------------------------------------------
          SPIN FLIP ABSORPTION SPECTRUM VIA TRANSITION ELECTRIC DIPOLE MOMENTS
----------------------------------------------------------------------------------------------------
     Transition      Energy     Energy  Wavelength fosc(D2)      D2        DX        DY        DZ
                      (eV)      (cm-1)    (nm)                 (au**2)    (au)      (au)      (au)
----------------------------------------------------------------------------------------------------
  1-3A  ->  2-3A    0.239706    1933.4  5172.4   0.000015434   0.00263   0.00682  -0.04009   0.03121

Dispersion correction             ... done (  0.0 sec)

MULLIKEN ATOMIC CHARGES AND SPIN DENSITIES
------------------------------------------
   0 O :   -0.685643    0.054042
   1 O :   -0.652582   -0.047879
   2 O :   -0.663754    0.000278
   3 O :   -0.644761   -0.001590
   4 N :   -0.212878    0.005080
   5 N :   -0.334794   -0.008700
   6 N :   -0.029471    0.012828
   7 N :    0.071927   -0.001024
   8 C :    0.310719    0.449397
   9 C :    1.066119    0.363186
  10 C :    0.526067   -0.155775
  11 C :    0.010939   -0.304405
  12 C :   -1.533702    0.058844
  13 C :   -1.447081    0.036394
  14 C :    0.371311   -0.170268
  15 C :   -0.278796   -0.394336
  16 C :    0.528808    0.022597
  17 C :    0.358392    0.021113
  18 H :    0.385114    0.006627
  19 H :    0.665115    0.006172
  20 H :    0.254983    0.010996
  21 H :    0.347856    0.003649
  22 H :    0.388450    0.007425
  23 H :    0.367450    0.008371
  24 H :    0.270344    0.035178
  25 H :    0.367528   -0.019401
  26 H :    0.028915    0.000100
  27 H :    0.102653    0.000792
  28 H :    0.027241   -0.000958
  29 H :    0.033531    0.001264
Sum of atomic charges       :    0.0000000

LOEWDIN ATOMIC CHARGES AND SPIN DENSITIES
-----------------------------------------
   0 O :    0.087515    0.046730
   1 O :    0.101216   -0.047684
   2 O :    0.091577   -0.000151
   3 O :    0.086028   -0.001326
   4 N :    0.299225   -0.001025
   5 N :    0.293210   -0.009212
   6 N :    0.333799    0.006744
   7 N :    0.323493   -0.005481
   8 C :   -0.042275    0.199101
   9 C :    0.017591   -0.193252
  10 C :   -0.138641    0.020528
  11 C :   -0.126864   -0.007266
  12 C :    0.187869    0.028616
  13 C :    0.194866   -0.033070
  14 C :   -0.391768    0.026279
  15 C :   -0.415242   -0.032400
  16 C :   -0.478404   -0.000146
  17 C :   -0.494162   -0.000420
  18 H :    0.074379    0.005782
  19 H :    0.040865    0.000522
  20 H :    0.000031    0.009889
  21 H :    0.006792    0.001816
  22 H :    0.007275    0.003732
  23 H :    0.021815   -0.011418
  24 H :   -0.009045   -0.005295
  25 H :    0.005020   -0.000341
  26 H :   -0.028466   -0.000107
  27 H :   -0.030811   -0.001211
  28 H :   -0.009180    0.000655
  29 H :   -0.007706   -0.000588

  Mayer bond orders larger than 0.100000
B(  0-O , 12-C ) :   0.1115 B(  0-O , 14-C ) :   1.2441 B(  1-O , 15-C ) :   1.4255
B(  2-O , 16-C ) :   1.5299 B(  3-O , 17-C ) :   1.5865 B(  4-N ,  8-C ) :   0.1378
B(  4-N ,  9-C ) :   0.1129 B(  4-N , 10-C ) :   0.5623 B(  4-N , 16-C ) :   1.0341
B(  4-N , 26-H ) :   1.1090 B(  5-N ,  9-C ) :   0.2064 B(  5-N , 10-C ) :   0.1669
B(  5-N , 11-C ) :  -0.1331 B(  5-N , 17-C ) :   1.2236 B(  5-N , 27-H ) :   1.0326
B(  6-N , 14-C ) :   1.0090 B(  6-N , 16-C ) :   0.9141 B(  6-N , 28-H ) :   1.1170
B(  7-N , 10-C ) :  -0.1226 B(  7-N , 11-C ) :   0.1194 B(  7-N , 15-C ) :   0.9523
B(  7-N , 17-C ) :   0.9850 B(  7-N , 29-H ) :   1.1005 B(  8-C , 10-C ) :   0.3873
B(  8-C , 11-C ) :   0.5303 B(  8-C , 12-C ) :   0.2357 B(  8-C , 14-C ) :   0.7104
B(  8-C , 18-H ) :  -0.2564 B(  8-C , 21-H ) :  -0.1699 B(  9-C , 11-C ) :   0.7054
B(  9-C , 13-C ) :   0.3042 B(  9-C , 15-C ) :   0.2097 B(  9-C , 25-H ) :  -0.1008
B( 10-C , 11-C ) :   0.5323 B( 10-C , 12-C ) :  -0.3317 B( 10-C , 18-H ) :   1.0964
B( 10-C , 19-H ) :  -0.1422 B( 11-C , 12-C ) :   0.2002 B( 11-C , 13-C ) :  -0.1483
B( 11-C , 17-C ) :  -0.2291 B( 11-C , 18-H ) :  -0.1764 B( 11-C , 19-H ) :   0.6714
B( 12-C , 20-H ) :   0.8729 B( 12-C , 21-H ) :   1.0916 B( 12-C , 22-H ) :   0.8976
B( 13-C , 15-C ) :  -0.1027 B( 13-C , 23-H ) :   0.8545 B( 13-C , 24-H ) :   1.0289
B( 13-C , 25-H ) :   0.9587

Dispersion correction           -0.058720294
FINAL SINGLE POINT ENERGY      -908.788492794250

DIPOLE MOMENT
-------------

Method             : TDA/CIS
Type of density    : Electron Density
Level              : Relaxed density
State              :   2
Multiplicity       :   3
Irrep              :   0
Energy             :     0.0000000000000000 Eh
Relativity type    :
Basis              : AO
                                X                 Y                 Z
Electronic contribution:     -2.062139086      -9.842849270      -6.589531576
Nuclear contribution   :      1.938306303      11.327756783       9.079170506
                        -----------------------------------------
Total Dipole Moment    :     -0.123832783       1.484907512       2.489638930
                        -----------------------------------------
Magnitude (a.u.)       :      2.901480119
Magnitude (Debye)      :      7.374976363

Rotational constants in cm-1:             0.020246             0.013350             0.011690
Rotational constants in MHz :           606.970895           400.208055           350.467275

                             ****ORCA TERMINATED NORMALLY****
TOTAL RUN TIME: 0 days 0 hours 21 minutes 30 seconds 391 msec
