                         Program Version 6.0.0  -   RELEASE  -
|  1> ! Engrad def2-TZVPPD wB97M-D3BJ
|  2> %pal nprocs 8 end%pal nprocs 64 end
|  3> %tddft
|  4>  Iroot 2 Nroots 3
|  5> sf true
|  6> end
|  7> *xyz 0 3
|  8> O   2.52649179 -0.79531306 -2.17562306
|  9> O   -1.6264959 1.61754311 -1.70920641
| 10> O   -1.41780837 -2.46934296 -0.86244669
| 11> O   -2.95835057 0.52148001 2.39376616
| 12> N   0.01585299 -1.658463 0.69200541
| 13> N   -0.73662815 0.87393912 2.03568873
| 14> N   0.59476403 -1.69685279 -1.62190284
| 15> N   -2.12547925 0.6237275 0.24417763
| 16> C   2.05641583 -0.70645705 0.07902206
| 17> C   0.09392863 1.5555341 -0.10820149
| 18> C   0.98846234 -0.60738646 1.07352231
| 19> C   0.4069651 0.88788061 1.24026148
| 20> C   3.37047462 -0.17165706 0.42070193
| 21> C   0.99376152 2.33867091 -1.04447984
| 22> C   1.73735983 -1.03771818 -1.30680221
| 23> C   -1.22759146 1.26888699 -0.55438296
| 24> C   -0.3754311 -1.96078943 -0.62156452
| 25> C   -2.05088293 0.68567759 1.61669859
| 26> H   1.32692492 -0.788035 2.12401621
| 27> H   1.16553755 1.43401575 1.8713047
| 28> H   3.93773665 -0.12613982 -0.4755085
| 29> H   3.42208805 0.78122063 0.88898254
| 30> H   3.9428383 -0.8960471 1.05859376
| 31> H   1.29867934 1.70740719 -1.9234895
| 32> H   0.4471059 3.17554869 -1.43300844
| 33> H   1.78971732 2.77671264 -0.4791413
| 34> H   -0.72049035 -1.77204038 1.32104054
| 35> H   -0.67235119 1.01552656 3.08190513
| 36> H   0.4008204 -1.98578619 -2.55436098
| 37> H   -2.96255702 0.25956294 -0.1423738
| 38> *
| 39>
| 40>                          ****END OF INPUT****

CARTESIAN COORDINATES (ANGSTROEM)
---------------------------------
  O      2.526492   -0.795313   -2.175623
  O     -1.626496    1.617543   -1.709206
  O     -1.417808   -2.469343   -0.862447
  O     -2.958351    0.521480    2.393766
  N      0.015853   -1.658463    0.692005
  N     -0.736628    0.873939    2.035689
  N      0.594764   -1.696853   -1.621903
  N     -2.125479    0.623727    0.244178
  C      2.056416   -0.706457    0.079022
  C      0.093929    1.555534   -0.108201
  C      0.988462   -0.607386    1.073522
  C      0.406965    0.887881    1.240261
  C      3.370475   -0.171657    0.420702
  C      0.993762    2.338671   -1.044480
  C      1.737360   -1.037718   -1.306802
  C     -1.227591    1.268887   -0.554383
  C     -0.375431   -1.960789   -0.621565
  C     -2.050883    0.685678    1.616699
  H      1.326925   -0.788035    2.124016
  H      1.165538    1.434016    1.871305
  H      3.937737   -0.126140   -0.475509
  H      3.422088    0.781221    0.888983
  H      3.942838   -0.896047    1.058594
  H      1.298679    1.707407   -1.923490
  H      0.447106    3.175549   -1.433008
  H      1.789717    2.776713   -0.479141
  H     -0.720490   -1.772040    1.321041
  H     -0.672351    1.015527    3.081905
  H      0.400820   -1.985786   -2.554361
  H     -2.962557    0.259563   -0.142374

 Total Charge           Charge          ....    0
 Multiplicity           Mult            ....    3
 Number of Electrons    NEL             ....  132
 Basis Dimension        Dim             ....  882

ORBITAL ENERGIES
----------------
                 SPIN UP ORBITALS
  NO   OCC          E(Eh)            E(eV)
   0   1.0000     -19.328467      -525.9543
   1   1.0000     -19.327674      -525.9327
   2   1.0000     -19.326621      -525.9041
   3   1.0000     -19.325755      -525.8805
   4   1.0000     -14.564583      -396.3224
   5   1.0000     -14.563166      -396.2839
   6   1.0000     -14.562058      -396.2537
   7   1.0000     -14.553824      -396.0297
   8   1.0000     -10.508179      -285.9421
   9   1.0000     -10.507428      -285.9217
  10   1.0000     -10.476033      -285.0673
  11   1.0000     -10.475041      -285.0404
  12   1.0000     -10.451406      -284.3972
  13   1.0000     -10.441079      -284.1162
  14   1.0000     -10.424549      -283.6664
  15   1.0000     -10.411231      -283.3040
  16   1.0000     -10.372033      -282.2374
  17   1.0000     -10.364406      -282.0298
  18   1.0000      -1.231248       -33.5040
  19   1.0000      -1.221854       -33.2483
  20   1.0000      -1.210546       -32.9406
  21   1.0000      -1.178212       -32.0608
  22   1.0000      -1.119923       -30.4747
  23   1.0000      -1.099752       -29.9258
  24   1.0000      -1.069438       -29.1009
  25   1.0000      -1.057706       -28.7816
  26   1.0000      -0.976082       -26.5606
  27   1.0000      -0.950545       -25.8657
  28   1.0000      -0.885367       -24.0921
  29   1.0000      -0.842520       -22.9261
  30   1.0000      -0.829853       -22.5814
  31   1.0000      -0.804604       -21.8944
  32   1.0000      -0.780576       -21.2405
  33   1.0000      -0.776517       -21.1301
  34   1.0000      -0.705408       -19.1951
  35   1.0000      -0.699717       -19.0403
  36   1.0000      -0.688445       -18.7336
  37   1.0000      -0.673646       -18.3308
  38   1.0000      -0.655065       -17.8252
  39   1.0000      -0.646798       -17.6003
  40   1.0000      -0.624223       -16.9860
  41   1.0000      -0.606137       -16.4938
  42   1.0000      -0.589576       -16.0432
  43   1.0000      -0.586058       -15.9474
  44   1.0000      -0.574235       -15.6257
  45   1.0000      -0.568880       -15.4800
  46   1.0000      -0.566766       -15.4225
  47   1.0000      -0.564580       -15.3630
  48   1.0000      -0.559780       -15.2324
  49   1.0000      -0.553532       -15.0624
  50   1.0000      -0.548575       -14.9275
  51   1.0000      -0.533855       -14.5269
  52   1.0000      -0.531272       -14.4566
  53   1.0000      -0.529095       -14.3974
  54   1.0000      -0.508757       -13.8440
  55   1.0000      -0.495830       -13.4922
  56   1.0000      -0.487539       -13.2666
  57   1.0000      -0.429360       -11.6835
  58   1.0000      -0.418361       -11.3842
  59   1.0000      -0.410422       -11.1682
  60   1.0000      -0.409125       -11.1328
  61   1.0000      -0.400881       -10.9085
  62   1.0000      -0.395311       -10.7570
  63   1.0000      -0.389012       -10.5856
  64   1.0000      -0.379357       -10.3228
  65   1.0000      -0.343433        -9.3453
  66   1.0000      -0.328583        -8.9412
  67   0.0000       0.006282         0.1709
  68   0.0000       0.032590         0.8868
  69   0.0000       0.033236         0.9044
  70   0.0000       0.036456         0.9920
  71   0.0000       0.054595         1.4856

                 SPIN DOWN ORBITALS
  NO   OCC          E(Eh)            E(eV)
   0   1.0000     -19.327579      -525.9302
   1   1.0000     -19.325577      -525.8757
   2   1.0000     -19.322623      -525.7953
   3   1.0000     -19.322293      -525.7863
   4   1.0000     -14.564116      -396.3097
   5   1.0000     -14.562795      -396.2738
   6   1.0000     -14.561779      -396.2462
   7   1.0000     -14.553608      -396.0238
   8   1.0000     -10.508219      -285.9432
   9   1.0000     -10.507470      -285.9228
  10   1.0000     -10.476965      -285.0927
  11   1.0000     -10.476310      -285.0749
  12   1.0000     -10.450805      -284.3809
  13   1.0000     -10.440906      -284.1115
  14   1.0000     -10.413644      -283.3697
  15   1.0000     -10.399779      -282.9924
  16   1.0000     -10.372520      -282.2506
  17   1.0000     -10.365025      -282.0467
  18   1.0000      -1.229842       -33.4657
  19   1.0000      -1.220935       -33.2233
  20   1.0000      -1.206039       -32.8180
  21   1.0000      -1.171418       -31.8759
  22   1.0000      -1.116585       -30.3838
  23   1.0000      -1.097168       -29.8554
  24   1.0000      -1.066847       -29.0304
  25   1.0000      -1.056039       -28.7363
  26   1.0000      -0.962388       -26.1879
  27   1.0000      -0.933148       -25.3922
  28   1.0000      -0.880403       -23.9570
  29   1.0000      -0.837691       -22.7947
  30   1.0000      -0.822260       -22.3748
  31   1.0000      -0.800457       -21.7816
  32   1.0000      -0.779013       -21.1980
  33   1.0000      -0.774991       -21.0886
  34   1.0000      -0.699017       -19.0212
  35   1.0000      -0.693420       -18.8689
  36   1.0000      -0.683164       -18.5898
  37   1.0000      -0.667322       -18.1588
  38   1.0000      -0.648653       -17.6508
  39   1.0000      -0.641642       -17.4600
  40   1.0000      -0.615956       -16.7610
  41   1.0000      -0.600903       -16.3514
  42   1.0000      -0.584766       -15.9123
  43   1.0000      -0.581510       -15.8237
  44   1.0000      -0.565514       -15.3884
  45   1.0000      -0.564484       -15.3604
  46   1.0000      -0.562206       -15.2984
  47   1.0000      -0.556178       -15.1344
  48   1.0000      -0.550020       -14.9668
  49   1.0000      -0.546518       -14.8715
  50   1.0000      -0.539745       -14.6872
  51   1.0000      -0.525578       -14.3017
  52   1.0000      -0.522446       -14.2165
  53   1.0000      -0.522074       -14.2064
  54   1.0000      -0.496428       -13.5085
  55   1.0000      -0.491938       -13.3863
  56   1.0000      -0.482258       -13.1229
  57   1.0000      -0.424996       -11.5647
  58   1.0000      -0.414638       -11.2829
  59   1.0000      -0.404844       -11.0164
  60   1.0000      -0.398377       -10.8404
  61   1.0000      -0.388611       -10.5747
  62   1.0000      -0.386198       -10.5090
  63   1.0000      -0.381625       -10.3845
  64   1.0000      -0.366089        -9.9618
  65   0.0000      -0.063171        -1.7190
  66   0.0000      -0.051760        -1.4085
  67   0.0000       0.005757         0.1567
  68   0.0000       0.032326         0.8796
  69   0.0000       0.032876         0.8946

----------------------------------------------------------------------------------------------------
          SPIN FLIP ABSORPTION SPECTRUM VIA TRANSITION ELECTRIC DIPOLE MOMENTS
----------------------------------------------------------------------------------------------------
     Transition      Energy     Energy  Wavelength fosc(D2)      D2        DX        DY        DZ
                      (eV)      (cm-1)    (nm)                 (au**2)    (au)      (au)      (au)
----------------------------------------------------------------------------------------------------
  1-3A  ->  2-1A    0.018017     145.3  68815.1   0.000001309   0.00297  -0.04315   0.02719   0.01910
  1-3A  ->  3-3A    1.627950   13130.3   761.6   0.001646050   0.04127   0.05983  -0.10171   0.16537

Dispersion correction             ... done (  0.1 sec)

MULLIKEN ATOMIC CHARGES AND SPIN DENSITIES
------------------------------------------
   0 O :   -0.668244   -0.121643
   1 O :   -0.715904    0.192395
   2 O :   -0.603966   -0.002729
   3 O :   -0.639589    0.000012
   4 N :   -0.239512   -0.017088
   5 N :   -0.274617    0.002283
   6 N :    0.045137   -0.009427
   7 N :    0.075077    0.006624
   8 C :    1.100063    0.319406
   9 C :   -0.212149    0.324315
  10 C :    0.003151   -0.378261
  11 C :    0.733084    0.028324
  12 C :   -1.468523   -0.060905
  13 C :   -1.365696    0.002689
  14 C :   -0.154917   -0.463309
  15 C :    0.424189    0.087742
  16 C :    0.394790    0.037638
  17 C :    0.377452   -0.008580
  18 H :    0.448097   -0.024150
  19 H :    0.554301    0.023405
  20 H :    0.313298   -0.010555
  21 H :    0.360857    0.005747
  22 H :    0.366339    0.007467
  23 H :    0.238598    0.034443
  24 H :    0.407661    0.015899
  25 H :    0.326611   -0.002614
  26 H :    0.006461    0.004081
  27 H :    0.122883    0.000926
  28 H :    0.022658    0.005659
  29 H :    0.022411    0.000209
Sum of atomic charges       :   -0.0000000

LOEWDIN ATOMIC CHARGES AND SPIN DENSITIES
-----------------------------------------
   0 O :    0.086031   -0.109921
   1 O :    0.057684    0.169306
   2 O :    0.117407   -0.002629
   3 O :    0.098222    0.000072
   4 N :    0.305126   -0.006815
   5 N :    0.221651   -0.001004
   6 N :    0.351380   -0.009727
   7 N :    0.330414    0.006494
   8 C :   -0.028003   -0.394777
   9 C :    0.009123    0.397055
  10 C :   -0.104418   -0.027848
  11 C :   -0.130827    0.012144
  12 C :    0.190324   -0.066288
  13 C :    0.214291    0.051260
  14 C :   -0.459073   -0.071670
  15 C :   -0.380882    0.063613
  16 C :   -0.462162    0.000340
  17 C :   -0.476252   -0.000993
  18 H :    0.071640   -0.004856
  19 H :    0.077082    0.003576
  20 H :   -0.026802    0.000576
  21 H :   -0.015398   -0.012327
  22 H :    0.042490   -0.021784
  23 H :    0.033784    0.018784
  24 H :   -0.013324    0.008657
  25 H :   -0.021113    0.000056
  26 H :   -0.085309   -0.000705
  27 H :    0.031434   -0.000450
  28 H :   -0.017260   -0.000853
  29 H :   -0.017260    0.000714

  Mayer bond orders larger than 0.100000
B(  0-O , 14-C ) :   1.4191 B(  1-O , 15-C ) :   1.2533 B(  2-O , 16-C ) :   1.5317
B(  3-O , 17-C ) :   1.6222 B(  4-N ,  8-C ) :   0.2878 B(  4-N ,  9-C ) :   0.1142
B(  4-N , 10-C ) :   0.1800 B(  4-N , 16-C ) :   0.9807 B(  4-N , 26-H ) :   1.0813
B(  5-N ,  9-C ) :   0.2059 B(  5-N , 10-C ) :   0.1684 B(  5-N , 11-C ) :   0.1295
B(  5-N , 17-C ) :   1.1435 B(  5-N , 27-H ) :   1.0649 B(  6-N , 14-C ) :   1.0775
B(  6-N , 16-C ) :   0.9677 B(  6-N , 28-H ) :   1.1170 B(  7-N , 11-C ) :   0.1835
B(  7-N , 15-C ) :   1.0655 B(  7-N , 17-C ) :   0.9382 B(  7-N , 29-H ) :   1.1177
B(  8-C ,  9-C ) :   0.1293 B(  8-C , 10-C ) :   0.5781 B(  8-C , 11-C ) :   0.1375
B(  8-C , 12-C ) :   0.2646 B(  8-C , 14-C ) :   0.3075 B(  8-C , 20-H ) :  -0.1449
B(  9-C , 10-C ) :   0.2572 B(  9-C , 11-C ) :  -0.1465 B(  9-C , 13-C ) :   0.3432
B(  9-C , 15-C ) :   1.0421 B(  9-C , 19-H ) :  -0.1712 B(  9-C , 25-H ) :  -0.1284
B( 10-C , 11-C ) :   0.5791 B( 10-C , 12-C ) :   0.1046 B( 10-C , 14-C ) :   0.1701
B( 10-C , 16-C ) :  -0.1198 B( 10-C , 18-H ) :   0.8480 B( 11-C , 15-C ) :  -0.1821
B( 11-C , 17-C ) :  -0.2029 B( 11-C , 19-H ) :   0.8130 B( 12-C , 20-H ) :   1.0794
B( 12-C , 21-H ) :   0.7950 B( 12-C , 22-H ) :   0.9032 B( 13-C , 23-H ) :   0.9415
B( 13-C , 24-H ) :   0.8762 B( 13-C , 25-H ) :   1.0497

Dispersion correction           -0.058776763
FINAL SINGLE POINT ENERGY      -908.771978997102

DIPOLE MOMENT
-------------

Method             : TDA/CIS
Type of density    : Electron Density
Level              : Relaxed density
State              :   2
Multiplicity       :   3
Irrep              :   0
Energy             :     0.0000000000000000 Eh
Relativity type    :
Basis              : AO
                                X                 Y                 Z
Electronic contribution:    -10.586349685      -5.053757690      -1.641429147
Nuclear contribution   :     12.560867752       5.720046592       3.366500812
                        -----------------------------------------
Total Dipole Moment    :      1.974518067       0.666288902       1.725071665
                        -----------------------------------------
Magnitude (a.u.)       :      2.705279051
Magnitude (Debye)      :      6.876272882

Rotational constants in cm-1:             0.021224             0.013098             0.012324
Rotational constants in MHz :           636.274022           392.663682           369.463397

                             ****ORCA TERMINATED NORMALLY****
TOTAL RUN TIME: 0 days 0 hours 8 minutes 55 seconds 74 msec
