                         Program Version 6.0.0  -   RELEASE  -
|  1> ! opt def2-TZVPPD wB97M-D3BJ
|  2> %pal nprocs 8 end%pal nprocs 32 end
|  3> %geom Constraints
|  4> {B 9 8 3.6 C}
|  5> {A 8 9 11 61.42857142857143 C}
|  6>  end
|  7>  end
|  8> *xyz 0 1
|  9> O   2.98579685529314 0.88758230159078 -0.86184571092411
| 10> O   -0.03983205397054 0.68929041702508 -2.10362336723772
| 11> O   0.93431434349854 -3.13274393337945 -0.68767288184107
| 12> O   -3.75829998830163 -0.84727300865116 -0.0472717177755
| 13> N   0.21184538946282 -1.54604804365365 0.7617588924445
| 14> N   -2.13631993928911 0.03188773433438 1.27350571071531
| 15> N   2.02598672506387 -1.14318467211666 -0.64531219127023
| 16> N   -1.91814233924584 0.03137116037665 -1.04498946748291
| 17> C   1.18097737274226 0.71693507080484 0.70173889017321
| 18> C   -0.20686880480777 1.27024627933494 0.21345042231937
| 19> C   0.41441080275909 -0.34173258966541 1.52336266615173
| 20> C   -0.82922175114212 0.58960593673968 1.44434972027296
| 21> C   1.92822011286806 1.69488653817281 1.5963734975385
| 22> C   -0.37809776891576 2.77134929626422 0.04819649358288
| 23> C   2.1403947470937 0.1972384729179 -0.35038567829864
| 24> C   -0.67361678962426 0.6214190571346 -1.0793014500539
| 25> C   1.04142578622994 -2.02697492875068 -0.21027082435993
| 26> C   -2.68467002550422 -0.30396816036989 0.07167054343891
| 27> H   0.80817443950001 -0.54572267081061 2.51895215321335
| 28> H   -0.83785272399001 1.27240685039143 2.28901317073582
| 29> H   2.31167340578204 2.52284411740894 1.00913016264629
| 30> H   1.28982602448342 2.08257620823614 2.38710022492991
| 31> H   2.77390820759972 1.19140411795486 2.06045858523949
| 32> H   -1.41857211141493 3.00964947214868 -0.16882755561625
| 33> H   -0.09065531563179 3.29799318042223 0.95389844358819
| 34> H   0.23426221611057 3.12492645074476 -0.77764887675592
| 35> H   -0.46772570547622 -2.21560145172536 1.0787081584806
| 36> H   -2.71769301149571 -0.17090724573546 2.06627440900372
| 37> H   2.60065167263658 -1.49057255715425 -1.3966820077142
| 38> H   -2.27169977231386 -0.32388339999036 -1.91951041514436
| 39> *
| 40>
| 41>                          ****END OF INPUT****
 Total Charge           Charge          ....    0
 Multiplicity           Mult            ....    1
 Number of Electrons    NEL             ....  132
Dispersion correction           -0.050831976
FINAL SINGLE POINT ENERGY      -908.573959167825
Dispersion correction             ... done (  0.1 sec)
Dispersion correction           -0.051628993
FINAL SINGLE POINT ENERGY      -908.632117079053
Dispersion correction             ... done (  0.0 sec)
Dispersion correction           -0.052458815
FINAL SINGLE POINT ENERGY      -908.684404985824
Dispersion correction             ... done (  0.0 sec)
FINAL SINGLE POINT ENERGY      -908.750137908630
FINAL SINGLE POINT ENERGY      -908.803069570976
FINAL SINGLE POINT ENERGY      -908.835928133098
FINAL SINGLE POINT ENERGY      -908.866648859432
FINAL SINGLE POINT ENERGY      -908.888385397028
FINAL SINGLE POINT ENERGY      -908.903699890650
FINAL SINGLE POINT ENERGY      -908.912643489772
FINAL SINGLE POINT ENERGY      -908.933964512549
FINAL SINGLE POINT ENERGY      -908.934013885691
FINAL SINGLE POINT ENERGY      -908.934067869876
FINAL SINGLE POINT ENERGY      -908.934095364614
FINAL SINGLE POINT ENERGY      -908.934133328218
FINAL SINGLE POINT ENERGY      -908.934165294307
FINAL SINGLE POINT ENERGY      -908.934180058664
Dispersion correction             ... done (  0.0 sec)
Dispersion correction           -0.058959906
FINAL SINGLE POINT ENERGY      -908.934188747249
Dispersion correction             ... done (  0.0 sec)
Dispersion correction           -0.058972930
FINAL SINGLE POINT ENERGY      -908.934192767595
Dispersion correction             ... done (  0.0 sec)
                    ***********************HURRAY********************

CARTESIAN COORDINATES (ANGSTROEM)
---------------------------------
  O      2.500464    1.329579   -0.162913
  O     -1.027137    0.835788   -2.556706
  O      0.461768   -2.491707   -1.545027
  O     -2.550826   -1.536416    1.010258
  N      0.544855   -2.041642    0.685085
  N     -1.763987    0.571653    1.346308
  N      1.537869   -0.612454   -0.823027
  N     -1.846078   -0.298964   -0.776572
  C      1.491984   -0.016003    1.510989
  C     -0.868483    1.884337   -0.432437
  C      0.845773   -1.171507    1.705715
  C     -1.118760    1.690575    0.866516
  C      1.840941    0.942763    2.602418
  C     -0.177780    3.088776   -0.982573
  C      1.900745    0.321365    0.146474
  C     -1.237688    0.816004   -1.365032
  C      0.822292   -1.777082   -0.638326
  C     -2.098325   -0.504043    0.559114
  H      0.510619   -1.485409    2.682922
  H     -0.853900    2.421046    1.615307
  H      1.461040    1.937546    2.375285
  H      1.432263    0.613359    3.555393
  H      2.920346    1.041656    2.701918
  H     -0.780020    3.548944   -1.763113
  H      0.006346    3.818085   -0.197460
  H      0.777425    2.810151   -1.422197
  H     -0.077865   -2.814473    0.845797
  H     -1.912637    0.446342    2.330513
  H      1.736840   -0.371341   -1.782143
  H     -2.025486   -1.081926   -1.387889

 Multiplicity           Mult            ....    1
 Number of Electrons    NEL             ....  132
 Basis Dimension        Dim             ....  882

ORBITAL ENERGIES
----------------

  NO   OCC          E(Eh)            E(eV)
   0   2.0000     -19.327058      -525.9160
   1   2.0000     -19.323016      -525.8060
   2   2.0000     -19.322573      -525.7940
   3   2.0000     -19.321421      -525.7626
   4   2.0000     -14.582931      -396.8217
   5   2.0000     -14.577846      -396.6834
   6   2.0000     -14.569045      -396.4439
   7   2.0000     -14.567182      -396.3932
   8   2.0000     -10.513698      -286.0923
   9   2.0000     -10.508518      -285.9513
  10   2.0000     -10.478733      -285.1408
  11   2.0000     -10.477605      -285.1101
  12   2.0000     -10.432071      -283.8711
  13   2.0000     -10.429742      -283.8077
  14   2.0000     -10.380449      -282.4664
  15   2.0000     -10.378674      -282.4181
  16   2.0000     -10.364547      -282.0337
  17   2.0000     -10.347881      -281.5802
  18   2.0000      -1.226973       -33.3876
  19   2.0000      -1.221345       -33.2345
  20   2.0000      -1.192937       -32.4615
  21   2.0000      -1.192046       -32.4372
  22   2.0000      -1.122447       -30.5433
  23   2.0000      -1.119141       -30.4534
  24   2.0000      -1.068840       -29.0846
  25   2.0000      -1.066630       -29.0245
  26   2.0000      -0.958602       -26.0849
  27   2.0000      -0.954804       -25.9815
  28   2.0000      -0.851251       -23.1637
  29   2.0000      -0.844541       -22.9811
  30   2.0000      -0.810890       -22.0654
  31   2.0000      -0.808109       -21.9898
  32   2.0000      -0.793329       -21.5876
  33   2.0000      -0.790511       -21.5109
  34   2.0000      -0.695172       -18.9166
  35   2.0000      -0.693677       -18.8759
  36   2.0000      -0.691161       -18.8074
  37   2.0000      -0.689182       -18.7536
  38   2.0000      -0.640863       -17.4388
  39   2.0000      -0.639653       -17.4058
  40   2.0000      -0.636650       -17.3241
  41   2.0000      -0.596318       -16.2266
  42   2.0000      -0.596001       -16.2180
  43   2.0000      -0.593355       -16.1460
  44   2.0000      -0.567302       -15.4371
  45   2.0000      -0.563246       -15.3267
  46   2.0000      -0.561058       -15.2672
  47   2.0000      -0.552874       -15.0445
  48   2.0000      -0.550346       -14.9757
  49   2.0000      -0.547259       -14.8917
  50   2.0000      -0.522452       -14.2167
  51   2.0000      -0.519430       -14.1344
  52   2.0000      -0.513400       -13.9703
  53   2.0000      -0.512449       -13.9445
  54   2.0000      -0.507676       -13.8146
  55   2.0000      -0.495317       -13.4783
  56   2.0000      -0.477550       -12.9948
  57   2.0000      -0.473524       -12.8852
  58   2.0000      -0.419277       -11.4091
  59   2.0000      -0.414386       -11.2760
  60   2.0000      -0.403729       -10.9860
  61   2.0000      -0.399059       -10.8589
  62   2.0000      -0.386784       -10.5249
  63   2.0000      -0.385732       -10.4963
  64   2.0000      -0.346838        -9.4379
  65   2.0000      -0.344754        -9.3812
  66   0.0000       0.010432         0.2839
  67   0.0000       0.015704         0.4273
  68   0.0000       0.029775         0.8102
  69   0.0000       0.032657         0.8887
  70   0.0000       0.039590         1.0773

MULLIKEN ATOMIC CHARGES
-----------------------
   0 O :   -0.675834
   1 O :   -0.663082
   2 O :   -0.644863
   3 O :   -0.670812
   4 N :   -0.016119
   5 N :    0.023519
   6 N :    0.069326
   7 N :    0.058179
   8 C :    0.635047
   9 C :    0.836569
  10 C :    0.028023
  11 C :   -0.175935
  12 C :   -1.416131
  13 C :   -1.341985
  14 C :    0.520077
  15 C :    0.354217
  16 C :    0.342334
  17 C :    0.366528
  18 H :    0.134919
  19 H :    0.227726
  20 H :    0.254021
  21 H :    0.334286
  22 H :    0.333335
  23 H :    0.348876
  24 H :    0.326097
  25 H :    0.238724
  26 H :    0.052200
  27 H :    0.036720
  28 H :    0.041610
  29 H :    0.042428
Sum of atomic charges:   -0.0000000

LOEWDIN ATOMIC CHARGES
----------------------
   0 O :    0.087555
   1 O :    0.101878
   2 O :    0.090218
   3 O :    0.070174
   4 N :    0.280734
   5 N :    0.280193
   6 N :    0.348078
   7 N :    0.343536
   8 C :   -0.149128
   9 C :   -0.133490
  10 C :    0.046932
  11 C :    0.046198
  12 C :    0.173572
  13 C :    0.181833
  14 C :   -0.397872
  15 C :   -0.394645
  16 C :   -0.482918
  17 C :   -0.490082
  18 H :    0.041024
  19 H :    0.034813
  20 H :   -0.013434
  21 H :   -0.006157
  22 H :    0.002303
  23 H :    0.000684
  24 H :   -0.003409
  25 H :   -0.010994
  26 H :   -0.019593
  27 H :   -0.020048
  28 H :   -0.001891
  29 H :   -0.006065

  Mayer bond orders larger than 0.100000
B(  0-O , 14-C ) :   1.4311 B(  1-O , 15-C ) :   1.5109 B(  2-O , 16-C ) :   1.5495
B(  3-O , 17-C ) :   1.5322 B(  4-N , 10-C ) :   0.8508 B(  4-N , 16-C ) :   1.0163
B(  4-N , 26-H ) :   1.1166 B(  5-N , 10-C ) :   0.1057 B(  5-N , 11-C ) :   0.9543
B(  5-N , 17-C ) :   1.0013 B(  5-N , 27-H ) :   1.1252 B(  6-N , 14-C ) :   1.0369
B(  6-N , 15-C ) :   0.1449 B(  6-N , 16-C ) :   0.9038 B(  6-N , 28-H ) :   1.1114
B(  7-N , 15-C ) :   0.9051 B(  7-N , 16-C ) :   0.1171 B(  7-N , 17-C ) :   0.9507
B(  7-N , 29-H ) :   1.1049 B(  8-C , 10-C ) :   1.1593 B(  8-C , 12-C ) :   0.3454
B(  8-C , 14-C ) :   0.7415 B(  9-C , 11-C ) :   1.2434 B(  9-C , 13-C ) :   0.3831
B(  9-C , 15-C ) :   0.6620 B( 10-C , 12-C ) :  -0.1318 B( 10-C , 18-H ) :   1.1290
B( 11-C , 13-C ) :  -0.1131 B( 11-C , 15-C ) :  -0.1048 B( 11-C , 19-H ) :   1.0454
B( 12-C , 20-H ) :   0.9762 B( 12-C , 21-H ) :   0.9938 B( 12-C , 22-H ) :   0.9574
B( 13-C , 23-H ) :   0.9241 B( 13-C , 24-H ) :   1.0090 B( 13-C , 25-H ) :   0.9667

Dispersion correction           -0.058980726
FINAL SINGLE POINT ENERGY      -908.934194242043

DIPOLE MOMENT
-------------

Method             : SCF
Type of density    : Electron Density
Multiplicity       :   1
Irrep              :   0
Energy             :  -908.8752135160342505 Eh
Relativity type    :
Basis              : AO
                                X                 Y                 Z
Electronic contribution:     -3.610815561      -9.051646009      -5.919870254
Nuclear contribution   :      3.483450382       9.668148434       8.408545749
                        -----------------------------------------
Total Dipole Moment    :     -0.127365178       0.616502425       2.488675496
                        -----------------------------------------
Magnitude (a.u.)       :      2.567061131
Magnitude (Debye)      :      6.524950849

Rotational constants in cm-1:             0.016817             0.015948             0.013960
Rotational constants in MHz :           504.173689           478.121600           418.522359

                             ****ORCA TERMINATED NORMALLY****
TOTAL RUN TIME: 0 days 1 hours 17 minutes 39 seconds 247 msec
