                         Program Version 6.0.0  -   RELEASE  -
|  1> ! Opt wB97M-D3BJ def2-TZVPPD
|  2> %pal nprocs 8 end %pal nprocs 64 end
|  3> %geom
|  4> Constraints
|  5>     {A 2 1 0 66.36363636363636 C }
|  6> end
|  7> MaxIter 500
|  8> end
|  9> *xyz 0 1
| 10> O   -0.0007 0.8141 0.0
| 11> C   0.7509 -0.4065 0.0
| 12> C   -0.7502 -0.4076 0.0
| 13> H   1.2625 -0.6786 0.9136
| 14> H   1.2625 -0.6787 -0.9136
| 15> H   -1.2614 -0.6806 -0.9136
| 16> H   -1.2614 -0.6805 0.9136
| 17> *
| 18>
| 19>                          ****END OF INPUT****
 Total Charge           Charge          ....    0
 Multiplicity           Mult            ....    1
 Number of Electrons    NEL             ....   24
Dispersion correction           -0.005243448
FINAL SINGLE POINT ENERGY      -153.879814269437
Dispersion correction             ... done (  0.1 sec)
Dispersion correction           -0.005236780
FINAL SINGLE POINT ENERGY      -153.882374288388
Dispersion correction             ... done (  0.1 sec)
Dispersion correction           -0.005235823
FINAL SINGLE POINT ENERGY      -153.882877288871
Dispersion correction             ... done (  0.1 sec)
FINAL SINGLE POINT ENERGY      -153.882932614318
Dispersion correction             ... done (  0.1 sec)
Dispersion correction           -0.005235662
FINAL SINGLE POINT ENERGY      -153.882963703008
Dispersion correction             ... done (  0.1 sec)
Dispersion correction           -0.005236086
FINAL SINGLE POINT ENERGY      -153.882965466228
Dispersion correction             ... done (  0.1 sec)
                    ***********************HURRAY********************

CARTESIAN COORDINATES (ANGSTROEM)
---------------------------------
  O      0.062057    0.822265   -0.000074
  C      0.699775   -0.404020    0.000066
  C     -0.727799   -0.499838   -0.000084
  H      1.244575   -0.654057    0.907125
  H      1.244430   -0.654173   -0.907070
  H     -1.260523   -0.664479   -0.923294
  H     -1.260314   -0.664098    0.923332

 Multiplicity           Mult            ....    1
 Number of Electrons    NEL             ....   24
 Basis Dimension        Dim             ....  182

ORBITAL ENERGIES
----------------

  NO   OCC          E(Eh)            E(eV)
   0   2.0000     -19.349993      -526.5401
   1   2.0000     -10.402756      -283.0734
   2   2.0000     -10.397286      -282.9245
   3   2.0000      -1.193890       -32.4874
   4   2.0000      -0.818559       -22.2741
   5   2.0000      -0.749775       -20.4024
   6   2.0000      -0.630288       -17.1510
   7   2.0000      -0.593552       -16.1514
   8   2.0000      -0.497348       -13.5335
   9   2.0000      -0.490954       -13.3595
  10   2.0000      -0.427248       -11.6260
  11   2.0000      -0.382775       -10.4158
  12   0.0000       0.041759         1.1363
  13   0.0000       0.058522         1.5925
  14   0.0000       0.072024         1.9599
  15   0.0000       0.077574         2.1109
  16   0.0000       0.113900         3.0994

MULLIKEN ATOMIC CHARGES
-----------------------
   0 O :   -0.393212
   1 C :   -0.134527
   2 C :   -0.214396
   3 H :    0.187752
   4 H :    0.187711
   5 H :    0.183342
   6 H :    0.183329
Sum of atomic charges:   -0.0000000

LOEWDIN ATOMIC CHARGES
----------------------
   0 O :   -0.030641
   1 C :   -0.115820
   2 C :    0.096877
   3 H :    0.019226
   4 H :    0.019225
   5 H :    0.005570
   6 H :    0.005564

  Mayer bond orders larger than 0.100000
B(  0-O ,  1-C ) :   0.7765 B(  0-O ,  2-C ) :   0.8665 B(  1-C ,  2-C ) :   0.8163
B(  1-C ,  3-H ) :   1.0332 B(  1-C ,  4-H ) :   1.0332 B(  2-C ,  5-H ) :   0.9998
B(  2-C ,  6-H ) :   0.9999

Dispersion correction           -0.005236423
FINAL SINGLE POINT ENERGY      -153.882965886379

DIPOLE MOMENT
-------------

Method             : SCF
Type of density    : Electron Density
Multiplicity       :   1
Irrep              :   0
Energy             :  -153.8777294633864585 Eh
Relativity type    :
Basis              : AO
                                X                 Y                 Z
Electronic contribution:      0.007944224       1.596734715      -0.000156552
Nuclear contribution   :     -0.082325432      -2.430951096       0.000196984
                        -----------------------------------------
Total Dipole Moment    :     -0.074381209      -0.834216381       0.000040432
                        -----------------------------------------
Magnitude (a.u.)       :      0.837525842
Magnitude (Debye)      :      2.128821510

Rotational constants in cm-1:             0.863129             0.721226             0.466331
Rotational constants in MHz :         25875.954413         21621.826273         13980.264709

                             ****ORCA TERMINATED NORMALLY****
TOTAL RUN TIME: 0 days 0 hours 1 minutes 34 seconds 342 msec
