                         Program Version 6.0.0  -   RELEASE  -
|  1> ! Engrad def2-TZVPPD wB97M-D3BJ
|  2> %pal nprocs 8 end%pal nprocs 64 end
|  3> %tddft
|  4>  Iroot 1 Nroots 3
|  5> sf true
|  6> end
|  7> *xyz 0 3
|  8> O   -0.51462106 0.00587917 0.8162212
|  9> C   0.49559934 0.53911488 0.05933583
| 10> C   1.34372692 -0.38396416 -0.71340117
| 11> H   1.15136105 1.06741276 0.77792285
| 12> H   0.04129798 1.38330522 -0.72510021
| 13> H   1.53246188 -1.39236927 -0.20463228
| 14> H   1.48973082 -0.24101868 -1.7715593
| 15> *
| 16>
| 17>                          ****END OF INPUT****

CARTESIAN COORDINATES (ANGSTROEM)
---------------------------------
  O     -0.514621    0.005879    0.816221
  C      0.495599    0.539115    0.059336
  C      1.343727   -0.383964   -0.713401
  H      1.151361    1.067413    0.777923
  H      0.041298    1.383305   -0.725100
  H      1.532462   -1.392369   -0.204632
  H      1.489731   -0.241019   -1.771559

 Total Charge           Charge          ....    0
 Multiplicity           Mult            ....    3
 Number of Electrons    NEL             ....   24
 Basis Dimension        Dim             ....  182

ORBITAL ENERGIES
----------------
                 SPIN UP ORBITALS
  NO   OCC          E(Eh)            E(eV)
   0   1.0000     -19.394712      -527.7569
   1   1.0000     -10.425521      -283.6928
   2   1.0000     -10.374750      -282.3113
   3   1.0000      -1.171432       -31.8763
   4   1.0000      -0.879376       -23.9290
   5   1.0000      -0.722048       -19.6479
   6   1.0000      -0.609812       -16.5938
   7   1.0000      -0.587701       -15.9922
   8   1.0000      -0.557736       -15.1768
   9   1.0000      -0.506431       -13.7807
  10   1.0000      -0.444496       -12.0954
  11   1.0000      -0.410514       -11.1706
  12   1.0000      -0.327362        -8.9080
  13   0.0000       0.041204         1.1212
  14   0.0000       0.060721         1.6523
  15   0.0000       0.075468         2.0536
  16   0.0000       0.086173         2.3449
  17   0.0000       0.110539         3.0079

                 SPIN DOWN ORBITALS
  NO   OCC          E(Eh)            E(eV)
   0   1.0000     -19.370861      -527.1079
   1   1.0000     -10.426942      -283.7315
   2   1.0000     -10.361317      -281.9458
   3   1.0000      -1.117258       -30.4021
   4   1.0000      -0.846262       -23.0279
   5   1.0000      -0.693032       -18.8584
   6   1.0000      -0.582486       -15.8503
   7   1.0000      -0.544852       -14.8262
   8   1.0000      -0.531012       -14.4496
   9   1.0000      -0.483991       -13.1701
  10   1.0000      -0.382400       -10.4056
  11   0.0000      -0.058248        -1.5850
  12   0.0000      -0.004529        -0.1233
  13   0.0000       0.040482         1.1016
  14   0.0000       0.061248         1.6666
  15   0.0000       0.075537         2.0555

----------------------------------------------------------------------------------------------------
          SPIN FLIP ABSORPTION SPECTRUM VIA TRANSITION ELECTRIC DIPOLE MOMENTS
----------------------------------------------------------------------------------------------------
     Transition      Energy     Energy  Wavelength fosc(D2)      D2        DX        DY        DZ
                      (eV)      (cm-1)    (nm)                 (au**2)    (au)      (au)      (au)
----------------------------------------------------------------------------------------------------
  1-3A  ->  2-3A    0.221562    1787.0  5595.9   0.000394101   0.07260  -0.15986   0.04061   0.21307
  1-3A  ->  3-3A    0.875576    7062.0  1416.0   0.016451718   0.76694   0.70605   0.00523  -0.51808

Dispersion correction             ... done (  0.2 sec)

MULLIKEN ATOMIC CHARGES AND SPIN DENSITIES
------------------------------------------
   0 O :   -0.452411   -0.282994
   1 C :   -0.024495   -0.025661
   2 C :   -0.414862    0.245555
   3 H :    0.213513    0.085995
   4 H :    0.243398   -0.052697
   5 H :    0.235818    0.016229
   6 H :    0.199038    0.013573
Sum of atomic charges       :    0.0000000

LOEWDIN ATOMIC CHARGES AND SPIN DENSITIES
-----------------------------------------
   0 O :   -0.061550   -0.299149
   1 C :   -0.333822    0.017755
   2 C :    0.293540    0.235734
   3 H :    0.027456    0.037980
   4 H :    0.125786   -0.043654
   5 H :    0.005543    0.022996
   6 H :   -0.056953    0.028338

  Mayer bond orders larger than 0.100000
B(  0-O ,  1-C ) :   0.9974 B(  0-O ,  2-C ) :   0.2823 B(  1-C ,  2-C ) :   0.8678
B(  1-C ,  3-H ) :   0.9630 B(  1-C ,  4-H ) :   0.8784 B(  2-C ,  5-H ) :   0.9652
B(  2-C ,  6-H ) :   0.9918

Dispersion correction           -0.005497334
FINAL SINGLE POINT ENERGY      -153.747612835597

DIPOLE MOMENT
-------------

Method             : TDA/CIS
Type of density    : Electron Density
Level              : Relaxed density
State              :   1
Multiplicity       :   3
Irrep              :   0
Energy             :     0.0000000000000000 Eh
Relativity type    :
Basis              : AO
                                X                 Y                 Z
Electronic contribution:     -1.460365124      -0.275856027       1.222689395
Nuclear contribution   :      2.398093790       0.529012344      -2.071530425
                        -----------------------------------------
Total Dipole Moment    :      0.937728666       0.253156317      -0.848841030
                        -----------------------------------------
Magnitude (a.u.)       :      1.289943513
Magnitude (Debye)      :      3.278775842

Rotational constants in cm-1:             1.464375             0.340514             0.301468
Rotational constants in MHz :         43900.856361         10208.348638          9037.787335

                             ****ORCA TERMINATED NORMALLY****
TOTAL RUN TIME: 0 days 0 hours 0 minutes 27 seconds 490 msec
