                         Program Version 6.0.0  -   RELEASE  -
|  1> ! Engrad def2-TZVPPD wB97M-D3BJ
|  2> %pal nprocs 8 end%pal nprocs 32 end
|  3> %tddft Nroots 2 Iroot 1
|  4> sf true
|  5> end
|  6> *xyz 0 3
|  7> O   0.4140849 1.06391977 -0.01310988
|  8> C   0.61188311 -0.28163453 0.001385
|  9> C   -0.75652623 -0.75622882 0.00819875
| 10> H   1.20880391 -0.54911861 0.87600438
| 11> H   1.23333744 -0.54999431 -0.85114885
| 12> H   -1.30236316 -0.71313296 -0.91159776
| 13> H   -1.28762723 -0.72627003 0.94307816
| 14> *
| 15>
| 16>                          ****END OF INPUT****

CARTESIAN COORDINATES (ANGSTROEM)
---------------------------------
  O      0.414085    1.063920   -0.013110
  C      0.611883   -0.281635    0.001385
  C     -0.756526   -0.756229    0.008199
  H      1.208804   -0.549119    0.876004
  H      1.233337   -0.549994   -0.851149
  H     -1.302363   -0.713133   -0.911598
  H     -1.287627   -0.726270    0.943078

 Total Charge           Charge          ....    0
 Multiplicity           Mult            ....    3
 Number of Electrons    NEL             ....   24
 Basis Dimension        Dim             ....  182

ORBITAL ENERGIES
----------------
                 SPIN UP ORBITALS
  NO   OCC          E(Eh)            E(eV)
   0   1.0000     -19.393611      -527.7270
   1   1.0000     -10.406097      -283.1643
   2   1.0000     -10.353449      -281.7317
   3   1.0000      -1.184986       -32.2451
   4   1.0000      -0.872594       -23.7445
   5   1.0000      -0.742100       -20.1936
   6   1.0000      -0.632701       -17.2167
   7   1.0000      -0.589450       -16.0398
   8   1.0000      -0.549141       -14.9429
   9   1.0000      -0.519132       -14.1263
  10   1.0000      -0.439457       -11.9582
  11   1.0000      -0.427963       -11.6455
  12   1.0000      -0.311638        -8.4801
  13   0.0000       0.041406         1.1267
  14   0.0000       0.063214         1.7201
  15   0.0000       0.074950         2.0395
  16   0.0000       0.087283         2.3751
  17   0.0000       0.117104         3.1866

                 SPIN DOWN ORBITALS
  NO   OCC          E(Eh)            E(eV)
   0   1.0000     -19.367286      -527.0106
   1   1.0000     -10.407233      -283.1952
   2   1.0000     -10.340638      -281.3831
   3   1.0000      -1.127700       -30.6863
   4   1.0000      -0.838314       -22.8117
   5   1.0000      -0.719373       -19.5751
   6   1.0000      -0.595691       -16.2096
   7   1.0000      -0.557134       -15.1604
   8   1.0000      -0.525867       -14.3096
   9   1.0000      -0.483881       -13.1671
  10   1.0000      -0.386343       -10.5129
  11   0.0000      -0.059806        -1.6274
  12   0.0000       0.008732         0.2376
  13   0.0000       0.040347         1.0979
  14   0.0000       0.064107         1.7444
  15   0.0000       0.074659         2.0316

----------------------------------------------------------------------------------------------------
          SPIN FLIP ABSORPTION SPECTRUM VIA TRANSITION ELECTRIC DIPOLE MOMENTS
----------------------------------------------------------------------------------------------------
     Transition      Energy     Energy  Wavelength fosc(D2)      D2        DX        DY        DZ
                      (eV)      (cm-1)    (nm)                 (au**2)    (au)      (au)      (au)
----------------------------------------------------------------------------------------------------
  1-3A  ->  2-3A    0.965083    7783.9  1284.7   0.000144393   0.00611   0.00252  -0.00010   0.07811

Dispersion correction             ... done (  0.1 sec)

MULLIKEN ATOMIC CHARGES AND SPIN DENSITIES
------------------------------------------
   0 O :   -0.503935   -0.403815
   1 C :   -0.078769   -0.037129
   2 C :   -0.366537    0.298370
   3 H :    0.217661    0.036062
   4 H :    0.221857    0.034423
   5 H :    0.258108    0.036504
   6 H :    0.251616    0.035585
Sum of atomic charges       :    0.0000000

LOEWDIN ATOMIC CHARGES AND SPIN DENSITIES
-----------------------------------------
   0 O :   -0.058378   -0.408681
   1 C :   -0.351726    0.022305
   2 C :    0.400377    0.303150
   3 H :    0.020801    0.006455
   4 H :    0.018980    0.006952
   5 H :   -0.017585    0.035317
   6 H :   -0.012469    0.034502

  Mayer bond orders larger than 0.100000
B(  0-O ,  1-C ) :   0.7512 B(  0-O ,  2-C ) :   0.7333 B(  1-C ,  2-C ) :   0.7381
B(  1-C ,  3-H ) :   1.0144 B(  1-C ,  4-H ) :   1.0127 B(  2-C ,  5-H ) :   0.9417
B(  2-C ,  6-H ) :   0.9465

Dispersion correction           -0.005646956
FINAL SINGLE POINT ENERGY      -153.778357872271

DIPOLE MOMENT
-------------

Method             : TDA/CIS
Type of density    : Electron Density
Level              : Relaxed density
State              :   1
Multiplicity       :   3
Irrep              :   0
Energy             :     0.0000000000000000 Eh
Relativity type    :
Basis              : AO
                                X                 Y                 Z
Electronic contribution:      0.019449935       1.125321058      -0.037799956
Nuclear contribution   :     -0.537838733      -2.536632727       0.055895981
                        -----------------------------------------
Total Dipole Moment    :     -0.518388798      -1.411311669       0.018096025
                        -----------------------------------------
Magnitude (a.u.)       :      1.503613993
Magnitude (Debye)      :      3.821883039

Rotational constants in cm-1:             1.182709             0.424515             0.354966
Rotational constants in MHz :         35456.713527         12726.642852         10641.620869

                             ****ORCA TERMINATED NORMALLY****
TOTAL RUN TIME: 0 days 0 hours 0 minutes 15 seconds 706 msec
