                         Program Version 6.0.0  -   RELEASE  -
|  1> ! Opt wB97M-D3BJ def2-TZVPPD
|  2> %pal nprocs 8 end %pal nprocs 64 end
|  3> %geom
|  4> Constraints
|  5>     {A 2 1 0 100.9090909090909 C }
|  6> end
|  7> MaxIter 500
|  8> end
|  9> *xyz 0 1
| 10> O   -0.0007 0.8141 0.0
| 11> C   0.7509 -0.4065 0.0
| 12> C   -0.7502 -0.4076 0.0
| 13> H   1.2625 -0.6786 0.9136
| 14> H   1.2625 -0.6787 -0.9136
| 15> H   -1.2614 -0.6806 -0.9136
| 16> H   -1.2614 -0.6805 0.9136
| 17> *
| 18>
| 19>                          ****END OF INPUT****
 Total Charge           Charge          ....    0
 Multiplicity           Mult            ....    1
 Number of Electrons    NEL             ....   24
Dispersion correction           -0.005786701
FINAL SINGLE POINT ENERGY      -153.737946904986
Dispersion correction             ... done (  0.1 sec)
Dispersion correction           -0.005695479
FINAL SINGLE POINT ENERGY      -153.777014587951
Dispersion correction             ... done (  0.2 sec)
Dispersion correction           -0.005646495
FINAL SINGLE POINT ENERGY      -153.788691691980
Dispersion correction             ... done (  0.1 sec)
FINAL SINGLE POINT ENERGY      -153.793826782758
FINAL SINGLE POINT ENERGY      -153.795122319157
FINAL SINGLE POINT ENERGY      -153.795389644765
FINAL SINGLE POINT ENERGY      -153.795514917900
FINAL SINGLE POINT ENERGY      -153.795595938520
FINAL SINGLE POINT ENERGY      -153.795647801411
FINAL SINGLE POINT ENERGY      -153.795704450847
FINAL SINGLE POINT ENERGY      -153.795750044995
FINAL SINGLE POINT ENERGY      -153.795777990978
FINAL SINGLE POINT ENERGY      -153.795791176044
Dispersion correction             ... done (  0.1 sec)
Dispersion correction           -0.005649219
FINAL SINGLE POINT ENERGY      -153.795796145231
Dispersion correction             ... done (  0.1 sec)
Dispersion correction           -0.005650000
FINAL SINGLE POINT ENERGY      -153.795797423037
Dispersion correction             ... done (  0.1 sec)
                    ***********************HURRAY********************

CARTESIAN COORDINATES (ANGSTROEM)
---------------------------------
  O      0.422450    1.059002   -0.002845
  C      0.614424   -0.265890   -0.000562
  C     -0.745462   -0.738220    0.000801
  H      1.165301   -0.626989    0.881472
  H      1.165051   -0.630150   -0.881428
  H     -1.310484   -0.760177   -0.921747
  H     -1.309081   -0.755976    0.924309

 Multiplicity           Mult            ....    1
 Number of Electrons    NEL             ....   24
 Basis Dimension        Dim             ....  182

ORBITAL ENERGIES
----------------

  NO   OCC          E(Eh)            E(eV)
   0   2.0000     -19.328970      -525.9680
   1   2.0000     -10.446656      -284.2680
   2   2.0000     -10.397170      -282.9214
   3   2.0000      -1.127125       -30.6706
   4   2.0000      -0.883812       -24.0498
   5   2.0000      -0.733612       -19.9626
   6   2.0000      -0.624899       -17.0044
   7   2.0000      -0.573568       -15.6076
   8   2.0000      -0.517949       -14.0941
   9   2.0000      -0.512025       -13.9329
  10   2.0000      -0.368125       -10.0172
  11   2.0000      -0.353340        -9.6149
  12   0.0000      -0.060534        -1.6472
  13   0.0000       0.036266         0.9868
  14   0.0000       0.061242         1.6665
  15   0.0000       0.076324         2.0769
  16   0.0000       0.098341         2.6760

MULLIKEN ATOMIC CHARGES
-----------------------
   0 O :   -0.511036
   1 C :   -0.111370
   2 C :   -0.238638
   3 H :    0.213809
   4 H :    0.213907
   5 H :    0.216611
   6 H :    0.216717
Sum of atomic charges:    0.0000000

LOEWDIN ATOMIC CHARGES
----------------------
   0 O :   -0.017871
   1 C :   -0.404056
   2 C :    0.394226
   3 H :    0.022093
   4 H :    0.022093
   5 H :   -0.008238
   6 H :   -0.008248

  Mayer bond orders larger than 0.100000
B(  0-O ,  1-C ) :   0.7363 B(  0-O ,  2-C ) :   0.8909 B(  1-C ,  2-C ) :   0.7849
B(  1-C ,  3-H ) :   1.0418 B(  1-C ,  4-H ) :   1.0416 B(  2-C ,  5-H ) :   0.9677
B(  2-C ,  6-H ) :   0.9677

Dispersion correction           -0.005650455
FINAL SINGLE POINT ENERGY      -153.795797723836

DIPOLE MOMENT
-------------

Method             : SCF
Type of density    : Electron Density
Multiplicity       :   1
Irrep              :   0
Energy             :  -153.7901472687758258 Eh
Relativity type    :
Basis              : AO
                                X                 Y                 Z
Electronic contribution:      0.103110356       1.414102500      -0.003188433
Nuclear contribution   :     -0.683575186      -2.764672449       0.005826492
                        -----------------------------------------
Total Dipole Moment    :     -0.580464830      -1.350569949       0.002638059
                        -----------------------------------------
Magnitude (a.u.)       :      1.470029103
Magnitude (Debye)      :      3.736517035

Rotational constants in cm-1:             1.197630             0.427837             0.359362
Rotational constants in MHz :         35904.045175         12826.238137         10773.397393

                             ****ORCA TERMINATED NORMALLY****
TOTAL RUN TIME: 0 days 0 hours 3 minutes 46 seconds 55 msec
