                         Program Version 6.0.0  -   RELEASE  -
|  1> ! Opt wB97M-D3BJ def2-TZVPPD
|  2> %pal nprocs 8 end %pal nprocs 64 end
|  3> %geom
|  4> Constraints
|  5>     {A 2 1 0 60.0 C }
|  6> end
|  7> MaxIter 500
|  8> end
|  9> *xyz 0 1
| 10> O   -0.0007 0.8141 0.0
| 11> C   0.7509 -0.4065 0.0
| 12> C   -0.7502 -0.4076 0.0
| 13> H   1.2625 -0.6786 0.9136
| 14> H   1.2625 -0.6787 -0.9136
| 15> H   -1.2614 -0.6806 -0.9136
| 16> H   -1.2614 -0.6805 0.9136
| 17> *
| 18>
| 19>                          ****END OF INPUT****
 Total Charge           Charge          ....    0
 Multiplicity           Mult            ....    1
 Number of Electrons    NEL             ....   24
Dispersion correction           -0.005212811
FINAL SINGLE POINT ENERGY      -153.887398548733
Dispersion correction             ... done (  0.1 sec)
Dispersion correction           -0.005221446
FINAL SINGLE POINT ENERGY      -153.889340590717
Dispersion correction             ... done (  0.2 sec)
Dispersion correction           -0.005227416
FINAL SINGLE POINT ENERGY      -153.889578072404
Dispersion correction             ... done (  0.1 sec)
Dispersion correction           -0.005227298
FINAL SINGLE POINT ENERGY      -153.889586044154
Dispersion correction             ... done (  0.1 sec)
Dispersion correction           -0.005227395
FINAL SINGLE POINT ENERGY      -153.889589107392
Dispersion correction             ... done (  0.2 sec)
                    ***********************HURRAY********************

CARTESIAN COORDINATES (ANGSTROEM)
---------------------------------
  O      0.007209    0.786993   -0.000045
  C      0.726657   -0.433455    0.000112
  C     -0.729701   -0.446650   -0.000112
  H      1.260752   -0.654825    0.916100
  H      1.260557   -0.654879   -0.916001
  H     -1.261741   -0.657843   -0.918235
  H     -1.261532   -0.657742    0.918180

 Multiplicity           Mult            ....    1
 Number of Electrons    NEL             ....   24
 Basis Dimension        Dim             ....  182

ORBITAL ENERGIES
----------------

  NO   OCC          E(Eh)            E(eV)
   0   2.0000     -19.351969      -526.5939
   1   2.0000     -10.399593      -282.9873
   2   2.0000     -10.399004      -282.9713
   3   2.0000      -1.208141       -32.8752
   4   2.0000      -0.805377       -21.9154
   5   2.0000      -0.756588       -20.5878
   6   2.0000      -0.631641       -17.1878
   7   2.0000      -0.595351       -16.2003
   8   2.0000      -0.504198       -13.7199
   9   2.0000      -0.490378       -13.3439
  10   2.0000      -0.424209       -11.5433
  11   2.0000      -0.385535       -10.4910
  12   0.0000       0.042635         1.1602
  13   0.0000       0.058746         1.5985
  14   0.0000       0.075254         2.0478
  15   0.0000       0.077964         2.1215
  16   0.0000       0.114032         3.1030

MULLIKEN ATOMIC CHARGES
-----------------------
   0 O :   -0.382338
   1 C :   -0.165067
   2 C :   -0.176102
   3 H :    0.181251
   4 H :    0.181151
   5 H :    0.180558
   6 H :    0.180548
Sum of atomic charges:   -0.0000000

LOEWDIN ATOMIC CHARGES
----------------------
   0 O :   -0.031371
   1 C :   -0.020390
   2 C :    0.007118
   3 H :    0.012139
   4 H :    0.012133
   5 H :    0.010188
   6 H :    0.010183

  Mayer bond orders larger than 0.100000
B(  0-O ,  1-C ) :   0.8208 B(  0-O ,  2-C ) :   0.8316 B(  1-C ,  2-C ) :   0.8199
B(  1-C ,  3-H ) :   1.0185 B(  1-C ,  4-H ) :   1.0186 B(  2-C ,  5-H ) :   1.0143
B(  2-C ,  6-H ) :   1.0143

Dispersion correction           -0.005227449
FINAL SINGLE POINT ENERGY      -153.889589183604

DIPOLE MOMENT
-------------

Method             : SCF
Type of density    : Electron Density
Multiplicity       :   1
Irrep              :   0
Energy             :  -153.8843617344185759 Eh
Relativity type    :
Basis              : AO
                                X                 Y                 Z
Electronic contribution:      0.000289045       1.637804247      -0.000070231
Nuclear contribution   :     -0.008303167      -2.397797610       0.000098338
                        -----------------------------------------
Total Dipole Moment    :     -0.008014122      -0.759993363       0.000028106
                        -----------------------------------------
Magnitude (a.u.)       :      0.760035617
Magnitude (Debye)      :      1.931857011

Rotational constants in cm-1:             0.857347             0.747194             0.475654
Rotational constants in MHz :         25702.610497         22400.309308         14259.740992

                             ****ORCA TERMINATED NORMALLY****
TOTAL RUN TIME: 0 days 0 hours 1 minutes 20 seconds 977 msec
