                         Program Version 6.0.0  -   RELEASE  -
|  1> ! opt def2-TZVPPD wB97M-D3BJ
|  2> %pal nprocs 24 end%geom Constraints
|  3> {B 9 8 2.8000000000000003 C}
|  4> {A 8 9 11 43.14285714285714 C}
|  5>  end
|  6>  end
|  7> *xyz 0 1
|  8> O   2.98579685529314 0.88758230159078 -0.86184571092411
|  9> O   -0.03983205397054 0.68929041702508 -2.10362336723772
| 10> O   0.93431434349854 -3.13274393337945 -0.68767288184107
| 11> O   -3.75829998830163 -0.84727300865116 -0.0472717177755
| 12> N   0.21184538946282 -1.54604804365365 0.7617588924445
| 13> N   -2.13631993928911 0.03188773433438 1.27350571071531
| 14> N   2.02598672506387 -1.14318467211666 -0.64531219127023
| 15> N   -1.91814233924584 0.03137116037665 -1.04498946748291
| 16> C   1.18097737274226 0.71693507080484 0.70173889017321
| 17> C   -0.20686880480777 1.27024627933494 0.21345042231937
| 18> C   0.41441080275909 -0.34173258966541 1.52336266615173
| 19> C   -0.82922175114212 0.58960593673968 1.44434972027296
| 20> C   1.92822011286806 1.69488653817281 1.5963734975385
| 21> C   -0.37809776891576 2.77134929626422 0.04819649358288
| 22> C   2.1403947470937 0.1972384729179 -0.35038567829864
| 23> C   -0.67361678962426 0.6214190571346 -1.0793014500539
| 24> C   1.04142578622994 -2.02697492875068 -0.21027082435993
| 25> C   -2.68467002550422 -0.30396816036989 0.07167054343891
| 26> H   0.80817443950001 -0.54572267081061 2.51895215321335
| 27> H   -0.83785272399001 1.27240685039143 2.28901317073582
| 28> H   2.31167340578204 2.52284411740894 1.00913016264629
| 29> H   1.28982602448342 2.08257620823614 2.38710022492991
| 30> H   2.77390820759972 1.19140411795486 2.06045858523949
| 31> H   -1.41857211141493 3.00964947214868 -0.16882755561625
| 32> H   -0.09065531563179 3.29799318042223 0.95389844358819
| 33> H   0.23426221611057 3.12492645074476 -0.77764887675592
| 34> H   -0.46772570547622 -2.21560145172536 1.0787081584806
| 35> H   -2.71769301149571 -0.17090724573546 2.06627440900372
| 36> H   2.60065167263658 -1.49057255715425 -1.3966820077142
| 37> H   -2.27169977231386 -0.32388339999036 -1.91951041514436
| 38> *
| 39>
| 40>                          ****END OF INPUT****
 Total Charge           Charge          ....    0
 Multiplicity           Mult            ....    1
 Number of Electrons    NEL             ....  132
Dispersion correction           -0.054058204
FINAL SINGLE POINT ENERGY      -908.571395800351
Dispersion correction             ... done (  0.0 sec)
Dispersion correction           -0.054302334
FINAL SINGLE POINT ENERGY      -908.615422892911
Dispersion correction             ... done (  0.0 sec)
Dispersion correction           -0.054653658
FINAL SINGLE POINT ENERGY      -908.645446014614
Dispersion correction             ... done (  0.1 sec)
FINAL SINGLE POINT ENERGY      -908.677326388587
FINAL SINGLE POINT ENERGY      -908.706658619551
FINAL SINGLE POINT ENERGY      -908.720714612134
FINAL SINGLE POINT ENERGY      -908.730831636618
FINAL SINGLE POINT ENERGY      -908.735705086917
FINAL SINGLE POINT ENERGY      -908.737799581540
FINAL SINGLE POINT ENERGY      -908.739028333852
FINAL SINGLE POINT ENERGY      -908.875435315110
FINAL SINGLE POINT ENERGY      -908.876710411811
FINAL SINGLE POINT ENERGY      -908.877400680296
FINAL SINGLE POINT ENERGY      -908.877636400372
FINAL SINGLE POINT ENERGY      -908.877792166905
FINAL SINGLE POINT ENERGY      -908.877839450806
FINAL SINGLE POINT ENERGY      -908.877862397589
Dispersion correction             ... done (  0.0 sec)
Dispersion correction           -0.062514284
FINAL SINGLE POINT ENERGY      -908.877868562073
Dispersion correction             ... done (  0.0 sec)
Dispersion correction           -0.062515290
FINAL SINGLE POINT ENERGY      -908.877873744616
Dispersion correction             ... done (  0.0 sec)
                    ***********************HURRAY********************

CARTESIAN COORDINATES (ANGSTROEM)
---------------------------------
  O      2.764356    1.647264    0.814368
  O     -1.982530    0.198759   -2.174366
  O      1.572624   -1.498349   -2.224655
  O     -3.203157   -0.249686    2.173414
  N      0.577503   -1.522474   -0.172457
  N     -1.441877    1.094496    1.653455
  N      2.265742   -0.015888   -0.636650
  N     -2.475373   -0.130712    0.012242
  C      1.019556    0.159114    1.422773
  C     -0.609158    1.276067   -0.562097
  C      0.492061   -1.048340    1.098508
  C     -0.424982    1.435193    0.758278
  C      1.129645    0.568748    2.870375
  C      0.194661    1.977690   -1.614842
  C      2.088302    0.677935    0.546629
  C     -1.707673    0.438976   -1.016876
  C      1.475314   -1.042027   -1.114523
  C     -2.438201    0.203362    1.348402
  H     -0.142497   -1.603698    1.771681
  H      0.232339    2.215009    1.113884
  H      0.970479    1.637553    3.003845
  H      0.415889    0.020425    3.480574
  H      2.130247    0.361143    3.241147
  H     -0.431357    2.703725   -2.132798
  H      1.038135    2.507880   -1.178764
  H      0.552139    1.283527   -2.373174
  H      0.036594   -2.315618   -0.472264
  H     -1.333027    1.283588    2.632772
  H      2.937423    0.357760   -1.288528
  H     -3.250577   -0.706422   -0.275753

 Multiplicity           Mult            ....    1
 Number of Electrons    NEL             ....  132
 Basis Dimension        Dim             ....  882

ORBITAL ENERGIES
----------------

  NO   OCC          E(Eh)            E(eV)
   0   2.0000     -19.341044      -526.2966
   1   2.0000     -19.337334      -526.1956
   2   2.0000     -19.320683      -525.7425
   3   2.0000     -19.313042      -525.5346
   4   2.0000     -14.600010      -397.2865
   5   2.0000     -14.581370      -396.7793
   6   2.0000     -14.569632      -396.4598
   7   2.0000     -14.563537      -396.2940
   8   2.0000     -10.523261      -286.3525
   9   2.0000     -10.506591      -285.8989
  10   2.0000     -10.494050      -285.5576
  11   2.0000     -10.469222      -284.8820
  12   2.0000     -10.441397      -284.1249
  13   2.0000     -10.436131      -283.9816
  14   2.0000     -10.400946      -283.0241
  15   2.0000     -10.377830      -282.3951
  16   2.0000     -10.366038      -282.0742
  17   2.0000     -10.350173      -281.6425
  18   2.0000      -1.239279       -33.7225
  19   2.0000      -1.219349       -33.1802
  20   2.0000      -1.210554       -32.9408
  21   2.0000      -1.183600       -32.2074
  22   2.0000      -1.138506       -30.9803
  23   2.0000      -1.115801       -30.3625
  24   2.0000      -1.084959       -29.5232
  25   2.0000      -1.062384       -28.9089
  26   2.0000      -0.979932       -26.6653
  27   2.0000      -0.951100       -25.8807
  28   2.0000      -0.866431       -23.5768
  29   2.0000      -0.844980       -22.9931
  30   2.0000      -0.826371       -22.4867
  31   2.0000      -0.808711       -22.0061
  32   2.0000      -0.804085       -21.8803
  33   2.0000      -0.785411       -21.3721
  34   2.0000      -0.713378       -19.4120
  35   2.0000      -0.709929       -19.3182
  36   2.0000      -0.687242       -18.7008
  37   2.0000      -0.683790       -18.6069
  38   2.0000      -0.658150       -17.9092
  39   2.0000      -0.653516       -17.7831
  40   2.0000      -0.636075       -17.3085
  41   2.0000      -0.610149       -16.6030
  42   2.0000      -0.603493       -16.4219
  43   2.0000      -0.594693       -16.1824
  44   2.0000      -0.575349       -15.6560
  45   2.0000      -0.569781       -15.5045
  46   2.0000      -0.567308       -15.4372
  47   2.0000      -0.555291       -15.1102
  48   2.0000      -0.550036       -14.9672
  49   2.0000      -0.539717       -14.6865
  50   2.0000      -0.534579       -14.5466
  51   2.0000      -0.534238       -14.5374
  52   2.0000      -0.519768       -14.1436
  53   2.0000      -0.511384       -13.9155
  54   2.0000      -0.509427       -13.8622
  55   2.0000      -0.501045       -13.6341
  56   2.0000      -0.492199       -13.3934
  57   2.0000      -0.460094       -12.5198
  58   2.0000      -0.429710       -11.6930
  59   2.0000      -0.415778       -11.3139
  60   2.0000      -0.411708       -11.2031
  61   2.0000      -0.403956       -10.9922
  62   2.0000      -0.397167       -10.8075
  63   2.0000      -0.378631       -10.3031
  64   2.0000      -0.366992        -9.9864
  65   2.0000      -0.316814        -8.6209
  66   0.0000      -0.016474        -0.4483
  67   0.0000       0.013787         0.3752
  68   0.0000       0.027589         0.7507
  69   0.0000       0.034086         0.9275
  70   0.0000       0.039909         1.0860

MULLIKEN ATOMIC CHARGES
-----------------------
   0 O :   -0.655698
   1 O :   -0.682840
   2 O :   -0.625287
   3 O :   -0.672655
   4 N :    0.063854
   5 N :   -0.097884
   6 N :    0.013873
   7 N :    0.053524
   8 C :    1.432559
   9 C :    0.593743
  10 C :   -0.421633
  11 C :   -0.270897
  12 C :   -1.570418
  13 C :   -1.653478
  14 C :    0.132757
  15 C :    0.216375
  16 C :    0.402052
  17 C :    0.416749
  18 H :    0.232729
  19 H :    0.789743
  20 H :    0.350223
  21 H :    0.378034
  22 H :    0.380370
  23 H :    0.410821
  24 H :    0.302658
  25 H :    0.257967
  26 H :    0.034733
  27 H :    0.109720
  28 H :    0.048244
  29 H :    0.030062
Sum of atomic charges:    0.0000000

LOEWDIN ATOMIC CHARGES
----------------------
   0 O :    0.106363
   1 O :    0.086667
   2 O :    0.114323
   3 O :    0.076212
   4 N :    0.311231
   5 N :    0.285637
   6 N :    0.346001
   7 N :    0.337199
   8 C :   -0.222459
   9 C :   -0.132454
  10 C :    0.057333
  11 C :   -0.035189
  12 C :    0.185591
  13 C :    0.188869
  14 C :   -0.414597
  15 C :   -0.400650
  16 C :   -0.462275
  17 C :   -0.486805
  18 H :    0.048871
  19 H :    0.046613
  20 H :    0.000360
  21 H :    0.002989
  22 H :    0.010719
  23 H :    0.007348
  24 H :   -0.006507
  25 H :   -0.006177
  26 H :   -0.003166
  27 H :   -0.032035
  28 H :    0.001288
  29 H :   -0.011299

  Mayer bond orders larger than 0.100000
B(  0-O , 14-C ) :   1.4930 B(  1-O , 15-C ) :   1.4204 B(  2-O , 16-C ) :   1.5447
B(  3-O , 17-C ) :   1.5833 B(  4-N , 10-C ) :   0.9905 B(  4-N , 16-C ) :   0.9969
B(  4-N , 26-H ) :   1.1174 B(  5-N ,  8-C ) :   0.1048 B(  5-N ,  9-C ) :  -0.1563
B(  5-N , 11-C ) :   0.8459 B(  5-N , 17-C ) :   1.0832 B(  5-N , 27-H ) :   1.0630
B(  6-N , 14-C ) :   1.0139 B(  6-N , 16-C ) :   0.9492 B(  6-N , 28-H ) :   1.0685
B(  7-N ,  9-C ) :  -0.2279 B(  7-N , 11-C ) :   0.1481 B(  7-N , 15-C ) :   1.1156
B(  7-N , 17-C ) :   0.9469 B(  7-N , 29-H ) :   1.1050 B(  8-C ,  9-C ) :   0.1418
B(  8-C , 10-C ) :   0.6273 B(  8-C , 11-C ) :  -0.5295 B(  8-C , 12-C ) :   0.2556
B(  8-C , 14-C ) :   0.5653 B(  8-C , 18-H ) :  -0.1454 B(  8-C , 21-H ) :  -0.1090
B(  9-C , 10-C ) :   0.3387 B(  9-C , 11-C ) :   0.5725 B(  9-C , 13-C ) :   0.2001
B(  9-C , 14-C ) :   0.1523 B(  9-C , 15-C ) :   0.5253 B(  9-C , 24-H ) :  -0.1400
B(  9-C , 25-H ) :  -0.1080 B( 10-C , 16-C ) :  -0.1008 B( 10-C , 18-H ) :   1.1736
B( 11-C , 12-C ) :   0.1315 B( 11-C , 13-C ) :  -0.2409 B( 11-C , 14-C ) :   0.1045
B( 11-C , 15-C ) :   0.1914 B( 11-C , 19-H ) :   0.4717 B( 12-C , 19-H ) :  -0.1100
B( 12-C , 20-H ) :   0.8840 B( 12-C , 21-H ) :   0.9923 B( 12-C , 22-H ) :   0.8689
B( 13-C , 23-H ) :   0.8257 B( 13-C , 24-H ) :   1.0711 B( 13-C , 25-H ) :   0.9764

Dispersion correction           -0.062500331
FINAL SINGLE POINT ENERGY      -908.877876077353

DIPOLE MOMENT
-------------

Method             : SCF
Type of density    : Electron Density
Multiplicity       :   1
Irrep              :   0
Energy             :  -908.8153757465940998 Eh
Relativity type    :
Basis              : AO
                                X                 Y                 Z
Electronic contribution:     -2.693957202      -4.881884205      -3.669070215
Nuclear contribution   :      3.427447316       4.695627059       5.158479534
                        -----------------------------------------
Total Dipole Moment    :      0.733490114      -0.186257146       1.489409319
                        -----------------------------------------
Magnitude (a.u.)       :      1.670640473
Magnitude (Debye)      :      4.246430614

Rotational constants in cm-1:             0.020393             0.015067             0.011916
Rotational constants in MHz :           611.379342           451.689826           357.233791

                             ****ORCA TERMINATED NORMALLY****
TOTAL RUN TIME: 0 days 3 hours 39 minutes 50 seconds 762 msec
