                         Program Version 6.0.0  -   RELEASE  -
|  1> ! Opt wB97M-D3BJ def2-TZVPPD
|  2> %pal nprocs 8 end %pal nprocs 64 end
|  3> %geom
|  4> Constraints
|  5>     {A 2 1 0 107.28813559322035 C }
|  6> end
|  7> MaxIter 200
|  8> end
|  9> *xyz 0 1
| 10> O   1.1758842798337752 0.9624979115740712 0.0
| 11> C   0.7509 -0.4065 0.0
| 12> C   -0.7502 -0.4076 0.0
| 13> H   1.2625 -0.6786 0.9136
| 14> H   1.2625 -0.6787 -0.9136
| 15> H   -1.2614 -0.6806 -0.9136
| 16> H   -1.2614 -0.6805 0.9136
| 17> *
| 18>
| 19>                          ****END OF INPUT****
 Total Charge           Charge          ....    0
 Multiplicity           Mult            ....    1
 Number of Electrons    NEL             ....   24
Dispersion correction           -0.005461979
FINAL SINGLE POINT ENERGY      -153.732569740801
Dispersion correction             ... done (  0.1 sec)
Dispersion correction           -0.005533682
FINAL SINGLE POINT ENERGY      -153.753337210386
Dispersion correction             ... done (  0.1 sec)
Dispersion correction           -0.005590133
FINAL SINGLE POINT ENERGY      -153.765394076121
Dispersion correction             ... done (  0.1 sec)
FINAL SINGLE POINT ENERGY      -153.775263371777
FINAL SINGLE POINT ENERGY      -153.778282141059
FINAL SINGLE POINT ENERGY      -153.778456863855
Dispersion correction             ... done (  0.1 sec)
Dispersion correction           -0.005610208
FINAL SINGLE POINT ENERGY      -153.778466487207
Dispersion correction             ... done (  0.1 sec)
Dispersion correction           -0.005609187
FINAL SINGLE POINT ENERGY      -153.778467365013
Dispersion correction             ... done (  0.1 sec)
                    ***********************HURRAY********************

CARTESIAN COORDINATES (ANGSTROEM)
---------------------------------
  O      0.928734    1.012480    0.013186
  C      0.785116   -0.320652    0.000702
  C     -0.636966   -0.600687    0.000505
  H      1.256149   -0.805744    0.872259
  H      1.251763   -0.784717   -0.883895
  H     -1.202678   -0.558664   -0.922795
  H     -1.203334   -0.512018    0.920039

 Multiplicity           Mult            ....    1
 Number of Electrons    NEL             ....   24
 Basis Dimension        Dim             ....  182

ORBITAL ENERGIES
----------------

  NO   OCC          E(Eh)            E(eV)
   0   2.0000     -19.322677      -525.7968
   1   2.0000     -10.455761      -284.5157
   2   2.0000     -10.397394      -282.9275
   3   2.0000      -1.117244       -30.4017
   4   2.0000      -0.891591       -24.2614
   5   2.0000      -0.734023       -19.9738
   6   2.0000      -0.625779       -17.0283
   7   2.0000      -0.570372       -15.5206
   8   2.0000      -0.516739       -14.0612
   9   2.0000      -0.513183       -13.9644
  10   2.0000      -0.358805        -9.7636
  11   2.0000      -0.347538        -9.4570
  12   0.0000      -0.079039        -2.1508
  13   0.0000       0.033769         0.9189
  14   0.0000       0.061400         1.6708
  15   0.0000       0.075890         2.0651
  16   0.0000       0.099143         2.6978

MULLIKEN ATOMIC CHARGES
-----------------------
   0 O :   -0.515792
   1 C :   -0.135509
   2 C :   -0.188155
   3 H :    0.204811
   4 H :    0.204789
   5 H :    0.211205
   6 H :    0.218650
Sum of atomic charges:   -0.0000000

LOEWDIN ATOMIC CHARGES
----------------------
   0 O :   -0.025947
   1 C :   -0.418736
   2 C :    0.420832
   3 H :    0.020214
   4 H :    0.020097
   5 H :   -0.007874
   6 H :   -0.008587

  Mayer bond orders larger than 0.100000
B(  0-O ,  1-C ) :   0.8001 B(  0-O ,  2-C ) :   0.8306 B(  1-C ,  2-C ) :   0.8023
B(  1-C ,  3-H ) :   1.0405 B(  1-C ,  4-H ) :   1.0404 B(  2-C ,  5-H ) :   0.9710
B(  2-C ,  6-H ) :   0.9692

Dispersion correction           -0.005609101
FINAL SINGLE POINT ENERGY      -153.778467484937

DIPOLE MOMENT
-------------

Method             : SCF
Type of density    : Electron Density
Multiplicity       :   1
Irrep              :   0
Energy             :  -153.7728583839854650 Eh
Relativity type    :
Basis              : AO
                                X                 Y                 Z
Electronic contribution:      0.368134360       1.373594815       0.015121574
Nuclear contribution   :     -1.322382717      -2.691178921      -0.031348325
                        -----------------------------------------
Total Dipole Moment    :     -0.954248357      -1.317584106      -0.016226751
                        -----------------------------------------
Magnitude (a.u.)       :      1.626923819
Magnitude (Debye)      :      4.135311708

Rotational constants in cm-1:             1.296656             0.391841             0.340609
Rotational constants in MHz :         38872.763668         11747.090612         10211.192128

                             ****ORCA TERMINATED NORMALLY****
TOTAL RUN TIME: 0 days 0 hours 2 minutes 0 seconds 126 msec
