                         Program Version 6.0.0  -   RELEASE  -
|  1> ! Engrad def2-TZVPPD wB97M-D3BJ
|  2> %pal nprocs 8 end%pal nprocs 64 end
|  3> %tddft
|  4> Iroot 2 Nroots 3
|  5> sf true
|  6> end
|  7> *xyz 0 3
|  8> O   2.741822041553462 1.0066420615562444 -0.5793522141619738
|  9> O   -0.5553230467023189 0.9845490774257587 -2.3354510756056874
| 10> O   0.5116199086674353 -2.855959181761223 -1.2119186343692983
| 11> O   -2.800157856073363 -1.535406109033391 0.5953214569888527
| 12> N   0.4833533758883673 -1.9146159827558895 0.7997945817440625
| 13> N   -2.0202255080373215 0.3753629058838975 1.316230404077555
| 14> N   1.635586143534244 -0.925958060929473 -0.8684831949218491
| 15> N   -1.6155779856336008 -0.2949311239069703 -0.833852388871468
| 16> C   1.4761066855057743 0.21486326495635966 1.1579139803658094
| 17> C   -0.7238117044644797 1.740991760009047 -0.12261172901063151
| 18> C   0.6746031273757985 -0.8119261428428604 1.5893429473301808
| 19> C   -1.1220924570611661 1.3636334270728692 1.1346065504699807
| 20> C   1.9409098764804733 1.2083764024958576 2.0717441973191866
| 21> C   -0.3717211873127815 3.0906262766661965 -0.39615765611602033
| 22> C   2.02197830268015 0.15509414285389012 -0.14962888192435497
| 23> C   -0.9330053919570139 0.8272555573939598 -1.208801846903862
| 24> C   0.8509225660677656 -1.9630085917771174 -0.49215937017667394
| 25> C   -2.1770141371127663 -0.5443100313716597 0.36950955591267004
| 26> H   0.5822267188178869 -1.019729587047608 2.640674122697773
| 27> H   -1.153750260189798 2.101919830206303 1.91189147949333
| 28> H   1.88995888759026 2.1928347573227547 1.6137293293280661
| 29> H   1.3965235996718324 1.286618585742525 3.013287136197152
| 30> H   2.9743942741111287 1.138562563864142 2.403970412702952
| 31> H   -1.2020777415752497 3.5174918075605293 -0.9603674139761383
| 32> H   -0.1338170036734174 3.7693599307247307 0.4131684350556818
| 33> H   0.48627420435242613 3.155568692383026 -1.0623640474693088
| 34> H   -0.16482689542615409 -2.627837911946832 1.0689991917855637
| 35> H   -2.4076903769508258 0.20069910234405192 2.2183472308900813
| 36> H   1.9155017932188716 -0.9418408148371556 -1.8343596166938756
| 37> H   -1.748089953345632 -0.9799266082520274 -1.5584229421577522
| 38> *
| 39>
| 40>                          ****END OF INPUT****

CARTESIAN COORDINATES (ANGSTROEM)
---------------------------------
  O      2.741822    1.006642   -0.579352
  O     -0.555323    0.984549   -2.335451
  O      0.511620   -2.855959   -1.211919
  O     -2.800158   -1.535406    0.595321
  N      0.483353   -1.914616    0.799795
  N     -2.020226    0.375363    1.316230
  N      1.635586   -0.925958   -0.868483
  N     -1.615578   -0.294931   -0.833852
  C      1.476107    0.214863    1.157914
  C     -0.723812    1.740992   -0.122612
  C      0.674603   -0.811926    1.589343
  C     -1.122092    1.363633    1.134607
  C      1.940910    1.208376    2.071744
  C     -0.371721    3.090626   -0.396158
  C      2.021978    0.155094   -0.149629
  C     -0.933005    0.827256   -1.208802
  C      0.850923   -1.963009   -0.492159
  C     -2.177014   -0.544310    0.369510
  H      0.582227   -1.019730    2.640674
  H     -1.153750    2.101920    1.911891
  H      1.889959    2.192835    1.613729
  H      1.396524    1.286619    3.013287
  H      2.974394    1.138563    2.403970
  H     -1.202078    3.517492   -0.960367
  H     -0.133817    3.769360    0.413168
  H      0.486274    3.155569   -1.062364
  H     -0.164827   -2.627838    1.068999
  H     -2.407690    0.200699    2.218347
  H      1.915502   -0.941841   -1.834360
  H     -1.748090   -0.979927   -1.558423

 Total Charge           Charge          ....    0
 Multiplicity           Mult            ....    3
 Number of Electrons    NEL             ....  132
 Basis Dimension        Dim             ....  882

ORBITAL ENERGIES
----------------
                 SPIN UP ORBITALS
  NO   OCC          E(Eh)            E(eV)
   0   1.0000     -19.322993      -525.8054
   1   1.0000     -19.319636      -525.7140
   2   1.0000     -19.315800      -525.6096
   3   1.0000     -19.312264      -525.5134
   4   1.0000     -14.582656      -396.8143
   5   1.0000     -14.577461      -396.6729
   6   1.0000     -14.562334      -396.2613
   7   1.0000     -14.555725      -396.0814
   8   1.0000     -10.500725      -285.7393
   9   1.0000     -10.499676      -285.7107
  10   1.0000     -10.463913      -284.7376
  11   1.0000     -10.459152      -284.6080
  12   1.0000     -10.434200      -283.9290
  13   1.0000     -10.398149      -282.9480
  14   1.0000     -10.395107      -282.8652
  15   1.0000     -10.375945      -282.3438
  16   1.0000     -10.358540      -281.8702
  17   1.0000     -10.351885      -281.6891
  18   1.0000      -1.244529       -33.8654
  19   1.0000      -1.233646       -33.5692
  20   1.0000      -1.201792       -32.7024
  21   1.0000      -1.197761       -32.5927
  22   1.0000      -1.136643       -30.9296
  23   1.0000      -1.127064       -30.6690
  24   1.0000      -1.079654       -29.3789
  25   1.0000      -1.077570       -29.3222
  26   1.0000      -0.982992       -26.7486
  27   1.0000      -0.964164       -26.2362
  28   1.0000      -0.859569       -23.3900
  29   1.0000      -0.854933       -23.2639
  30   1.0000      -0.824236       -22.4286
  31   1.0000      -0.817758       -22.2523
  32   1.0000      -0.805253       -21.9121
  33   1.0000      -0.800063       -21.7708
  34   1.0000      -0.707671       -19.2567
  35   1.0000      -0.703827       -19.1521
  36   1.0000      -0.700795       -19.0696
  37   1.0000      -0.695387       -18.9224
  38   1.0000      -0.659443       -17.9443
  39   1.0000      -0.640741       -17.4354
  40   1.0000      -0.638450       -17.3731
  41   1.0000      -0.609017       -16.5722
  42   1.0000      -0.596244       -16.2246
  43   1.0000      -0.592823       -16.1315
  44   1.0000      -0.583482       -15.8774
  45   1.0000      -0.570108       -15.5134
  46   1.0000      -0.564246       -15.3539
  47   1.0000      -0.556868       -15.1532
  48   1.0000      -0.551311       -15.0019
  49   1.0000      -0.549198       -14.9444
  50   1.0000      -0.539343       -14.6763
  51   1.0000      -0.537695       -14.6314
  52   1.0000      -0.534914       -14.5558
  53   1.0000      -0.513602       -13.9758
  54   1.0000      -0.504045       -13.7158
  55   1.0000      -0.493009       -13.4155
  56   1.0000      -0.491428       -13.3724
  57   1.0000      -0.469070       -12.7640
  58   1.0000      -0.418149       -11.3784
  59   1.0000      -0.411445       -11.1960
  60   1.0000      -0.411125       -11.1873
  61   1.0000      -0.400449       -10.8968
  62   1.0000      -0.388035       -10.5590
  63   1.0000      -0.382966       -10.4210
  64   1.0000      -0.378431       -10.2976
  65   1.0000      -0.333596        -9.0776
  66   1.0000      -0.223202        -6.0736
  67   0.0000       0.007738         0.2105
  68   0.0000       0.012116         0.3297
  69   0.0000       0.030819         0.8386
  70   0.0000       0.037038         1.0078
  71   0.0000       0.039448         1.0734

                 SPIN DOWN ORBITALS
  NO   OCC          E(Eh)            E(eV)
   0   1.0000     -19.321063      -525.7528
   1   1.0000     -19.315551      -525.6029
   2   1.0000     -19.314964      -525.5869
   3   1.0000     -19.311893      -525.5033
   4   1.0000     -14.579132      -396.7184
   5   1.0000     -14.577109      -396.6633
   6   1.0000     -14.562360      -396.2620
   7   1.0000     -14.554812      -396.0566
   8   1.0000     -10.500848      -285.7426
   9   1.0000     -10.499684      -285.7109
  10   1.0000     -10.463872      -284.7364
  11   1.0000     -10.459240      -284.6104
  12   1.0000     -10.433439      -283.9083
  13   1.0000     -10.388287      -282.6797
  14   1.0000     -10.383894      -282.5601
  15   1.0000     -10.375655      -282.3359
  16   1.0000     -10.358844      -281.8785
  17   1.0000     -10.351815      -281.6872
  18   1.0000      -1.240607       -33.7586
  19   1.0000      -1.233051       -33.5530
  20   1.0000      -1.197603       -32.5884
  21   1.0000      -1.194571       -32.5059
  22   1.0000      -1.128601       -30.7108
  23   1.0000      -1.125290       -30.6207
  24   1.0000      -1.077251       -29.3135
  25   1.0000      -1.074966       -29.2513
  26   1.0000      -0.967247       -26.3201
  27   1.0000      -0.956911       -26.0389
  28   1.0000      -0.854135       -23.2422
  29   1.0000      -0.846214       -23.0267
  30   1.0000      -0.819047       -22.2874
  31   1.0000      -0.812264       -22.1028
  32   1.0000      -0.800053       -21.7705
  33   1.0000      -0.799324       -21.7507
  34   1.0000      -0.701065       -19.0769
  35   1.0000      -0.700136       -19.0517
  36   1.0000      -0.694504       -18.8984
  37   1.0000      -0.690692       -18.7947
  38   1.0000      -0.649045       -17.6614
  39   1.0000      -0.637278       -17.3412
  40   1.0000      -0.634591       -17.2681
  41   1.0000      -0.600964       -16.3531
  42   1.0000      -0.591889       -16.1061
  43   1.0000      -0.587414       -15.9843
  44   1.0000      -0.567317       -15.4375
  45   1.0000      -0.564371       -15.3573
  46   1.0000      -0.561382       -15.2760
  47   1.0000      -0.549851       -14.9622
  48   1.0000      -0.548073       -14.9138
  49   1.0000      -0.541566       -14.7368
  50   1.0000      -0.535788       -14.5795
  51   1.0000      -0.529971       -14.4212
  52   1.0000      -0.523805       -14.2535
  53   1.0000      -0.507466       -13.8089
  54   1.0000      -0.495575       -13.4853
  55   1.0000      -0.492554       -13.4031
  56   1.0000      -0.471966       -12.8429
  57   1.0000      -0.450128       -12.2486
  58   1.0000      -0.413890       -11.2625
  59   1.0000      -0.410590       -11.1727
  60   1.0000      -0.399135       -10.8610
  61   1.0000      -0.389864       -10.6087
  62   1.0000      -0.382256       -10.4017
  63   1.0000      -0.380944       -10.3660
  64   1.0000      -0.336246        -9.1497
  65   0.0000      -0.091978        -2.5029
  66   0.0000       0.008118         0.2209
  67   0.0000       0.013861         0.3772
  68   0.0000       0.028378         0.7722
  69   0.0000       0.036014         0.9800

----------------------------------------------------------------------------------------------------
          SPIN FLIP ABSORPTION SPECTRUM VIA TRANSITION ELECTRIC DIPOLE MOMENTS
----------------------------------------------------------------------------------------------------
     Transition      Energy     Energy  Wavelength fosc(D2)      D2        DX        DY        DZ
                      (eV)      (cm-1)    (nm)                 (au**2)    (au)      (au)      (au)
----------------------------------------------------------------------------------------------------
  1-3A  ->  2-3A    3.373321   27207.7   367.5   0.000600801   0.00727   0.02290  -0.07295  -0.03774
  1-3A  ->  3-1A    4.310268   34764.7   287.6   0.142431770   1.34879  -0.37506  -0.21322   1.07827

Dispersion correction             ... done (  0.1 sec)

MULLIKEN ATOMIC CHARGES AND SPIN DENSITIES
------------------------------------------
   0 O :   -0.688361   -0.003485
   1 O :   -0.689804    0.003521
   2 O :   -0.653396    0.000949
   3 O :   -0.653658    0.001950
   4 N :   -0.052737    0.002276
   5 N :   -0.037025    0.012735
   6 N :    0.041075   -0.004536
   7 N :    0.048025   -0.001236
   8 C :    0.909937    0.008624
   9 C :    1.093493    0.133892
  10 C :   -0.009799   -0.054407
  11 C :   -0.083878    0.037556
  12 C :   -1.553398    0.013125
  13 C :   -1.504667    0.009271
  14 C :    0.420829    0.027914
  15 C :    0.312504   -0.163551
  16 C :    0.420325    0.002982
  17 C :    0.325618   -0.005791
  18 H :    0.209918    0.003096
  19 H :    0.101573   -0.039640
  20 H :    0.259601    0.000426
  21 H :    0.316435   -0.001227
  22 H :    0.355996   -0.001265
  23 H :    0.367140    0.005974
  24 H :    0.358391   -0.003179
  25 H :    0.294538    0.009023
  26 H :    0.039368    0.000230
  27 H :    0.053588    0.002987
  28 H :   -0.002473   -0.000110
  29 H :    0.000841    0.001894
Sum of atomic charges       :    0.0000000

LOEWDIN ATOMIC CHARGES AND SPIN DENSITIES
-----------------------------------------
   0 O :    0.118461   -0.001848
   1 O :    0.110300    0.003234
   2 O :    0.110650    0.000701
   3 O :    0.116962    0.000987
   4 N :    0.292688    0.001411
   5 N :    0.292371    0.008867
   6 N :    0.358073   -0.000615
   7 N :    0.338251   -0.003506
   8 C :   -0.172393   -0.000107
   9 C :   -0.118468    0.006148
  10 C :    0.080921    0.001150
  11 C :   -0.001225   -0.009685
  12 C :    0.148621   -0.001056
  13 C :    0.192955    0.001684
  14 C :   -0.455297   -0.001051
  15 C :   -0.457277   -0.002780
  16 C :   -0.523759    0.000095
  17 C :   -0.543644   -0.002184
  18 H :    0.043880   -0.000027
  19 H :    0.009649   -0.003619
  20 H :   -0.001279   -0.000145
  21 H :    0.003916   -0.000424
  22 H :    0.011913   -0.000161
  23 H :    0.027648    0.001123
  24 H :    0.005860   -0.000058
  25 H :    0.021767    0.000945
  26 H :   -0.015557    0.000134
  27 H :   -0.003413    0.001202
  28 H :    0.007336   -0.000094
  29 H :    0.000091   -0.000322

  Mayer bond orders larger than 0.100000
B(  0-O , 14-C ) :   1.3575 B(  1-O , 15-C ) :   1.2700 B(  2-O , 16-C ) :   1.5261
B(  3-O , 17-C ) :   1.5343 B(  4-N ,  8-C ) :   0.1269 B(  4-N , 10-C ) :   0.7220
B(  4-N , 16-C ) :   0.9962 B(  4-N , 26-H ) :   1.1243 B(  5-N ,  9-C ) :   0.1233
B(  5-N , 11-C ) :   0.7023 B(  5-N , 17-C ) :   1.0783 B(  5-N , 27-H ) :   1.1033
B(  6-N ,  8-C ) :  -0.1269 B(  6-N , 14-C ) :   1.0786 B(  6-N , 15-C ) :   0.1132
B(  6-N , 16-C ) :   0.9362 B(  6-N , 28-H ) :   1.1273 B(  7-N , 15-C ) :   0.8971
B(  7-N , 17-C ) :   0.9480 B(  7-N , 29-H ) :   1.1441 B(  8-C ,  9-C ) :   0.1914
B(  8-C , 10-C ) :   1.0032 B(  8-C , 11-C ) :  -0.1068 B(  8-C , 12-C ) :   0.1324
B(  8-C , 14-C ) :   0.7170 B(  8-C , 20-H ) :  -0.1067 B(  8-C , 21-H ) :  -0.1490
B(  9-C , 11-C ) :   0.4814 B(  9-C , 13-C ) :   0.3547 B(  9-C , 15-C ) :   0.6996
B(  9-C , 17-C ) :   0.1088 B(  9-C , 25-H ) :  -0.1357 B( 10-C , 18-H ) :   1.0432
B( 11-C , 13-C ) :  -0.1043 B( 11-C , 15-C ) :  -0.1115 B( 11-C , 17-C ) :  -0.2045
B( 11-C , 19-H ) :   1.1784 B( 12-C , 20-H ) :   0.9797 B( 12-C , 21-H ) :   1.0653
B( 12-C , 22-H ) :   0.8571 B( 13-C , 15-C ) :  -0.1147 B( 13-C , 23-H ) :   0.8036
B( 13-C , 24-H ) :   0.9429 B( 13-C , 25-H ) :   1.0331

Dispersion correction           -0.061307693
FINAL SINGLE POINT ENERGY      -908.738176393342

DIPOLE MOMENT
-------------

Method             : TDA/CIS
Type of density    : Electron Density
Level              : Relaxed density
State              :   2
Multiplicity       :   3
Irrep              :   0
Energy             :     0.0000000000000000 Eh
Relativity type    :
Basis              : AO
                                X                 Y                 Z
Electronic contribution:     -2.806084604     -10.176738856      -6.295946022
Nuclear contribution   :      2.308622199      11.091955221       8.905860904
                        -----------------------------------------
Total Dipole Moment    :     -0.497462405       0.915216364       2.609914882
                        -----------------------------------------
Magnitude (a.u.)       :      2.810114861
Magnitude (Debye)      :      7.142744333

Rotational constants in cm-1:             0.018002             0.016832             0.013709
Rotational constants in MHz :           539.678353           504.599989           410.972429

                             ****ORCA TERMINATED NORMALLY****
TOTAL RUN TIME: 0 days 0 hours 6 minutes 34 seconds 17 msec
