                         Program Version 6.0.0  -   RELEASE  -
|  1> ! Engrad def2-TZVPPD wB97M-D3BJ
|  2> %pal nprocs 8 end%pal nprocs 64 end
|  3> %tddft
|  4>  Iroot 2 Nroots 3
|  5> sf true
|  6> end
|  7> *xyz 0 3
|  8> O   2.27389346 -0.7965067 -2.45332297
|  9> O   -1.55387044 1.61246531 -1.6752257
| 10> O   -1.30285463 -2.70990191 -0.73525844
| 11> O   -2.99024827 0.81078226 2.38304163
| 12> N   0.06767522 -1.6088632 0.69377601
| 13> N   -0.7223849 0.73884098 2.09104448
| 14> N   0.37898907 -1.46046707 -1.63181827
| 15> N   -2.10906902 0.62231701 0.22511163
| 16> C   2.01418318 -0.71017923 -0.05458231
| 17> C   0.13502005 1.48324903 0.01209176
| 18> C   1.05427491 -0.71509007 1.06432159
| 19> C   0.49703068 0.80813691 1.27908836
| 20> C   3.37863631 -0.28147559 0.2349301
| 21> C   1.11488378 2.30914443 -0.62394871
| 22> C   1.63347862 -0.95266166 -1.45528777
| 23> C   -1.18939797 1.31128592 -0.59562185
| 24> C   -0.39034341 -1.94972383 -0.6104842
| 25> C   -2.03462106 0.72381138 1.61133024
| 26> H   1.57293121 -0.93117427 1.99880476
| 27> H   1.24128885 1.35368077 1.83641447
| 28> H   3.9939397 -0.10453372 -0.61948584
| 29> H   3.38310731 0.694961 0.7650505
| 30> H   3.80653996 -0.95666329 0.9038691
| 31> H   0.82711136 2.59116117 -1.63370414
| 32> H   1.38982607 3.28694594 -0.07140889
| 33> H   2.08543745 1.73851612 -0.6897675
| 34> H   -0.58123999 -1.90971504 1.35429265
| 35> H   -0.70282089 1.00441722 3.0779307
| 36> H   0.15355683 -1.79378667 -2.52035789
| 37> H   -3.02887606 0.5764875 -0.15091909
| 38> *
| 39>
| 40>                          ****END OF INPUT****

CARTESIAN COORDINATES (ANGSTROEM)
---------------------------------
  O      2.273893   -0.796507   -2.453323
  O     -1.553870    1.612465   -1.675226
  O     -1.302855   -2.709902   -0.735258
  O     -2.990248    0.810782    2.383042
  N      0.067675   -1.608863    0.693776
  N     -0.722385    0.738841    2.091044
  N      0.378989   -1.460467   -1.631818
  N     -2.109069    0.622317    0.225112
  C      2.014183   -0.710179   -0.054582
  C      0.135020    1.483249    0.012092
  C      1.054275   -0.715090    1.064322
  C      0.497031    0.808137    1.279088
  C      3.378636   -0.281476    0.234930
  C      1.114884    2.309144   -0.623949
  C      1.633479   -0.952662   -1.455288
  C     -1.189398    1.311286   -0.595622
  C     -0.390343   -1.949724   -0.610484
  C     -2.034621    0.723811    1.611330
  H      1.572931   -0.931174    1.998805
  H      1.241289    1.353681    1.836414
  H      3.993940   -0.104534   -0.619486
  H      3.383107    0.694961    0.765050
  H      3.806540   -0.956663    0.903869
  H      0.827111    2.591161   -1.633704
  H      1.389826    3.286946   -0.071409
  H      2.085437    1.738516   -0.689767
  H     -0.581240   -1.909715    1.354293
  H     -0.702821    1.004417    3.077931
  H      0.153557   -1.793787   -2.520358
  H     -3.028876    0.576488   -0.150919

 Total Charge           Charge          ....    0
 Multiplicity           Mult            ....    3
 Number of Electrons    NEL             ....  132
 Basis Dimension        Dim             ....  882

ORBITAL ENERGIES
----------------
                 SPIN UP ORBITALS
  NO   OCC          E(Eh)            E(eV)
   0   1.0000     -19.337660      -526.2045
   1   1.0000     -19.333926      -526.1029
   2   1.0000     -19.322260      -525.7854
   3   1.0000     -19.320006      -525.7241
   4   1.0000     -14.559034      -396.1715
   5   1.0000     -14.558673      -396.1616
   6   1.0000     -14.554328      -396.0434
   7   1.0000     -14.546287      -395.8246
   8   1.0000     -10.505728      -285.8754
   9   1.0000     -10.504919      -285.8534
  10   1.0000     -10.481500      -285.2161
  11   1.0000     -10.480896      -285.1997
  12   1.0000     -10.442801      -284.1631
  13   1.0000     -10.440278      -284.0944
  14   1.0000     -10.416106      -283.4367
  15   1.0000     -10.413662      -283.3702
  16   1.0000     -10.376683      -282.3639
  17   1.0000     -10.370042      -282.1832
  18   1.0000      -1.232617       -33.5412
  19   1.0000      -1.229613       -33.4595
  20   1.0000      -1.209030       -32.8994
  21   1.0000      -1.194795       -32.5120
  22   1.0000      -1.119706       -30.4688
  23   1.0000      -1.096128       -29.8272
  24   1.0000      -1.073698       -29.2168
  25   1.0000      -1.052122       -28.6297
  26   1.0000      -0.984894       -26.8003
  27   1.0000      -0.960787       -26.1443
  28   1.0000      -0.885548       -24.0970
  29   1.0000      -0.842614       -22.9287
  30   1.0000      -0.827904       -22.5284
  31   1.0000      -0.807394       -21.9703
  32   1.0000      -0.786556       -21.4033
  33   1.0000      -0.771342       -20.9893
  34   1.0000      -0.702492       -19.1158
  35   1.0000      -0.693144       -18.8614
  36   1.0000      -0.688775       -18.7425
  37   1.0000      -0.678257       -18.4563
  38   1.0000      -0.659167       -17.9369
  39   1.0000      -0.648980       -17.6596
  40   1.0000      -0.625795       -17.0287
  41   1.0000      -0.604436       -16.4475
  42   1.0000      -0.593749       -16.1567
  43   1.0000      -0.589213       -16.0333
  44   1.0000      -0.582652       -15.8548
  45   1.0000      -0.572763       -15.5857
  46   1.0000      -0.567457       -15.4413
  47   1.0000      -0.564309       -15.3556
  48   1.0000      -0.562320       -15.3015
  49   1.0000      -0.556415       -15.1408
  50   1.0000      -0.548928       -14.9371
  51   1.0000      -0.539628       -14.6840
  52   1.0000      -0.537125       -14.6159
  53   1.0000      -0.527545       -14.3552
  54   1.0000      -0.519478       -14.1357
  55   1.0000      -0.509624       -13.8676
  56   1.0000      -0.492118       -13.3912
  57   1.0000      -0.428954       -11.6724
  58   1.0000      -0.423825       -11.5329
  59   1.0000      -0.411999       -11.2111
  60   1.0000      -0.405306       -11.0289
  61   1.0000      -0.397423       -10.8144
  62   1.0000      -0.394200       -10.7267
  63   1.0000      -0.390850       -10.6356
  64   1.0000      -0.377255       -10.2656
  65   1.0000      -0.338807        -9.2194
  66   1.0000      -0.326528        -8.8853
  67   0.0000       0.007690         0.2093
  68   0.0000       0.030762         0.8371
  69   0.0000       0.031645         0.8611
  70   0.0000       0.036496         0.9931
  71   0.0000       0.054835         1.4921

                 SPIN DOWN ORBITALS
  NO   OCC          E(Eh)            E(eV)
   0   1.0000     -19.333972      -526.1041
   1   1.0000     -19.330172      -526.0007
   2   1.0000     -19.322126      -525.7818
   3   1.0000     -19.319737      -525.7168
   4   1.0000     -14.558382      -396.1537
   5   1.0000     -14.558090      -396.1458
   6   1.0000     -14.553920      -396.0323
   7   1.0000     -14.546018      -395.8173
   8   1.0000     -10.505747      -285.8759
   9   1.0000     -10.504965      -285.8546
  10   1.0000     -10.482388      -285.2403
  11   1.0000     -10.481801      -285.2243
  12   1.0000     -10.442271      -284.1486
  13   1.0000     -10.439973      -284.0861
  14   1.0000     -10.404709      -283.1265
  15   1.0000     -10.402531      -283.0673
  16   1.0000     -10.377314      -282.3811
  17   1.0000     -10.370609      -282.1986
  18   1.0000      -1.229769       -33.4637
  19   1.0000      -1.224959       -33.3328
  20   1.0000      -1.206004       -32.8170
  21   1.0000      -1.193559       -32.4784
  22   1.0000      -1.116637       -30.3852
  23   1.0000      -1.093607       -29.7586
  24   1.0000      -1.071789       -29.1649
  25   1.0000      -1.050484       -28.5851
  26   1.0000      -0.971394       -26.4330
  27   1.0000      -0.944343       -25.6969
  28   1.0000      -0.880892       -23.9703
  29   1.0000      -0.836209       -22.7544
  30   1.0000      -0.819978       -22.3127
  31   1.0000      -0.801408       -21.8074
  32   1.0000      -0.785078       -21.3631
  33   1.0000      -0.769815       -20.9477
  34   1.0000      -0.696374       -18.9493
  35   1.0000      -0.687989       -18.7211
  36   1.0000      -0.681972       -18.5574
  37   1.0000      -0.672616       -18.3028
  38   1.0000      -0.647911       -17.6305
  39   1.0000      -0.642131       -17.4733
  40   1.0000      -0.619870       -16.8675
  41   1.0000      -0.599879       -16.3235
  42   1.0000      -0.588985       -16.0271
  43   1.0000      -0.580702       -15.8017
  44   1.0000      -0.573596       -15.6083
  45   1.0000      -0.566911       -15.4264
  46   1.0000      -0.562234       -15.2992
  47   1.0000      -0.559951       -15.2370
  48   1.0000      -0.554463       -15.0877
  49   1.0000      -0.551276       -15.0010
  50   1.0000      -0.537370       -14.6226
  51   1.0000      -0.533162       -14.5081
  52   1.0000      -0.528815       -14.3898
  53   1.0000      -0.518850       -14.1186
  54   1.0000      -0.511203       -13.9106
  55   1.0000      -0.502793       -13.6817
  56   1.0000      -0.487324       -13.2608
  57   1.0000      -0.423825       -11.5329
  58   1.0000      -0.420110       -11.4318
  59   1.0000      -0.403899       -10.9906
  60   1.0000      -0.394805       -10.7432
  61   1.0000      -0.390621       -10.6293
  62   1.0000      -0.387845       -10.5538
  63   1.0000      -0.387148       -10.5348
  64   1.0000      -0.364369        -9.9150
  65   0.0000      -0.057825        -1.5735
  66   0.0000      -0.055229        -1.5029
  67   0.0000       0.007084         0.1928
  68   0.0000       0.030180         0.8212
  69   0.0000       0.031360         0.8533

----------------------------------------------------------------------------------------------------
          SPIN FLIP ABSORPTION SPECTRUM VIA TRANSITION ELECTRIC DIPOLE MOMENTS
----------------------------------------------------------------------------------------------------
     Transition      Energy     Energy  Wavelength fosc(D2)      D2        DX        DY        DZ
                      (eV)      (cm-1)    (nm)                 (au**2)    (au)      (au)      (au)
----------------------------------------------------------------------------------------------------
  1-3A  ->  2-3A    0.031743     256.0  39058.9   0.000000591   0.00076   0.01927  -0.01198  -0.01567
  1-3A  ->  3-1A    2.126963   17155.1   582.9   0.000964176   0.01850   0.00520  -0.09747   0.09473

Dispersion correction             ... done (  0.1 sec)

MULLIKEN ATOMIC CHARGES AND SPIN DENSITIES
------------------------------------------
   0 O :   -0.676822   -0.134124
   1 O :   -0.619614    0.129858
   2 O :   -0.636054   -0.005050
   3 O :   -0.664907    0.003158
   4 N :   -0.304792   -0.027646
   5 N :   -0.276962    0.014972
   6 N :    0.105898   -0.007143
   7 N :    0.132525    0.018086
   8 C :    0.821845    0.248782
   9 C :   -0.056376    0.344412
  10 C :    0.035462   -0.241921
  11 C :    0.521992    0.032713
  12 C :   -1.475276   -0.047394
  13 C :   -1.304367    0.062857
  14 C :    0.146656   -0.612039
  15 C :    0.456160    0.140339
  16 C :    0.385959    0.028099
  17 C :    0.317075   -0.004586
  18 H :    0.499130    0.001357
  19 H :    0.595400    0.009183
  20 H :    0.279557   -0.007548
  21 H :    0.377973   -0.003189
  22 H :    0.441856   -0.005539
  23 H :    0.294903    0.007955
  24 H :    0.324135    0.032255
  25 H :    0.193565    0.015060
  26 H :   -0.040103    0.003420
  27 H :    0.086232    0.000907
  28 H :   -0.010734    0.004277
  29 H :    0.049684   -0.001509
Sum of atomic charges       :   -0.0000000

LOEWDIN ATOMIC CHARGES AND SPIN DENSITIES
-----------------------------------------
   0 O :    0.107579   -0.119807
   1 O :    0.141111    0.113089
   2 O :    0.113488   -0.005015
   3 O :    0.065210    0.003125
   4 N :    0.287422   -0.003387
   5 N :    0.262399    0.003865
   6 N :    0.349674   -0.010863
   7 N :    0.327559    0.016876
   8 C :   -0.019075   -0.468901
   9 C :   -0.061953    0.466990
  10 C :   -0.129520   -0.023458
  11 C :   -0.071365    0.015402
  12 C :    0.185253   -0.074477
  13 C :    0.167377    0.080387
  14 C :   -0.433812   -0.087448
  15 C :   -0.409888    0.080238
  16 C :   -0.449392    0.000022
  17 C :   -0.448322    0.000889
  18 H :    0.063374   -0.002547
  19 H :    0.044427    0.002758
  20 H :   -0.002188    0.001094
  21 H :    0.021324   -0.021189
  22 H :   -0.023813   -0.017234
  23 H :    0.002944   -0.000219
  24 H :    0.059763    0.032310
  25 H :    0.006486    0.017456
  26 H :   -0.070858   -0.000243
  27 H :   -0.019737   -0.000065
  28 H :   -0.036434   -0.001187
  29 H :   -0.029032    0.001537

  Mayer bond orders larger than 0.100000
B(  0-O , 14-C ) :   1.3515 B(  1-O , 15-C ) :   1.3477 B(  2-O , 16-C ) :   1.5476
B(  3-O , 17-C ) :   1.5596 B(  4-N ,  8-C ) :   0.2614 B(  4-N ,  9-C ) :   0.1438
B(  4-N , 10-C ) :   0.2991 B(  4-N , 16-C ) :   0.9753 B(  4-N , 18-H ) :  -0.1151
B(  4-N , 26-H ) :   1.1898 B(  5-N ,  9-C ) :   0.2068 B(  5-N , 10-C ) :   0.1930
B(  5-N , 11-C ) :   0.2480 B(  5-N , 17-C ) :   1.1161 B(  5-N , 27-H ) :   1.0955
B(  6-N , 10-C ) :   0.1077 B(  6-N , 14-C ) :   1.0079 B(  6-N , 16-C ) :   0.9895
B(  6-N , 28-H ) :   1.1049 B(  7-N ,  9-C ) :  -0.1285 B(  7-N , 11-C ) :   0.2079
B(  7-N , 15-C ) :   0.9892 B(  7-N , 17-C ) :   1.0387 B(  7-N , 29-H ) :   1.0287
B(  8-C ,  9-C ) :   0.1537 B(  8-C , 10-C ) :   0.4647 B(  8-C , 11-C ) :   0.2212
B(  8-C , 12-C ) :   0.3896 B(  8-C , 14-C ) :   0.3968 B(  8-C , 16-C ) :   0.1392
B(  8-C , 18-H ) :  -0.1042 B(  8-C , 20-H ) :  -0.1121 B(  9-C , 10-C ) :   0.2393
B(  9-C , 11-C ) :  -0.1413 B(  9-C , 13-C ) :   0.6022 B(  9-C , 15-C ) :   0.7269
B(  9-C , 19-H ) :  -0.1241 B( 10-C , 11-C ) :   0.4404 B( 10-C , 16-C ) :  -0.1994
B( 10-C , 18-H ) :   0.8641 B( 10-C , 26-H ) :  -0.1014 B( 11-C , 13-C ) :  -0.1648
B( 11-C , 17-C ) :  -0.1722 B( 11-C , 19-H ) :   0.8001 B( 12-C , 20-H ) :   1.0868
B( 12-C , 21-H ) :   0.7442 B( 12-C , 22-H ) :   0.8807 B( 13-C , 23-H ) :   1.0642
B( 13-C , 24-H ) :   0.8846 B( 13-C , 25-H ) :   0.9860

Dispersion correction           -0.059866022
FINAL SINGLE POINT ENERGY      -908.775637382622

DIPOLE MOMENT
-------------

Method             : TDA/CIS
Type of density    : Electron Density
Level              : Relaxed density
State              :   2
Multiplicity       :   3
Irrep              :   0
Energy             :     0.0000000000000000 Eh
Relativity type    :
Basis              : AO
                                X                 Y                 Z
Electronic contribution:    -11.057959173      -4.909432162      -2.534736698
Nuclear contribution   :     13.276541972       5.690676772       4.217334649
                        -----------------------------------------
Total Dipole Moment    :      2.218582799       0.781244610       1.682597950
                        -----------------------------------------
Magnitude (a.u.)       :      2.891986971
Magnitude (Debye)      :      7.350846698

Rotational constants in cm-1:             0.021452             0.013263             0.012333
Rotational constants in MHz :           643.105552           397.613046           369.741531

                             ****ORCA TERMINATED NORMALLY****
TOTAL RUN TIME: 0 days 0 hours 5 minutes 4 seconds 409 msec
