                         Program Version 6.0.0  -   RELEASE  -
|  1> ! Engrad def2-TZVPPD wB97M-D3BJ
|  2> %pal nprocs 8 end%pal nprocs 64 end
|  3> %tddft
|  4>  Iroot 2 Nroots 3
|  5> sf true
|  6> end
|  7> *xyz 0 3
|  8> O   2.62983154 -0.5367657 -2.29530673
|  9> O   -2.15074795 1.02276858 -1.68276392
| 10> O   -0.97373521 -2.8106357 -0.84302936
| 11> O   -2.52343308 0.39160649 2.90382964
| 12> N   0.13545599 -1.49577434 0.66745798
| 13> N   -0.65495479 1.21422265 1.99781944
| 14> N   0.75694755 -1.54572483 -1.56695031
| 15> N   -2.3339448 0.53190562 0.6044594
| 16> C   2.09007552 -0.38869048 0.02493463
| 17> C   -0.24733633 1.30218455 -0.36765984
| 18> C   0.99500191 -0.45943766 1.02264212
| 19> C   0.31446952 0.99032265 0.97606258
| 20> C   3.33741163 0.35145358 0.19111241
| 21> C   0.58554503 1.97429778 -1.37323092
| 22> C   1.87177717 -0.83437569 -1.32927233
| 23> C   -1.65745304 0.95653361 -0.53997226
| 24> C   -0.11840471 -2.0020209 -0.57275229
| 25> C   -1.9018052 0.66856088 1.91809535
| 26> H   1.4219262 -0.72181038 2.03521492
| 27> H   1.16554064 1.58727592 1.20265563
| 28> H   4.03497634 -0.02529299 -0.50687958
| 29> H   3.3332723 1.48374287 -0.0490064
| 30> H   3.71651916 0.34052878 1.22736716
| 31> H   0.02144409 2.12792754 -2.28577652
| 32> H   1.00106045 2.98946654 -0.9829991
| 33> H   1.35850971 1.37905502 -1.70945024
| 34> H   -0.57019682 -1.83131158 1.35735587
| 35> H   -0.27185306 1.19781277 2.87625574
| 36> H   0.5240153 -1.73144613 -2.53342185
| 37> H   -3.26168267 0.10537175 0.55390681
| 38> *
| 39>
| 40>                          ****END OF INPUT****

CARTESIAN COORDINATES (ANGSTROEM)
---------------------------------
  O      2.629832   -0.536766   -2.295307
  O     -2.150748    1.022769   -1.682764
  O     -0.973735   -2.810636   -0.843029
  O     -2.523433    0.391606    2.903830
  N      0.135456   -1.495774    0.667458
  N     -0.654955    1.214223    1.997819
  N      0.756948   -1.545725   -1.566950
  N     -2.333945    0.531906    0.604459
  C      2.090076   -0.388690    0.024935
  C     -0.247336    1.302185   -0.367660
  C      0.995002   -0.459438    1.022642
  C      0.314470    0.990323    0.976063
  C      3.337412    0.351454    0.191112
  C      0.585545    1.974298   -1.373231
  C      1.871777   -0.834376   -1.329272
  C     -1.657453    0.956534   -0.539972
  C     -0.118405   -2.002021   -0.572752
  C     -1.901805    0.668561    1.918095
  H      1.421926   -0.721810    2.035215
  H      1.165541    1.587276    1.202656
  H      4.034976   -0.025293   -0.506880
  H      3.333272    1.483743   -0.049006
  H      3.716519    0.340529    1.227367
  H      0.021444    2.127928   -2.285777
  H      1.001060    2.989467   -0.982999
  H      1.358510    1.379055   -1.709450
  H     -0.570197   -1.831312    1.357356
  H     -0.271853    1.197813    2.876256
  H      0.524015   -1.731446   -2.533422
  H     -3.261683    0.105372    0.553907

 Total Charge           Charge          ....    0
 Multiplicity           Mult            ....    3
 Number of Electrons    NEL             ....  132
 Basis Dimension        Dim             ....  882

ORBITAL ENERGIES
----------------
                 SPIN UP ORBITALS
  NO   OCC          E(Eh)            E(eV)
   0   1.0000     -19.338917      -526.2387
   1   1.0000     -19.331448      -526.0354
   2   1.0000     -19.328698      -525.9606
   3   1.0000     -19.324439      -525.8447
   4   1.0000     -14.573804      -396.5734
   5   1.0000     -14.567766      -396.4091
   6   1.0000     -14.567632      -396.4054
   7   1.0000     -14.556437      -396.1008
   8   1.0000     -10.510786      -286.0130
   9   1.0000     -10.510329      -286.0006
  10   1.0000     -10.489945      -285.4459
  11   1.0000     -10.480255      -285.1822
  12   1.0000     -10.450011      -284.3593
  13   1.0000     -10.436629      -283.9951
  14   1.0000     -10.419272      -283.5228
  15   1.0000     -10.418616      -283.5049
  16   1.0000     -10.376126      -282.3487
  17   1.0000     -10.365618      -282.0628
  18   1.0000      -1.232242       -33.5310
  19   1.0000      -1.224085       -33.3091
  20   1.0000      -1.189380       -32.3647
  21   1.0000      -1.183214       -32.1969
  22   1.0000      -1.131958       -30.8021
  23   1.0000      -1.112193       -30.2643
  24   1.0000      -1.074161       -29.2294
  25   1.0000      -1.068055       -29.0633
  26   1.0000      -0.988769       -26.9058
  27   1.0000      -0.957225       -26.0474
  28   1.0000      -0.892200       -24.2780
  29   1.0000      -0.849029       -23.1033
  30   1.0000      -0.829579       -22.5740
  31   1.0000      -0.813351       -22.1324
  32   1.0000      -0.794683       -21.6244
  33   1.0000      -0.788499       -21.4562
  34   1.0000      -0.709225       -19.2990
  35   1.0000      -0.702064       -19.1041
  36   1.0000      -0.696342       -18.9484
  37   1.0000      -0.682999       -18.5854
  38   1.0000      -0.662458       -18.0264
  39   1.0000      -0.647370       -17.6158
  40   1.0000      -0.630724       -17.1629
  41   1.0000      -0.602344       -16.3906
  42   1.0000      -0.598474       -16.2853
  43   1.0000      -0.589708       -16.0468
  44   1.0000      -0.576417       -15.6851
  45   1.0000      -0.574044       -15.6205
  46   1.0000      -0.569753       -15.5038
  47   1.0000      -0.566453       -15.4140
  48   1.0000      -0.560814       -15.2605
  49   1.0000      -0.555054       -15.1038
  50   1.0000      -0.550722       -14.9859
  51   1.0000      -0.539249       -14.6737
  52   1.0000      -0.533418       -14.5151
  53   1.0000      -0.521947       -14.2029
  54   1.0000      -0.507253       -13.8031
  55   1.0000      -0.505752       -13.7622
  56   1.0000      -0.486110       -13.2277
  57   1.0000      -0.433570       -11.7980
  58   1.0000      -0.421174       -11.4607
  59   1.0000      -0.417604       -11.3636
  60   1.0000      -0.411294       -11.1919
  61   1.0000      -0.407658       -11.0929
  62   1.0000      -0.398174       -10.8349
  63   1.0000      -0.392157       -10.6711
  64   1.0000      -0.380453       -10.3527
  65   1.0000      -0.346789        -9.4366
  66   1.0000      -0.327627        -8.9152
  67   0.0000       0.008831         0.2403
  68   0.0000       0.027706         0.7539
  69   0.0000       0.034075         0.9272
  70   0.0000       0.035875         0.9762
  71   0.0000       0.054354         1.4790

                 SPIN DOWN ORBITALS
  NO   OCC          E(Eh)            E(eV)
   0   1.0000     -19.333518      -526.0918
   1   1.0000     -19.331264      -526.0304
   2   1.0000     -19.324731      -525.8527
   3   1.0000     -19.324377      -525.8430
   4   1.0000     -14.573538      -396.5661
   5   1.0000     -14.567626      -396.4053
   6   1.0000     -14.566709      -396.3803
   7   1.0000     -14.555913      -396.0865
   8   1.0000     -10.510844      -286.0146
   9   1.0000     -10.510367      -286.0016
  10   1.0000     -10.491187      -285.4797
  11   1.0000     -10.481100      -285.2052
  12   1.0000     -10.449644      -284.3493
  13   1.0000     -10.436213      -283.9838
  14   1.0000     -10.408273      -283.2235
  15   1.0000     -10.407477      -283.2019
  16   1.0000     -10.376829      -282.3679
  17   1.0000     -10.366142      -282.0771
  18   1.0000      -1.231519       -33.5113
  19   1.0000      -1.223109       -33.2825
  20   1.0000      -1.182156       -32.1681
  21   1.0000      -1.178411       -32.0662
  22   1.0000      -1.129171       -30.7263
  23   1.0000      -1.110013       -30.2050
  24   1.0000      -1.071848       -29.1665
  25   1.0000      -1.065842       -29.0030
  26   1.0000      -0.975572       -26.5467
  27   1.0000      -0.939922       -25.5766
  28   1.0000      -0.886792       -24.1308
  29   1.0000      -0.844949       -22.9922
  30   1.0000      -0.821621       -22.3574
  31   1.0000      -0.808369       -21.9968
  32   1.0000      -0.793214       -21.5844
  33   1.0000      -0.786642       -21.4056
  34   1.0000      -0.704077       -19.1589
  35   1.0000      -0.695580       -18.9277
  36   1.0000      -0.689658       -18.7665
  37   1.0000      -0.675353       -18.3773
  38   1.0000      -0.650197       -17.6928
  39   1.0000      -0.644628       -17.5412
  40   1.0000      -0.627244       -17.0682
  41   1.0000      -0.597100       -16.2479
  42   1.0000      -0.592609       -16.1257
  43   1.0000      -0.585410       -15.9298
  44   1.0000      -0.570505       -15.5242
  45   1.0000      -0.566502       -15.4153
  46   1.0000      -0.563455       -15.3324
  47   1.0000      -0.561990       -15.2925
  48   1.0000      -0.556009       -15.1298
  49   1.0000      -0.547011       -14.8849
  50   1.0000      -0.535841       -14.5810
  51   1.0000      -0.530811       -14.4441
  52   1.0000      -0.526916       -14.3381
  53   1.0000      -0.510267       -13.8851
  54   1.0000      -0.503237       -13.6938
  55   1.0000      -0.495008       -13.4699
  56   1.0000      -0.481703       -13.1078
  57   1.0000      -0.429145       -11.6776
  58   1.0000      -0.418312       -11.3828
  59   1.0000      -0.412374       -11.2213
  60   1.0000      -0.400125       -10.8879
  61   1.0000      -0.391531       -10.6541
  62   1.0000      -0.388570       -10.5735
  63   1.0000      -0.387230       -10.5371
  64   1.0000      -0.369357       -10.0507
  65   0.0000      -0.067671        -1.8414
  66   0.0000      -0.055225        -1.5027
  67   0.0000       0.008341         0.2270
  68   0.0000       0.027316         0.7433
  69   0.0000       0.034077         0.9273

----------------------------------------------------------------------------------------------------
          SPIN FLIP ABSORPTION SPECTRUM VIA TRANSITION ELECTRIC DIPOLE MOMENTS
----------------------------------------------------------------------------------------------------
     Transition      Energy     Energy  Wavelength fosc(D2)      D2        DX        DY        DZ
                      (eV)      (cm-1)    (nm)                 (au**2)    (au)      (au)      (au)
----------------------------------------------------------------------------------------------------
  1-3A  ->  2-3A    0.065167     525.6  19025.6   0.000004007   0.00251   0.04147  -0.02671  -0.00873
  1-3A  ->  3-3A    2.107890   17001.3   588.2   0.014404376   0.27893   0.43653  -0.07944  -0.28645

Dispersion correction             ... done (  0.1 sec)

MULLIKEN ATOMIC CHARGES AND SPIN DENSITIES
------------------------------------------
   0 O :   -0.738290    0.129948
   1 O :   -0.693900   -0.167655
   2 O :   -0.651603    0.002364
   3 O :   -0.622771   -0.000501
   4 N :   -0.220915   -0.006314
   5 N :   -0.293854   -0.018733
   6 N :    0.029245    0.014471
   7 N :    0.047199   -0.010637
   8 C :    0.003811    0.343318
   9 C :    0.768048    0.330222
  10 C :    0.667877    0.071904
  11 C :    0.025432   -0.441244
  12 C :   -1.564478    0.019807
  13 C :   -1.178874   -0.086203
  14 C :    0.568377    0.101894
  15 C :   -0.099111   -0.347637
  16 C :    0.394269   -0.011484
  17 C :    0.404650    0.010124
  18 H :    0.515032    0.042017
  19 H :    0.606901   -0.032767
  20 H :    0.398494    0.013012
  21 H :    0.252612    0.029799
  22 H :    0.368554    0.006456
  23 H :    0.299888   -0.013227
  24 H :    0.337817    0.015149
  25 H :    0.198721    0.012825
  26 H :    0.082773   -0.005744
  27 H :    0.009047    0.003003
  28 H :    0.025975   -0.007820
  29 H :    0.059071    0.003651
Sum of atomic charges       :   -0.0000000

LOEWDIN ATOMIC CHARGES AND SPIN DENSITIES
-----------------------------------------
   0 O :    0.042526    0.108877
   1 O :    0.055430   -0.152717
   2 O :    0.101067    0.001702
   3 O :    0.107790   -0.000490
   4 N :    0.253099   -0.001484
   5 N :    0.308199   -0.001331
   6 N :    0.339106    0.013510
   7 N :    0.328118   -0.012561
   8 C :   -0.059418    0.418950
   9 C :    0.006417   -0.403537
  10 C :   -0.118278    0.022896
  11 C :   -0.109421   -0.021095
  12 C :    0.171653    0.071675
  13 C :    0.210858   -0.059999
  14 C :   -0.413616    0.068478
  15 C :   -0.372257   -0.067390
  16 C :   -0.464721   -0.001706
  17 C :   -0.501748   -0.000032
  18 H :    0.093381    0.006223
  19 H :    0.027928   -0.003073
  20 H :   -0.032438    0.006127
  21 H :    0.056858    0.031260
  22 H :    0.012276    0.006512
  23 H :    0.005024    0.001236
  24 H :    0.077106   -0.019757
  25 H :   -0.078471   -0.012930
  26 H :    0.022110   -0.000077
  27 H :   -0.085048    0.000186
  28 H :    0.008825    0.001494
  29 H :    0.007646   -0.000951

  Mayer bond orders larger than 0.100000
B(  0-O , 14-C ) :   1.3027 B(  1-O , 15-C ) :   1.3218 B(  2-O , 16-C ) :   1.5383
B(  3-O , 17-C ) :   1.6027 B(  4-N ,  8-C ) :   0.2481 B(  4-N ,  9-C ) :   0.1673
B(  4-N , 10-C ) :   0.3281 B(  4-N , 16-C ) :   1.0378 B(  4-N , 26-H ) :   1.0573
B(  5-N ,  9-C ) :   0.2594 B(  5-N , 11-C ) :  -0.1946 B(  5-N , 17-C ) :   1.1803
B(  5-N , 19-H ) :  -0.1123 B(  5-N , 27-H ) :   1.1066 B(  6-N ,  8-C ) :  -0.1758
B(  6-N , 10-C ) :   0.1230 B(  6-N , 14-C ) :   1.1465 B(  6-N , 16-C ) :   0.9330
B(  6-N , 28-H ) :   1.1201 B(  7-N , 11-C ) :   0.1159 B(  7-N , 15-C ) :   1.0434
B(  7-N , 17-C ) :   0.9447 B(  7-N , 29-H ) :   1.1043 B(  8-C ,  9-C ) :   0.1470
B(  8-C , 11-C ) :   0.3488 B(  8-C , 12-C ) :   0.4043 B(  8-C , 14-C ) :   0.7867
B(  8-C , 16-C ) :   0.1020 B(  8-C , 18-H ) :  -0.2675 B(  8-C , 20-H ) :  -0.1102
B(  8-C , 22-H ) :  -0.1070 B(  9-C , 10-C ) :   0.1117 B(  9-C , 11-C ) :   0.3042
B(  9-C , 13-C ) :   0.4488 B(  9-C , 15-C ) :   0.4005 B(  9-C , 19-H ) :  -0.1148
B( 10-C , 11-C ) :   0.5388 B( 10-C , 12-C ) :  -0.1611 B( 10-C , 16-C ) :  -0.1258
B( 10-C , 18-H ) :   0.9227 B( 11-C , 13-C ) :  -0.1280 B( 11-C , 17-C ) :  -0.1887
B( 11-C , 18-H ) :  -0.1295 B( 11-C , 19-H ) :   0.7405 B( 12-C , 20-H ) :   0.8887
B( 12-C , 21-H ) :   0.9082 B( 12-C , 22-H ) :   0.9993 B( 13-C , 23-H ) :   1.0425
B( 13-C , 24-H ) :   0.9268 B( 13-C , 25-H ) :   0.8533

Dispersion correction           -0.060534690
FINAL SINGLE POINT ENERGY      -908.775875469223

DIPOLE MOMENT
-------------

Method             : TDA/CIS
Type of density    : Electron Density
Level              : Relaxed density
State              :   2
Multiplicity       :   3
Irrep              :   0
Energy             :     0.0000000000000000 Eh
Relativity type    :
Basis              : AO
                                X                 Y                 Z
Electronic contribution:     -9.916567384      -6.066844253       0.171347238
Nuclear contribution   :     11.726633179       6.950541877       1.373037898
                        -----------------------------------------
Total Dipole Moment    :      1.810065794       0.883697624       1.544385136
                        -----------------------------------------
Magnitude (a.u.)       :      2.538185398
Magnitude (Debye)      :      6.451554569

Rotational constants in cm-1:             0.021964             0.012833             0.012183
Rotational constants in MHz :           658.478639           384.737773           365.231574

                             ****ORCA TERMINATED NORMALLY****
TOTAL RUN TIME: 0 days 0 hours 5 minutes 41 seconds 560 msec
