                         Program Version 6.0.0  -   RELEASE  -
|  1> ! Opt wB97M-D3BJ def2-TZVPPD
|  2> %pal nprocs 8 end %pal nprocs 64 end
|  3> %geom
|  4> Constraints
|  5>     {A 2 1 0 137.27272727272725 C }
|  6> end
|  7> MaxIter 500
|  8> end
|  9> *xyz 0 1
| 10> O   -0.0007 0.8141 0.0
| 11> C   0.7509 -0.4065 0.0
| 12> C   -0.7502 -0.4076 0.0
| 13> H   1.2625 -0.6786 0.9136
| 14> H   1.2625 -0.6787 -0.9136
| 15> H   -1.2614 -0.6806 -0.9136
| 16> H   -1.2614 -0.6805 0.9136
| 17> *
| 18>
| 19>                          ****END OF INPUT****
 Total Charge           Charge          ....    0
 Multiplicity           Mult            ....    1
 Number of Electrons    NEL             ....   24
Dispersion correction           -0.005711285
FINAL SINGLE POINT ENERGY      -153.508372091786
Dispersion correction             ... done (  0.3 sec)
Dispersion correction           -0.005637842
FINAL SINGLE POINT ENERGY      -153.656109816190
Dispersion correction             ... done (  0.2 sec)
Dispersion correction           -0.005582262
FINAL SINGLE POINT ENERGY      -153.701017755142
Dispersion correction             ... done (  0.1 sec)
FINAL SINGLE POINT ENERGY      -153.718943372572
FINAL SINGLE POINT ENERGY      -153.725843659180
FINAL SINGLE POINT ENERGY      -153.730826207671
FINAL SINGLE POINT ENERGY      -153.734995219176
FINAL SINGLE POINT ENERGY      -153.736457803709
FINAL SINGLE POINT ENERGY      -153.737223901290
FINAL SINGLE POINT ENERGY      -153.738590234905
FINAL SINGLE POINT ENERGY      -153.925143594178
FINAL SINGLE POINT ENERGY      -153.925151531506
FINAL SINGLE POINT ENERGY      -153.925153592896
FINAL SINGLE POINT ENERGY      -153.925154650579
FINAL SINGLE POINT ENERGY      -153.925157136470
FINAL SINGLE POINT ENERGY      -153.925160706422
FINAL SINGLE POINT ENERGY      -153.925165499277
Dispersion correction             ... done (  0.1 sec)
Dispersion correction           -0.005508329
FINAL SINGLE POINT ENERGY      -153.925167704008
Dispersion correction             ... done (  0.1 sec)
Dispersion correction           -0.005507797
FINAL SINGLE POINT ENERGY      -153.925168508216
Dispersion correction             ... done (  0.2 sec)
                    ***********************HURRAY********************

CARTESIAN COORDINATES (ANGSTROEM)
---------------------------------
  O      0.776571    1.374833   -0.008141
  C      0.531977    0.223628    0.221607
  C     -0.458422   -0.802986   -0.234711
  H      1.195149   -0.266168    0.975686
  H      0.111315   -1.645058   -0.626144
  H     -1.167519   -0.449212   -0.979715
  H     -0.986870   -1.153437    0.651417

 Multiplicity           Mult            ....    1
 Number of Electrons    NEL             ....   24
 Basis Dimension        Dim             ....  182

ORBITAL ENERGIES
----------------

  NO   OCC          E(Eh)            E(eV)
   0   2.0000     -19.342376      -526.3328
   1   2.0000     -10.444862      -284.2191
   2   2.0000     -10.364894      -282.0431
   3   2.0000      -1.189989       -32.3812
   4   2.0000      -0.894338       -24.3362
   5   2.0000      -0.697182       -18.9713
   6   2.0000      -0.596477       -16.2310
   7   2.0000      -0.565808       -15.3964
   8   2.0000      -0.560253       -15.2453
   9   2.0000      -0.510444       -13.8899
  10   2.0000      -0.480415       -13.0727
  11   2.0000      -0.364316        -9.9135
  12   0.0000       0.034857         0.9485
  13   0.0000       0.057492         1.5644
  14   0.0000       0.059234         1.6119
  15   0.0000       0.081673         2.2224
  16   0.0000       0.085275         2.3205

MULLIKEN ATOMIC CHARGES
-----------------------
   0 O :   -0.471247
   1 C :    0.230109
   2 C :   -0.689975
   3 H :    0.216697
   4 H :    0.237521
   5 H :    0.240073
   6 H :    0.236821
Sum of atomic charges:   -0.0000000

LOEWDIN ATOMIC CHARGES
----------------------
   0 O :    0.077059
   1 C :   -0.245056
   2 C :    0.172220
   3 H :    0.020461
   4 H :   -0.007848
   5 H :   -0.009158
   6 H :   -0.007679

  Mayer bond orders larger than 0.100000
B(  0-O ,  1-C ) :   1.7708 B(  1-C ,  2-C ) :   0.7486 B(  1-C ,  3-H ) :   1.0055
B(  2-C ,  4-H ) :   0.9879 B(  2-C ,  5-H ) :   0.9608 B(  2-C ,  6-H ) :   0.9882

Dispersion correction           -0.005507448
FINAL SINGLE POINT ENERGY      -153.925168782095

DIPOLE MOMENT
-------------

Method             : SCF
Type of density    : Electron Density
Multiplicity       :   1
Irrep              :   0
Energy             :  -153.9196613337643953 Eh
Relativity type    :
Basis              : AO
                                X                 Y                 Z
Electronic contribution:      1.466633697       3.136397213       0.058661324
Nuclear contribution   :     -1.849033007      -4.259400864       0.042577943
                        -----------------------------------------
Total Dipole Moment    :     -0.382399310      -1.123003652       0.101239267
                        -----------------------------------------
Magnitude (a.u.)       :      1.190636730
Magnitude (Debye)      :      3.026358059

Rotational constants in cm-1:             2.303938             0.312030             0.289460
Rotational constants in MHz :         69070.328696          9354.412947          8677.805990

                             ****ORCA TERMINATED NORMALLY****
TOTAL RUN TIME: 0 days 0 hours 10 minutes 29 seconds 286 msec
