                         Program Version 6.0.0  -   RELEASE  -
|  1> ! Engrad def2-TZVPPD wB97M-D3BJ
|  2> %pal nprocs 8 end%pal nprocs 64 end
|  3> %tddft Nroots 2 Iroot 2
|  4> sf true
|  5> end
|  6> *xyz 0 3
|  7> O   3.78652414 0.45550826 -0.02359798
|  8> O   -1.28122716 1.15164494 -2.4920233
|  9> O   0.95307144 -2.88065231 -1.20862876
| 10> O   -3.58193855 -1.23458479 0.56293595
| 11> N   0.26188466 -1.43724437 0.39184609
| 12> N   -2.00097885 0.20819474 1.33275598
| 13> N   2.35961087 -1.21406096 -0.5841518
| 14> N   -2.19912503 -0.24253525 -0.94513006
| 15> C   1.72158824 0.38137278 1.09839216
| 16> C   -0.74040435 1.49816778 -0.2080444
| 17> C   0.4273657 -0.32656915 1.29163484
| 18> C   -0.65006163 0.73793774 1.12758683
| 19> C   2.08767099 1.51300016 1.97100704
| 20> C   -0.61159448 2.96574164 -0.22223648
| 21> C   2.7087463 -0.09136905 0.1387586
| 22> C   -1.37991012 0.81266762 -1.3307273
| 23> C   1.1609447 -1.91506596 -0.51338035
| 24> C   -2.65854895 -0.48088659 0.34339899
| 25> H   0.35712242 -0.70149612 2.32936341
| 26> H   -0.48807291 1.47371673 1.90121716
| 27> H   3.16542083 1.60073584 2.02051137
| 28> H   1.7197515 2.46050955 1.58448679
| 29> H   1.67260986 1.39205992 2.96938981
| 30> H   -1.41284432 3.4095079 0.37870799
| 31> H   0.31592432 3.27951358 0.23416086
| 32> H   -0.68086159 3.34350637 -1.23512832
| 33> H   -0.54371232 -2.02863523 0.47558564
| 34> H   -2.3386576 -0.01125148 2.24992278
| 35> H   3.01159165 -1.53695468 -1.28963757
| 36> H   -2.70115669 -0.72004679 -1.68742634
| 37> *
| 38>
| 39>                          ****END OF INPUT****

CARTESIAN COORDINATES (ANGSTROEM)
---------------------------------
  O      3.786524    0.455508   -0.023598
  O     -1.281227    1.151645   -2.492023
  O      0.953071   -2.880652   -1.208629
  O     -3.581939   -1.234585    0.562936
  N      0.261885   -1.437244    0.391846
  N     -2.000979    0.208195    1.332756
  N      2.359611   -1.214061   -0.584152
  N     -2.199125   -0.242535   -0.945130
  C      1.721588    0.381373    1.098392
  C     -0.740404    1.498168   -0.208044
  C      0.427366   -0.326569    1.291635
  C     -0.650062    0.737938    1.127587
  C      2.087671    1.513000    1.971007
  C     -0.611594    2.965742   -0.222236
  C      2.708746   -0.091369    0.138759
  C     -1.379910    0.812668   -1.330727
  C      1.160945   -1.915066   -0.513380
  C     -2.658549   -0.480887    0.343399
  H      0.357122   -0.701496    2.329363
  H     -0.488073    1.473717    1.901217
  H      3.165421    1.600736    2.020511
  H      1.719752    2.460510    1.584487
  H      1.672610    1.392060    2.969390
  H     -1.412844    3.409508    0.378708
  H      0.315924    3.279514    0.234161
  H     -0.680862    3.343506   -1.235128
  H     -0.543712   -2.028635    0.475586
  H     -2.338658   -0.011251    2.249923
  H      3.011592   -1.536955   -1.289638
  H     -2.701157   -0.720047   -1.687426

 Total Charge           Charge          ....    0
 Multiplicity           Mult            ....    3
 Number of Electrons    NEL             ....  132
 Basis Dimension        Dim             ....  882

ORBITAL ENERGIES
----------------
                 SPIN UP ORBITALS
  NO   OCC          E(Eh)            E(eV)
   0   1.0000     -19.337034      -526.1874
   1   1.0000     -19.331906      -526.0479
   2   1.0000     -19.324878      -525.8567
   3   1.0000     -19.316111      -525.6181
   4   1.0000     -14.565336      -396.3430
   5   1.0000     -14.564366      -396.3166
   6   1.0000     -14.562752      -396.2726
   7   1.0000     -14.559056      -396.1720
   8   1.0000     -10.509074      -285.9665
   9   1.0000     -10.503951      -285.8270
  10   1.0000     -10.483780      -285.2781
  11   1.0000     -10.481526      -285.2168
  12   1.0000     -10.446798      -284.2718
  13   1.0000     -10.446446      -284.2623
  14   1.0000     -10.420245      -283.5493
  15   1.0000     -10.420034      -283.5435
  16   1.0000     -10.376606      -282.3618
  17   1.0000     -10.374999      -282.3181
  18   1.0000      -1.223800       -33.3013
  19   1.0000      -1.218588       -33.1595
  20   1.0000      -1.200366       -32.6636
  21   1.0000      -1.195856       -32.5409
  22   1.0000      -1.122180       -30.5361
  23   1.0000      -1.099705       -29.9245
  24   1.0000      -1.068599       -29.0780
  25   1.0000      -1.059432       -28.8286
  26   1.0000      -0.989118       -26.9153
  27   1.0000      -0.957740       -26.0614
  28   1.0000      -0.898136       -24.4395
  29   1.0000      -0.844957       -22.9924
  30   1.0000      -0.831379       -22.6230
  31   1.0000      -0.803145       -21.8547
  32   1.0000      -0.787202       -21.4209
  33   1.0000      -0.786327       -21.3970
  34   1.0000      -0.705571       -19.1996
  35   1.0000      -0.698753       -19.0140
  36   1.0000      -0.694281       -18.8923
  37   1.0000      -0.679375       -18.4867
  38   1.0000      -0.654889       -17.8204
  39   1.0000      -0.640296       -17.4233
  40   1.0000      -0.627448       -17.0737
  41   1.0000      -0.604779       -16.4569
  42   1.0000      -0.598021       -16.2730
  43   1.0000      -0.589100       -16.0302
  44   1.0000      -0.579717       -15.7749
  45   1.0000      -0.577574       -15.7166
  46   1.0000      -0.568233       -15.4624
  47   1.0000      -0.563876       -15.3438
  48   1.0000      -0.560375       -15.2486
  49   1.0000      -0.558597       -15.2002
  50   1.0000      -0.552580       -15.0365
  51   1.0000      -0.548111       -14.9149
  52   1.0000      -0.533505       -14.5174
  53   1.0000      -0.528301       -14.3758
  54   1.0000      -0.516968       -14.0674
  55   1.0000      -0.511149       -13.9091
  56   1.0000      -0.495359       -13.4794
  57   1.0000      -0.423993       -11.5374
  58   1.0000      -0.422601       -11.4995
  59   1.0000      -0.413014       -11.2387
  60   1.0000      -0.404951       -11.0193
  61   1.0000      -0.401065       -10.9135
  62   1.0000      -0.394392       -10.7319
  63   1.0000      -0.390125       -10.6158
  64   1.0000      -0.383259       -10.4290
  65   1.0000      -0.347424        -9.4539
  66   1.0000      -0.334108        -9.0915
  67   0.0000       0.007472         0.2033
  68   0.0000       0.027842         0.7576
  69   0.0000       0.032312         0.8792
  70   0.0000       0.034440         0.9371
  71   0.0000       0.054249         1.4762

                 SPIN DOWN ORBITALS
  NO   OCC          E(Eh)            E(eV)
   0   1.0000     -19.333230      -526.0839
   1   1.0000     -19.327893      -525.9387
   2   1.0000     -19.324612      -525.8494
   3   1.0000     -19.316097      -525.6177
   4   1.0000     -14.564504      -396.3203
   5   1.0000     -14.564108      -396.3095
   6   1.0000     -14.561993      -396.2520
   7   1.0000     -14.559073      -396.1725
   8   1.0000     -10.509087      -285.9668
   9   1.0000     -10.503998      -285.8283
  10   1.0000     -10.484800      -285.3059
  11   1.0000     -10.482524      -285.2440
  12   1.0000     -10.447054      -284.2788
  13   1.0000     -10.446027      -284.2509
  14   1.0000     -10.408804      -283.2380
  15   1.0000     -10.407923      -283.2140
  16   1.0000     -10.377211      -282.3783
  17   1.0000     -10.375566      -282.3335
  18   1.0000      -1.222176       -33.2571
  19   1.0000      -1.217006       -33.1164
  20   1.0000      -1.195756       -32.5382
  21   1.0000      -1.191295       -32.4168
  22   1.0000      -1.119561       -30.4648
  23   1.0000      -1.097596       -29.8671
  24   1.0000      -1.066770       -29.0283
  25   1.0000      -1.057886       -28.7865
  26   1.0000      -0.976884       -26.5824
  27   1.0000      -0.940606       -25.5952
  28   1.0000      -0.892476       -24.2855
  29   1.0000      -0.839473       -22.8432
  30   1.0000      -0.822261       -22.3748
  31   1.0000      -0.798347       -21.7241
  32   1.0000      -0.785424       -21.3725
  33   1.0000      -0.784882       -21.3577
  34   1.0000      -0.701702       -19.0943
  35   1.0000      -0.691173       -18.8078
  36   1.0000      -0.687759       -18.7149
  37   1.0000      -0.670960       -18.2578
  38   1.0000      -0.643947       -17.5227
  39   1.0000      -0.636040       -17.3075
  40   1.0000      -0.623860       -16.9761
  41   1.0000      -0.599923       -16.3247
  42   1.0000      -0.591107       -16.0848
  43   1.0000      -0.583607       -15.8808
  44   1.0000      -0.573202       -15.5976
  45   1.0000      -0.568123       -15.4594
  46   1.0000      -0.563502       -15.3337
  47   1.0000      -0.561513       -15.2795
  48   1.0000      -0.554024       -15.0758
  49   1.0000      -0.548079       -14.9140
  50   1.0000      -0.546337       -14.8666
  51   1.0000      -0.538973       -14.6662
  52   1.0000      -0.528235       -14.3740
  53   1.0000      -0.517794       -14.0899
  54   1.0000      -0.511153       -13.9092
  55   1.0000      -0.504173       -13.7192
  56   1.0000      -0.489230       -13.3126
  57   1.0000      -0.420408       -11.4399
  58   1.0000      -0.418387       -11.3849
  59   1.0000      -0.407399       -11.0859
  60   1.0000      -0.393581       -10.7099
  61   1.0000      -0.390867       -10.6360
  62   1.0000      -0.389926       -10.6104
  63   1.0000      -0.386181       -10.5085
  64   1.0000      -0.376584       -10.2474
  65   0.0000      -0.064971        -1.7680
  66   0.0000      -0.044896        -1.2217
  67   0.0000       0.006889         0.1875
  68   0.0000       0.027618         0.7515
  69   0.0000       0.032003         0.8708

----------------------------------------------------------------------------------------------------
          SPIN FLIP ABSORPTION SPECTRUM VIA TRANSITION ELECTRIC DIPOLE MOMENTS
----------------------------------------------------------------------------------------------------
     Transition      Energy     Energy  Wavelength fosc(D2)      D2        DX        DY        DZ
                      (eV)      (cm-1)    (nm)                 (au**2)    (au)      (au)      (au)
----------------------------------------------------------------------------------------------------
  1-3A  ->  2-3A    0.099238     800.4  12493.6   0.000001757   0.00072  -0.00061  -0.02549   0.00851

Dispersion correction             ... done (  0.1 sec)

MULLIKEN ATOMIC CHARGES AND SPIN DENSITIES
------------------------------------------
   0 O :   -0.671381    0.113247
   1 O :   -0.654672   -0.106627
   2 O :   -0.660499    0.000866
   3 O :   -0.644603   -0.004656
   4 N :   -0.157052   -0.001966
   5 N :   -0.302729   -0.013987
   6 N :   -0.059114    0.029622
   7 N :    0.052167   -0.007431
   8 C :    0.131727    0.377548
   9 C :    1.269402    0.368647
  10 C :    0.373016    0.053235
  11 C :   -0.064376   -0.501114
  12 C :   -1.559405    0.054250
  13 C :   -1.425071    0.018816
  14 C :    0.631469    0.004722
  15 C :   -0.343076   -0.467700
  16 C :    0.509161   -0.004891
  17 C :    0.375214    0.027817
  18 H :    0.419145    0.026271
  19 H :    0.618254   -0.007347
  20 H :    0.364000    0.009252
  21 H :    0.243349    0.016580
  22 H :    0.352423    0.003782
  23 H :    0.379410    0.004872
  24 H :    0.280239    0.038643
  25 H :    0.354927   -0.028591
  26 H :    0.011430   -0.002917
  27 H :    0.086757   -0.000290
  28 H :    0.042243   -0.002954
  29 H :    0.047642    0.002300
Sum of atomic charges       :   -0.0000000

LOEWDIN ATOMIC CHARGES AND SPIN DENSITIES
-----------------------------------------
   0 O :    0.086651    0.099463
   1 O :    0.094503   -0.100076
   2 O :    0.092580    0.000131
   3 O :    0.085484   -0.004267
   4 N :    0.293000   -0.002720
   5 N :    0.289563   -0.016775
   6 N :    0.325279    0.019745
   7 N :    0.317192   -0.009874
   8 C :   -0.017430    0.386037
   9 C :    0.032410   -0.390617
  10 C :   -0.130025    0.040693
  11 C :   -0.120411   -0.019870
  12 C :    0.191192    0.057598
  13 C :    0.195951   -0.064789
  14 C :   -0.393543    0.060230
  15 C :   -0.415384   -0.064347
  16 C :   -0.475444   -0.000058
  17 C :   -0.498544   -0.001063
  18 H :    0.073971    0.014741
  19 H :    0.035746    0.000939
  20 H :    0.000534    0.003816
  21 H :   -0.010367    0.019328
  22 H :    0.007050    0.006519
  23 H :    0.023961   -0.022081
  24 H :   -0.019986   -0.011128
  25 H :    0.003829   -0.000112
  26 H :   -0.031789   -0.000295
  27 H :   -0.034171   -0.001880
  28 H :   -0.002791    0.001667
  29 H :    0.000991   -0.000953

  Mayer bond orders larger than 0.100000
B(  0-O ,  8-C ) :   0.1050 B(  0-O , 12-C ) :   0.1035 B(  0-O , 14-C ) :   1.2377
B(  1-O , 15-C ) :   1.4174 B(  2-O , 16-C ) :   1.5661 B(  3-O , 17-C ) :   1.5899
B(  4-N , 10-C ) :   0.6574 B(  4-N , 16-C ) :   1.0654 B(  4-N , 26-H ) :   1.1340
B(  5-N ,  9-C ) :   0.2055 B(  5-N , 10-C ) :   0.1517 B(  5-N , 17-C ) :   1.2014
B(  5-N , 27-H ) :   1.0535 B(  6-N , 14-C ) :   1.0195 B(  6-N , 16-C ) :   0.9186
B(  6-N , 28-H ) :   1.1179 B(  7-N , 15-C ) :   0.9882 B(  7-N , 17-C ) :   0.9829
B(  7-N , 29-H ) :   1.0898 B(  8-C , 10-C ) :   0.4094 B(  8-C , 11-C ) :   0.4408
B(  8-C , 12-C ) :   0.1413 B(  8-C , 14-C ) :   0.8090 B(  8-C , 18-H ) :  -0.1661
B(  8-C , 22-H ) :  -0.1373 B(  9-C , 10-C ) :   0.1295 B(  9-C , 11-C ) :   0.2675
B(  9-C , 13-C ) :   0.3924 B(  9-C , 25-H ) :  -0.1042 B( 10-C , 11-C ) :   0.5540
B( 10-C , 12-C ) :  -0.2302 B( 10-C , 14-C ) :   0.1018 B( 10-C , 18-H ) :   0.9799
B( 10-C , 19-H ) :  -0.1036 B( 11-C , 12-C ) :   0.1116 B( 11-C , 13-C ) :  -0.1527
B( 11-C , 15-C ) :   0.1525 B( 11-C , 17-C ) :  -0.2071 B( 11-C , 18-H ) :  -0.1009
B( 11-C , 19-H ) :   0.7368 B( 12-C , 14-C ) :  -0.1415 B( 12-C , 20-H ) :   0.9673
B( 12-C , 21-H ) :   0.9167 B( 12-C , 22-H ) :   1.0249 B( 13-C , 23-H ) :   0.8385
B( 13-C , 24-H ) :   0.9997 B( 13-C , 25-H ) :   0.9740

Dispersion correction           -0.057416160
FINAL SINGLE POINT ENERGY      -908.799639809411

DIPOLE MOMENT
-------------

Method             : TDA/CIS
Type of density    : Electron Density
Level              : Relaxed density
State              :   2
Multiplicity       :   3
Irrep              :   0
Energy             :     0.0000000000000000 Eh
Relativity type    :
Basis              : AO
                                X                 Y                 Z
Electronic contribution:     -1.900458789      -9.863867566      -6.555165155
Nuclear contribution   :      1.811518391      11.371736522       8.976316874
                        -----------------------------------------
Total Dipole Moment    :     -0.088940398       1.507868957       2.421151718
                        -----------------------------------------
Magnitude (a.u.)       :      2.853691439
Magnitude (Debye)      :      7.253507192

Rotational constants in cm-1:             0.020170             0.012427             0.010740
Rotational constants in MHz :           604.689429           372.552715           321.978243

                             ****ORCA TERMINATED NORMALLY****
TOTAL RUN TIME: 0 days 0 hours 4 minutes 22 seconds 735 msec
