                         Program Version 6.0.0  -   RELEASE  -
|  1> ! EnGrad wB97M-D3BJ def2-TZVPPD
|  2> %pal nprocs 8 end%pal nprocs 16 end
|  3> %tddft
|  4>  sf true
|  5>  nroots 2 Iroot 1 end
|  6> *xyz 0 3
|  7> O   0.76633248572448 1.36544421392421 -0.01731383837065
|  8> C   0.54610784660031 0.21154161561419 0.22320667903626
|  9> C   -0.46403255769491 -0.79824238227691 -0.22609631022126
| 10> H   1.23306434321436 -0.27693800700158 0.95440637298299
| 11> H   0.08262939035026 -1.63932931776754 -0.65197078227948
| 12> H   -1.18479358735376 -0.41626988483787 -0.94502525434934
| 13> H   -0.97710792084074 -1.16460623765451 0.66279313320147
| 14> *
| 15>
| 16>                          ****END OF INPUT****

CARTESIAN COORDINATES (ANGSTROEM)
---------------------------------
  O      0.766332    1.365444   -0.017314
  C      0.546108    0.211542    0.223207
  C     -0.464033   -0.798242   -0.226096
  H      1.233064   -0.276938    0.954406
  H      0.082629   -1.639329   -0.651971
  H     -1.184794   -0.416270   -0.945025
  H     -0.977108   -1.164606    0.662793

 Total Charge           Charge          ....    0
 Multiplicity           Mult            ....    3
 Number of Electrons    NEL             ....   24
 Basis Dimension        Dim             ....  182

ORBITAL ENERGIES
----------------
                 SPIN UP ORBITALS
  NO   OCC          E(Eh)            E(eV)
   0   1.0000     -19.406601      -528.0805
   1   1.0000     -10.380296      -282.4622
   2   1.0000     -10.369808      -282.1768
   3   1.0000      -1.243396       -33.8345
   4   1.0000      -0.887581       -24.1523
   5   1.0000      -0.715941       -19.4818
   6   1.0000      -0.630363       -17.1530
   7   1.0000      -0.589250       -16.0343
   8   1.0000      -0.580793       -15.8042
   9   1.0000      -0.516905       -14.0657
  10   1.0000      -0.516232       -14.0474
  11   1.0000      -0.426316       -11.6006
  12   1.0000      -0.217703        -5.9240
  13   0.0000       0.038524         1.0483
  14   0.0000       0.059860         1.6289
  15   0.0000       0.077721         2.1149
  16   0.0000       0.087506         2.3811
  17   0.0000       0.106579         2.9002

                 SPIN DOWN ORBITALS
  NO   OCC          E(Eh)            E(eV)
   0   1.0000     -19.379436      -527.3413
   1   1.0000     -10.370049      -282.1834
   2   1.0000     -10.367825      -282.1229
   3   1.0000      -1.187103       -32.3027
   4   1.0000      -0.868570       -23.6350
   5   1.0000      -0.670206       -18.2372
   6   1.0000      -0.585325       -15.9275
   7   1.0000      -0.541709       -14.7406
   8   1.0000      -0.535784       -14.5794
   9   1.0000      -0.497829       -13.5466
  10   1.0000      -0.471549       -12.8315
  11   0.0000      -0.082386        -2.2418
  12   0.0000       0.039492         1.0746
  13   0.0000       0.059525         1.6198
  14   0.0000       0.077339         2.1045
  15   0.0000       0.084829         2.3083

----------------------------------------------------------------------------------------------------
          SPIN FLIP ABSORPTION SPECTRUM VIA TRANSITION ELECTRIC DIPOLE MOMENTS
----------------------------------------------------------------------------------------------------
     Transition      Energy     Energy  Wavelength fosc(D2)      D2        DX        DY        DZ
                      (eV)      (cm-1)    (nm)                 (au**2)    (au)      (au)      (au)
----------------------------------------------------------------------------------------------------
  1-3A  ->  2-3A    4.623373   37290.0   268.2   0.000283013   0.00250   0.03024  -0.01350  -0.03744

Dispersion correction             ... done (  0.0 sec)

MULLIKEN ATOMIC CHARGES AND SPIN DENSITIES
------------------------------------------
   0 O :   -0.507551    0.054747
   1 C :    0.208689   -0.172103
   2 C :   -0.694268    0.042648
   3 H :    0.275571    0.076006
   4 H :    0.241318   -0.003172
   5 H :    0.236037    0.004988
   6 H :    0.240204   -0.003115
Sum of atomic charges       :    0.0000000

LOEWDIN ATOMIC CHARGES AND SPIN DENSITIES
-----------------------------------------
   0 O :    0.051217    0.021291
   1 C :   -0.239475   -0.015282
   2 C :    0.179348   -0.002026
   3 H :    0.028340   -0.002941
   4 H :   -0.006523   -0.001277
   5 H :   -0.006315    0.001491
   6 H :   -0.006593   -0.001256

  Mayer bond orders larger than 0.100000
B(  0-O ,  1-C ) :   1.7909 B(  1-C ,  2-C ) :   0.7383 B(  1-C ,  3-H ) :   0.9439
B(  2-C ,  4-H ) :   0.9874 B(  2-C ,  5-H ) :   0.9668 B(  2-C ,  6-H ) :   0.9877

Dispersion correction           -0.005510727
FINAL SINGLE POINT ENERGY      -153.920597846418

DIPOLE MOMENT
-------------

Method             : TDA/CIS
Type of density    : Electron Density
Level              : Relaxed density
State              :   1
Multiplicity       :   3
Irrep              :   0
Energy             :     0.0000000000000000 Eh
Relativity type    :
Basis              : AO
                                X                 Y                 Z
Electronic contribution:      1.450265044       2.987811579       0.088228406
Nuclear contribution   :     -1.842463895      -4.224896458       0.043614845
                        -----------------------------------------
Total Dipole Moment    :     -0.392198850      -1.237084879       0.131843251
                        -----------------------------------------
Magnitude (a.u.)       :      1.304446848
Magnitude (Debye)      :      3.315640389

Rotational constants in cm-1:             2.243749             0.315688             0.291598
Rotational constants in MHz :         67265.907477          9464.088090          8741.890314

                             ****ORCA TERMINATED NORMALLY****
TOTAL RUN TIME: 0 days 0 hours 0 minutes 16 seconds 373 msec
