                         Program Version 6.0.0  -   RELEASE  -
|  1> ! Opt wB97M-D3BJ def2-TZVPPD
|  2> %pal nprocs 8 end %pal nprocs 64 end
|  3> %geom
|  4> Constraints
|  5>     {A 2 1 0 130.0 C }
|  6> end
|  7> MaxIter 500
|  8> end
|  9> *xyz 0 1
| 10> O   -0.0007 0.8141 0.0
| 11> C   0.7509 -0.4065 0.0
| 12> C   -0.7502 -0.4076 0.0
| 13> H   1.2625 -0.6786 0.9136
| 14> H   1.2625 -0.6787 -0.9136
| 15> H   -1.2614 -0.6806 -0.9136
| 16> H   -1.2614 -0.6805 0.9136
| 17> *
| 18>
| 19>                          ****END OF INPUT****
 Total Charge           Charge          ....    0
 Multiplicity           Mult            ....    1
 Number of Electrons    NEL             ....   24
Dispersion correction           -0.005731826
FINAL SINGLE POINT ENERGY      -153.558636253088
Dispersion correction             ... done (  0.1 sec)
Dispersion correction           -0.005641655
FINAL SINGLE POINT ENERGY      -153.676608583630
Dispersion correction             ... done (  0.1 sec)
Dispersion correction           -0.005577164
FINAL SINGLE POINT ENERGY      -153.707605624814
Dispersion correction             ... done (  0.1 sec)
FINAL SINGLE POINT ENERGY      -153.719894054033
FINAL SINGLE POINT ENERGY      -153.724553940130
FINAL SINGLE POINT ENERGY      -153.728327358941
FINAL SINGLE POINT ENERGY      -153.731947687337
FINAL SINGLE POINT ENERGY      -153.733371711985
FINAL SINGLE POINT ENERGY      -153.734191603034
FINAL SINGLE POINT ENERGY      -153.735448295297
FINAL SINGLE POINT ENERGY      -153.930581591421
FINAL SINGLE POINT ENERGY      -153.930588836409
FINAL SINGLE POINT ENERGY      -153.930603090606
FINAL SINGLE POINT ENERGY      -153.930625957858
FINAL SINGLE POINT ENERGY      -153.930651274328
FINAL SINGLE POINT ENERGY      -153.930670249079
FINAL SINGLE POINT ENERGY      -153.930673293406
Dispersion correction             ... done (  0.1 sec)
Dispersion correction           -0.005524598
FINAL SINGLE POINT ENERGY      -153.930674329117
Dispersion correction             ... done (  0.1 sec)
Dispersion correction           -0.005523665
FINAL SINGLE POINT ENERGY      -153.930674861714
Dispersion correction             ... done (  0.1 sec)
                    ***********************HURRAY********************

CARTESIAN COORDINATES (ANGSTROEM)
---------------------------------
  O      0.703945    1.346128    0.069204
  C      0.553885    0.198519   -0.248236
  C     -0.449536   -0.807413    0.224124
  H      0.087902   -1.661795    0.635878
  H      1.243341   -0.228797   -1.007833
  H     -1.008698   -1.167444   -0.639772
  H     -1.128639   -0.397599    0.966635

 Multiplicity           Mult            ....    1
 Number of Electrons    NEL             ....   24
 Basis Dimension        Dim             ....  182

ORBITAL ENERGIES
----------------

  NO   OCC          E(Eh)            E(eV)
   0   2.0000     -19.340543      -526.2829
   1   2.0000     -10.443450      -284.1807
   2   2.0000     -10.360165      -281.9144
   3   2.0000      -1.189040       -32.3554
   4   2.0000      -0.888622       -24.1806
   5   2.0000      -0.700197       -19.0533
   6   2.0000      -0.597607       -16.2617
   7   2.0000      -0.562953       -15.3187
   8   2.0000      -0.556916       -15.1545
   9   2.0000      -0.509194       -13.8559
  10   2.0000      -0.478005       -13.0072
  11   2.0000      -0.367435        -9.9984
  12   0.0000       0.036563         0.9949
  13   0.0000       0.056056         1.5254
  14   0.0000       0.059233         1.6118
  15   0.0000       0.082630         2.2485
  16   0.0000       0.085844         2.3359

MULLIKEN ATOMIC CHARGES
-----------------------
   0 O :   -0.474854
   1 C :    0.232994
   2 C :   -0.694483
   3 H :    0.230954
   4 H :    0.233739
   5 H :    0.230645
   6 H :    0.241005
Sum of atomic charges:    0.0000000

LOEWDIN ATOMIC CHARGES
----------------------
   0 O :    0.073172
   1 C :   -0.238477
   2 C :    0.170500
   3 H :   -0.009621
   4 H :    0.022469
   5 H :   -0.009549
   6 H :   -0.008493

  Mayer bond orders larger than 0.100000
B(  0-O ,  1-C ) :   1.7702 B(  1-C ,  2-C ) :   0.7513 B(  1-C ,  4-H ) :   0.9923
B(  2-C ,  3-H ) :   0.9913 B(  2-C ,  5-H ) :   0.9916 B(  2-C ,  6-H ) :   0.9581

Dispersion correction           -0.005523433
FINAL SINGLE POINT ENERGY      -153.930674962412

DIPOLE MOMENT
-------------

Method             : SCF
Type of density    : Electron Density
Multiplicity       :   1
Irrep              :   0
Energy             :  -153.9251515290733323 Eh
Relativity type    :
Basis              : AO
                                X                 Y                 Z
Electronic contribution:      1.454095613       3.034353563      -0.071129810
Nuclear contribution   :     -1.746729394      -4.140591374      -0.107314413
                        -----------------------------------------
Total Dipole Moment    :     -0.292633780      -1.106237811      -0.178444223
                        -----------------------------------------
Magnitude (a.u.)       :      1.158118718
Magnitude (Debye)      :      2.943703841

Rotational constants in cm-1:             2.071970             0.327597             0.298388
Rotational constants in MHz :         62116.099573          9821.123751          8945.454812

                             ****ORCA TERMINATED NORMALLY****
TOTAL RUN TIME: 0 days 0 hours 11 minutes 25 seconds 296 msec
