                         Program Version 6.0.0  -   RELEASE  -
|  1> ! Engrad def2-TZVPPD wB97M-D3BJ
|  2> %pal nprocs 8 end%pal nprocs 64 end
|  3> %tddft Nroots 2 Iroot 2
|  4> sf true
|  5> end
|  6> *xyz 0 3
|  7> O   3.32614588 0.75521619 -0.26285517
|  8> O   -0.67607535 0.82878436 -2.51192629
|  9> O   0.67445862 -2.82708529 -1.14422365
| 10> O   -3.55145275 -1.08340475 0.39401999
| 11> N   0.21781421 -1.5965434 0.7009262
| 12> N   -2.00382671 0.3526828 1.25358875
| 13> N   2.0123823 -1.05574661 -0.67547095
| 14> N   -1.91965176 -0.31301471 -0.97378339
| 15> C   1.51010905 0.40854811 1.16508043
| 16> C   -0.49626443 1.41810059 -0.21702384
| 17> C   0.33799409 -0.4174813 1.4804816
| 18> C   -0.59776271 0.75393899 1.14558967
| 19> C   1.96738738 1.47218903 2.0844613
| 20> C   -0.37515237 2.89385557 -0.32847683
| 21> C   2.35150342 0.09402601 0.03234377
| 22> C   -0.98106656 0.65085816 -1.34586121
| 23> C   0.94036513 -1.88931497 -0.43636261
| 24> C   -2.56452953 -0.40061512 0.25651525
| 25> H   0.26477354 -0.65227964 2.53631983
| 26> H   -0.42520692 1.49640513 1.91326684
| 27> H   1.82225963 2.46735214 1.68192665
| 28> H   1.49282206 1.4001535 3.06131381
| 29> H   3.03742403 1.36711227 2.19716137
| 30> H   -1.28303051 3.35250777 0.0911283
| 31> H   0.4619798 3.2575593 0.26741467
| 32> H   -0.25114871 3.18071439 -1.37179196
| 33> H   -0.58543561 -2.18348115 0.81980948
| 34> H   -2.44933614 0.18965104 2.14193018
| 35> H   2.55134338 -1.24639302 -1.52184819
| 36> H   -2.30459415 -0.87121904 -1.71538619
| 37> *
| 38>
| 39>                          ****END OF INPUT****

CARTESIAN COORDINATES (ANGSTROEM)
---------------------------------
  O      3.326146    0.755216   -0.262855
  O     -0.676075    0.828784   -2.511926
  O      0.674459   -2.827085   -1.144224
  O     -3.551453   -1.083405    0.394020
  N      0.217814   -1.596543    0.700926
  N     -2.003827    0.352683    1.253589
  N      2.012382   -1.055747   -0.675471
  N     -1.919652   -0.313015   -0.973783
  C      1.510109    0.408548    1.165080
  C     -0.496264    1.418101   -0.217024
  C      0.337994   -0.417481    1.480482
  C     -0.597763    0.753939    1.145590
  C      1.967387    1.472189    2.084461
  C     -0.375152    2.893856   -0.328477
  C      2.351503    0.094026    0.032344
  C     -0.981067    0.650858   -1.345861
  C      0.940365   -1.889315   -0.436363
  C     -2.564530   -0.400615    0.256515
  H      0.264774   -0.652280    2.536320
  H     -0.425207    1.496405    1.913267
  H      1.822260    2.467352    1.681927
  H      1.492822    1.400154    3.061314
  H      3.037424    1.367112    2.197161
  H     -1.283031    3.352508    0.091128
  H      0.461980    3.257559    0.267415
  H     -0.251149    3.180714   -1.371792
  H     -0.585436   -2.183481    0.819809
  H     -2.449336    0.189651    2.141930
  H      2.551343   -1.246393   -1.521848
  H     -2.304594   -0.871219   -1.715386

 Total Charge           Charge          ....    0
 Multiplicity           Mult            ....    3
 Number of Electrons    NEL             ....  132
 Basis Dimension        Dim             ....  882

ORBITAL ENERGIES
----------------
                 SPIN UP ORBITALS
  NO   OCC          E(Eh)            E(eV)
   0   1.0000     -19.334824      -526.1273
   1   1.0000     -19.330881      -526.0200
   2   1.0000     -19.322241      -525.7849
   3   1.0000     -19.317633      -525.6595
   4   1.0000     -14.563335      -396.2885
   5   1.0000     -14.562863      -396.2756
   6   1.0000     -14.559824      -396.1929
   7   1.0000     -14.559198      -396.1759
   8   1.0000     -10.504938      -285.8539
   9   1.0000     -10.504287      -285.8362
  10   1.0000     -10.481320      -285.2112
  11   1.0000     -10.478643      -285.1384
  12   1.0000     -10.446789      -284.2716
  13   1.0000     -10.441090      -284.1165
  14   1.0000     -10.417730      -283.4809
  15   1.0000     -10.414002      -283.3794
  16   1.0000     -10.377380      -282.3829
  17   1.0000     -10.376925      -282.3705
  18   1.0000      -1.223408       -33.2906
  19   1.0000      -1.218981       -33.1701
  20   1.0000      -1.197488       -32.5853
  21   1.0000      -1.196622       -32.5617
  22   1.0000      -1.125808       -30.6348
  23   1.0000      -1.100349       -29.9420
  24   1.0000      -1.066597       -29.0236
  25   1.0000      -1.058506       -28.8034
  26   1.0000      -1.000525       -27.2257
  27   1.0000      -0.954923       -25.9848
  28   1.0000      -0.895013       -24.3545
  29   1.0000      -0.843615       -22.9559
  30   1.0000      -0.833335       -22.6762
  31   1.0000      -0.804527       -21.8923
  32   1.0000      -0.786889       -21.4123
  33   1.0000      -0.784307       -21.3421
  34   1.0000      -0.709220       -19.2989
  35   1.0000      -0.698118       -18.9968
  36   1.0000      -0.694810       -18.9067
  37   1.0000      -0.679033       -18.4774
  38   1.0000      -0.660317       -17.9681
  39   1.0000      -0.637757       -17.3543
  40   1.0000      -0.625970       -17.0335
  41   1.0000      -0.599954       -16.3256
  42   1.0000      -0.595166       -16.1953
  43   1.0000      -0.589007       -16.0277
  44   1.0000      -0.581283       -15.8175
  45   1.0000      -0.577502       -15.7146
  46   1.0000      -0.566823       -15.4240
  47   1.0000      -0.565025       -15.3751
  48   1.0000      -0.557960       -15.1829
  49   1.0000      -0.554841       -15.0980
  50   1.0000      -0.549880       -14.9630
  51   1.0000      -0.545382       -14.8406
  52   1.0000      -0.537453       -14.6249
  53   1.0000      -0.525576       -14.3016
  54   1.0000      -0.514161       -13.9910
  55   1.0000      -0.509922       -13.8757
  56   1.0000      -0.499023       -13.5791
  57   1.0000      -0.425812       -11.5869
  58   1.0000      -0.421260       -11.4631
  59   1.0000      -0.412093       -11.2136
  60   1.0000      -0.405462       -11.0332
  61   1.0000      -0.399399       -10.8682
  62   1.0000      -0.393005       -10.6942
  63   1.0000      -0.391113       -10.6427
  64   1.0000      -0.382590       -10.4108
  65   1.0000      -0.349005        -9.4969
  66   1.0000      -0.315088        -8.5740
  67   0.0000       0.006789         0.1847
  68   0.0000       0.028009         0.7622
  69   0.0000       0.032965         0.8970
  70   0.0000       0.036108         0.9825
  71   0.0000       0.054719         1.4890

                 SPIN DOWN ORBITALS
  NO   OCC          E(Eh)            E(eV)
   0   1.0000     -19.331100      -526.0260
   1   1.0000     -19.326849      -525.9103
   2   1.0000     -19.321872      -525.7749
   3   1.0000     -19.317665      -525.6604
   4   1.0000     -14.562549      -396.2671
   5   1.0000     -14.561482      -396.2381
   6   1.0000     -14.559476      -396.1835
   7   1.0000     -14.559084      -396.1728
   8   1.0000     -10.504958      -285.8544
   9   1.0000     -10.504342      -285.8377
  10   1.0000     -10.482269      -285.2370
  11   1.0000     -10.479325      -285.1569
  12   1.0000     -10.445959      -284.2490
  13   1.0000     -10.441114      -284.1171
  14   1.0000     -10.405470      -283.1472
  15   1.0000     -10.402603      -283.0692
  16   1.0000     -10.377943      -282.3982
  17   1.0000     -10.377497      -282.3861
  18   1.0000      -1.221731       -33.2450
  19   1.0000      -1.217452       -33.1285
  20   1.0000      -1.192721       -32.4556
  21   1.0000      -1.191750       -32.4292
  22   1.0000      -1.122231       -30.5375
  23   1.0000      -1.097859       -29.8743
  24   1.0000      -1.064471       -28.9657
  25   1.0000      -1.056582       -28.7511
  26   1.0000      -0.987757       -26.8782
  27   1.0000      -0.937794       -25.5187
  28   1.0000      -0.888779       -24.1849
  29   1.0000      -0.837908       -22.8006
  30   1.0000      -0.824517       -22.4363
  31   1.0000      -0.799213       -21.7477
  32   1.0000      -0.785192       -21.3662
  33   1.0000      -0.782340       -21.2886
  34   1.0000      -0.703664       -19.1477
  35   1.0000      -0.690609       -18.7924
  36   1.0000      -0.687279       -18.7018
  37   1.0000      -0.669482       -18.2175
  38   1.0000      -0.650054       -17.6889
  39   1.0000      -0.633989       -17.2517
  40   1.0000      -0.621599       -16.9146
  41   1.0000      -0.595089       -16.1932
  42   1.0000      -0.589201       -16.0330
  43   1.0000      -0.583520       -15.8784
  44   1.0000      -0.573775       -15.6132
  45   1.0000      -0.567296       -15.4369
  46   1.0000      -0.563328       -15.3289
  47   1.0000      -0.561888       -15.2897
  48   1.0000      -0.552036       -15.0217
  49   1.0000      -0.546041       -14.8585
  50   1.0000      -0.541301       -14.7296
  51   1.0000      -0.536833       -14.6080
  52   1.0000      -0.531771       -14.4702
  53   1.0000      -0.516264       -14.0483
  54   1.0000      -0.509026       -13.8513
  55   1.0000      -0.501377       -13.6432
  56   1.0000      -0.491943       -13.3864
  57   1.0000      -0.420351       -11.4383
  58   1.0000      -0.417894       -11.3715
  59   1.0000      -0.407661       -11.0930
  60   1.0000      -0.393971       -10.7205
  61   1.0000      -0.389088       -10.5876
  62   1.0000      -0.387644       -10.5483
  63   1.0000      -0.385641       -10.4938
  64   1.0000      -0.371542       -10.1102
  65   0.0000      -0.068618        -1.8672
  66   0.0000      -0.031024        -0.8442
  67   0.0000       0.006313         0.1718
  68   0.0000       0.028074         0.7639
  69   0.0000       0.032736         0.8908

----------------------------------------------------------------------------------------------------
          SPIN FLIP ABSORPTION SPECTRUM VIA TRANSITION ELECTRIC DIPOLE MOMENTS
----------------------------------------------------------------------------------------------------
     Transition      Energy     Energy  Wavelength fosc(D2)      D2        DX        DY        DZ
                      (eV)      (cm-1)    (nm)                 (au**2)    (au)      (au)      (au)
----------------------------------------------------------------------------------------------------
  1-3A  ->  2-3A    0.414062    3339.6  2994.3   0.000041414   0.00408   0.01387   0.04712  -0.04086

Dispersion correction             ... done (  0.1 sec)

MULLIKEN ATOMIC CHARGES AND SPIN DENSITIES
------------------------------------------
   0 O :   -0.691191    0.042477
   1 O :   -0.667477   -0.038083
   2 O :   -0.656168   -0.000217
   3 O :   -0.646107   -0.000654
   4 N :   -0.212123    0.007109
   5 N :   -0.354058   -0.009025
   6 N :   -0.033760    0.004946
   7 N :    0.065627   -0.003796
   8 C :    0.305455    0.403486
   9 C :    0.953416    0.269734
  10 C :    0.634999   -0.171019
  11 C :    0.193983   -0.190506
  12 C :   -1.614997    0.029158
  13 C :   -1.424823    0.032153
  14 C :    0.329758   -0.145256
  15 C :   -0.276032   -0.316352
  16 C :    0.493248    0.022051
  17 C :    0.357141    0.013966
  18 H :    0.375042    0.001673
  19 H :    0.641830    0.004905
  20 H :    0.255482    0.007628
  21 H :    0.364123    0.001594
  22 H :    0.407649    0.009591
  23 H :    0.365839    0.006947
  24 H :    0.261225    0.027365
  25 H :    0.365849   -0.012175
  26 H :    0.028099   -0.000139
  27 H :    0.105928    0.001132
  28 H :    0.046559   -0.000412
  29 H :    0.025485    0.001721
Sum of atomic charges       :    0.0000000

LOEWDIN ATOMIC CHARGES AND SPIN DENSITIES
-----------------------------------------
   0 O :    0.093864    0.036476
   1 O :    0.095739   -0.037186
   2 O :    0.097672   -0.000437
   3 O :    0.088858   -0.000365
   4 N :    0.299361   -0.000767
   5 N :    0.294250   -0.004997
   6 N :    0.332971    0.004370
   7 N :    0.328264   -0.005660
   8 C :   -0.069314    0.147961
   9 C :   -0.001022   -0.143002
  10 C :   -0.114809    0.013126
  11 C :   -0.128539   -0.002236
  12 C :    0.193577    0.020896
  13 C :    0.210910   -0.023008
  14 C :   -0.403508    0.019458
  15 C :   -0.412216   -0.025859
  16 C :   -0.485318   -0.000175
  17 C :   -0.498910   -0.000150
  18 H :    0.066062    0.003135
  19 H :    0.039114    0.000361
  20 H :   -0.005643    0.006180
  21 H :    0.008845    0.000253
  22 H :    0.008368    0.004892
  23 H :    0.024057   -0.008309
  24 H :   -0.013237   -0.003754
  25 H :    0.008674   -0.000161
  26 H :   -0.030062   -0.000080
  27 H :   -0.027684   -0.000775
  28 H :    0.009688    0.000427
  29 H :   -0.010012   -0.000614

  Mayer bond orders larger than 0.100000
B(  0-O , 12-C ) :   0.1042 B(  0-O , 14-C ) :   1.2498 B(  1-O , 15-C ) :   1.4216
B(  2-O , 16-C ) :   1.5220 B(  3-O , 17-C ) :   1.5821 B(  4-N ,  8-C ) :   0.1732
B(  4-N ,  9-C ) :   0.1237 B(  4-N , 10-C ) :   0.5135 B(  4-N , 11-C ) :  -0.1053
B(  4-N , 16-C ) :   1.0246 B(  4-N , 26-H ) :   1.0997 B(  5-N ,  9-C ) :   0.1918
B(  5-N , 10-C ) :   0.1712 B(  5-N , 11-C ) :  -0.1887 B(  5-N , 15-C ) :   0.1288
B(  5-N , 17-C ) :   1.2299 B(  5-N , 27-H ) :   1.0195 B(  6-N , 10-C ) :   0.1003
B(  6-N , 14-C ) :   0.9905 B(  6-N , 16-C ) :   0.9307 B(  6-N , 28-H ) :   1.0910
B(  7-N , 10-C ) :  -0.1311 B(  7-N , 11-C ) :   0.1652 B(  7-N , 15-C ) :   0.9431
B(  7-N , 17-C ) :   0.9868 B(  7-N , 29-H ) :   1.1080 B(  8-C ,  9-C ) :   0.1890
B(  8-C , 10-C ) :   0.3285 B(  8-C , 11-C ) :   0.5149 B(  8-C , 12-C ) :   0.3504
B(  8-C , 14-C ) :   0.7297 B(  8-C , 18-H ) :  -0.2574 B(  8-C , 21-H ) :  -0.1811
B(  9-C , 11-C ) :   0.7572 B(  9-C , 13-C ) :   0.3381 B(  9-C , 15-C ) :   0.3081
B( 10-C , 11-C ) :   0.2520 B( 10-C , 12-C ) :  -0.4098 B( 10-C , 15-C ) :  -0.1011
B( 10-C , 18-H ) :   1.1116 B( 10-C , 19-H ) :  -0.1383 B( 11-C , 12-C ) :   0.2179
B( 11-C , 13-C ) :  -0.1914 B( 11-C , 15-C ) :  -0.1042 B( 11-C , 17-C ) :  -0.2394
B( 11-C , 18-H ) :  -0.1648 B( 11-C , 19-H ) :   0.7451 B( 12-C , 20-H ) :   0.8414
B( 12-C , 21-H ) :   1.1134 B( 12-C , 22-H ) :   0.8697 B( 13-C , 23-H ) :   0.8440
B( 13-C , 24-H ) :   1.0393 B( 13-C , 25-H ) :   0.9579

Dispersion correction           -0.060074397
FINAL SINGLE POINT ENERGY      -908.779251934675

DIPOLE MOMENT
-------------

Method             : TDA/CIS
Type of density    : Electron Density
Level              : Relaxed density
State              :   2
Multiplicity       :   3
Irrep              :   0
Energy             :     0.0000000000000000 Eh
Relativity type    :
Basis              : AO
                                X                 Y                 Z
Electronic contribution:     -2.228704233      -9.667662946      -6.659755077
Nuclear contribution   :      2.168884822      11.076781953       9.239965114
                        -----------------------------------------
Total Dipole Moment    :     -0.059819411       1.409119007       2.580210037
                        -----------------------------------------
Magnitude (a.u.)       :      2.940523520
Magnitude (Debye)      :      7.474216802

Rotational constants in cm-1:             0.020311             0.014246             0.012482
Rotational constants in MHz :           608.905672           427.084683           374.191909

                             ****ORCA TERMINATED NORMALLY****
TOTAL RUN TIME: 0 days 0 hours 4 minutes 43 seconds 947 msec
