                         Program Version 6.0.0  -   RELEASE  -
|  1> ! Opt wB97M-D3BJ def2-TZVPPD
|  2> %pal nprocs 8 end %pal nprocs 64 end
|  3> %geom
|  4> Constraints
|  5>     {A 2 1 0 129.0909090909091 C }
|  6> end
|  7> MaxIter 500
|  8> end
|  9> *xyz 0 1
| 10> O   -0.0007 0.8141 0.0
| 11> C   0.7509 -0.4065 0.0
| 12> C   -0.7502 -0.4076 0.0
| 13> H   1.2625 -0.6786 0.9136
| 14> H   1.2625 -0.6787 -0.9136
| 15> H   -1.2614 -0.6806 -0.9136
| 16> H   -1.2614 -0.6805 0.9136
| 17> *
| 18>
| 19>                          ****END OF INPUT****
 Total Charge           Charge          ....    0
 Multiplicity           Mult            ....    1
 Number of Electrons    NEL             ....   24
Dispersion correction           -0.005736332
FINAL SINGLE POINT ENERGY      -153.564657066043
Dispersion correction             ... done (  0.1 sec)
Dispersion correction           -0.005643927
FINAL SINGLE POINT ENERGY      -153.678904946722
Dispersion correction             ... done (  0.1 sec)
Dispersion correction           -0.005577415
FINAL SINGLE POINT ENERGY      -153.708312290196
Dispersion correction             ... done (  0.1 sec)
FINAL SINGLE POINT ENERGY      -153.719886756643
FINAL SINGLE POINT ENERGY      -153.724202718027
FINAL SINGLE POINT ENERGY      -153.727765748160
FINAL SINGLE POINT ENERGY      -153.731263915355
FINAL SINGLE POINT ENERGY      -153.732788069729
FINAL SINGLE POINT ENERGY      -153.733837416285
FINAL SINGLE POINT ENERGY      -153.736310655599
FINAL SINGLE POINT ENERGY      -153.931015898267
FINAL SINGLE POINT ENERGY      -153.931017307366
FINAL SINGLE POINT ENERGY      -153.931019541274
FINAL SINGLE POINT ENERGY      -153.931023728396
FINAL SINGLE POINT ENERGY      -153.931031129452
FINAL SINGLE POINT ENERGY      -153.931042783562
FINAL SINGLE POINT ENERGY      -153.931056182818
Dispersion correction             ... done (  0.1 sec)
Dispersion correction           -0.005525588
FINAL SINGLE POINT ENERGY      -153.931065505647
Dispersion correction             ... done (  0.1 sec)
Dispersion correction           -0.005526050
FINAL SINGLE POINT ENERGY      -153.931067401362
Dispersion correction             ... done (  0.1 sec)
                    ***********************HURRAY********************

CARTESIAN COORDINATES (ANGSTROEM)
---------------------------------
  O      0.709376    1.335867    0.077612
  C      0.559465    0.191833   -0.253588
  C     -0.450326   -0.805017    0.224702
  H      0.079441   -1.666438    0.632054
  H      1.242872   -0.230885   -1.020087
  H     -1.022065   -1.158629   -0.633712
  H     -1.116562   -0.385131    0.973019

 Multiplicity           Mult            ....    1
 Number of Electrons    NEL             ....   24
 Basis Dimension        Dim             ....  182

ORBITAL ENERGIES
----------------

  NO   OCC          E(Eh)            E(eV)
   0   2.0000     -19.340408      -526.2793
   1   2.0000     -10.443296      -284.1765
   2   2.0000     -10.359597      -281.8990
   3   2.0000      -1.188893       -32.3514
   4   2.0000      -0.887866       -24.1601
   5   2.0000      -0.700611       -19.0646
   6   2.0000      -0.597753       -16.2657
   7   2.0000      -0.562575       -15.3084
   8   2.0000      -0.556406       -15.1406
   9   2.0000      -0.509062       -13.8523
  10   2.0000      -0.477658       -12.9977
  11   2.0000      -0.367717       -10.0061
  12   0.0000       0.036756         1.0002
  13   0.0000       0.055822         1.5190
  14   0.0000       0.059233         1.6118
  15   0.0000       0.082746         2.2516
  16   0.0000       0.085916         2.3379

MULLIKEN ATOMIC CHARGES
-----------------------
   0 O :   -0.475147
   1 C :    0.233391
   2 C :   -0.694772
   3 H :    0.230058
   4 H :    0.235286
   5 H :    0.229881
   6 H :    0.241304
Sum of atomic charges:    0.0000000

LOEWDIN ATOMIC CHARGES
----------------------
   0 O :    0.072395
   1 C :   -0.237113
   2 C :    0.170167
   3 H :   -0.009820
   4 H :    0.022626
   5 H :   -0.009790
   6 H :   -0.008465

  Mayer bond orders larger than 0.100000
B(  0-O ,  1-C ) :   1.7700 B(  1-C ,  2-C ) :   0.7523 B(  1-C ,  4-H ) :   0.9910
B(  2-C ,  3-H ) :   0.9917 B(  2-C ,  5-H ) :   0.9919 B(  2-C ,  6-H ) :   0.9576

Dispersion correction           -0.005525979
FINAL SINGLE POINT ENERGY      -153.931067647381

DIPOLE MOMENT
-------------

Method             : SCF
Type of density    : Electron Density
Multiplicity       :   1
Irrep              :   0
Energy             :  -153.9255416687048807 Eh
Relativity type    :
Basis              : AO
                                X                 Y                 Z
Electronic contribution:      1.476366801       3.009548222      -0.073066333
Nuclear contribution   :     -1.767705230      -4.109899848      -0.116886623
                        -----------------------------------------
Total Dipole Moment    :     -0.291338430      -1.100351625      -0.189952956
                        -----------------------------------------
Magnitude (a.u.)       :      1.154007758
Magnitude (Debye)      :      2.933254611

Rotational constants in cm-1:             2.044775             0.329741             0.299584
Rotational constants in MHz :         61300.824087          9885.391361          8981.300305

                             ****ORCA TERMINATED NORMALLY****
TOTAL RUN TIME: 0 days 0 hours 10 minutes 3 seconds 375 msec
