                         Program Version 6.0.0  -   RELEASE  -
|  1> ! Engrad def2-TZVPPD wB97M-D3BJ
|  2> %pal nprocs 8 end%pal nprocs 64 end
|  3> %tddft
|  4>  Iroot 1 Nroots 3
|  5> sf true
|  6> end
|  7> *xyz 0 3
|  8> O   1.31575422 0.63933563 -0.37848565
|  9> C   0.42196526 0.28014814 0.53365717
| 10> C   -0.55508494 -0.78401347 0.09920431
| 11> H   -0.16201416 1.16611991 0.75565979
| 12> H   0.95187237 0.03130393 1.43126723
| 13> H   -0.76210957 -0.7961262 -0.93297513
| 14> H   -0.55472799 -1.86539614 0.48979551
| 15> *
| 16>
| 17>                          ****END OF INPUT****

CARTESIAN COORDINATES (ANGSTROEM)
---------------------------------
  O      1.315754    0.639336   -0.378486
  C      0.421965    0.280148    0.533657
  C     -0.555085   -0.784013    0.099204
  H     -0.162014    1.166120    0.755660
  H      0.951872    0.031304    1.431267
  H     -0.762110   -0.796126   -0.932975
  H     -0.554728   -1.865396    0.489796

 Total Charge           Charge          ....    0
 Multiplicity           Mult            ....    3
 Number of Electrons    NEL             ....   24
 Basis Dimension        Dim             ....  182

ORBITAL ENERGIES
----------------
                 SPIN UP ORBITALS
  NO   OCC          E(Eh)            E(eV)
   0   1.0000     -19.388357      -527.5840
   1   1.0000     -10.409974      -283.2698
   2   1.0000     -10.370714      -282.2015
   3   1.0000      -1.187849       -32.3230
   4   1.0000      -0.871218       -23.7070
   5   1.0000      -0.742307       -20.1992
   6   1.0000      -0.628260       -17.0958
   7   1.0000      -0.585685       -15.9373
   8   1.0000      -0.562374       -15.3030
   9   1.0000      -0.505678       -13.7602
  10   1.0000      -0.437619       -11.9082
  11   1.0000      -0.415308       -11.3011
  12   1.0000      -0.334230        -9.0948
  13   0.0000       0.041706         1.1349
  14   0.0000       0.061635         1.6772
  15   0.0000       0.077952         2.1212
  16   0.0000       0.086714         2.3596
  17   0.0000       0.111455         3.0328

                 SPIN DOWN ORBITALS
  NO   OCC          E(Eh)            E(eV)
   0   1.0000     -19.364838      -526.9440
   1   1.0000     -10.410914      -283.2954
   2   1.0000     -10.357181      -281.8332
   3   1.0000      -1.136574       -30.9277
   4   1.0000      -0.838106       -22.8060
   5   1.0000      -0.716113       -19.4864
   6   1.0000      -0.590717       -16.0742
   7   1.0000      -0.548901       -14.9363
   8   1.0000      -0.538128       -14.6432
   9   1.0000      -0.482173       -13.1206
  10   1.0000      -0.383421       -10.4334
  11   0.0000      -0.056490        -1.5372
  12   0.0000      -0.006231        -0.1696
  13   0.0000       0.041161         1.1200
  14   0.0000       0.062309         1.6955
  15   0.0000       0.078232         2.1288

----------------------------------------------------------------------------------------------------
          SPIN FLIP ABSORPTION SPECTRUM VIA TRANSITION ELECTRIC DIPOLE MOMENTS
----------------------------------------------------------------------------------------------------
     Transition      Energy     Energy  Wavelength fosc(D2)      D2        DX        DY        DZ
                      (eV)      (cm-1)    (nm)                 (au**2)    (au)      (au)      (au)
----------------------------------------------------------------------------------------------------
  1-3A  ->  2-3A    0.245621    1981.1  5047.8   0.000182235   0.03028  -0.12289  -0.12303  -0.00668
  1-3A  ->  3-3A    0.931757    7515.1  1330.6   0.003271914   0.14333  -0.27430  -0.14650   0.21594

Dispersion correction             ... done (  0.1 sec)

MULLIKEN ATOMIC CHARGES AND SPIN DENSITIES
------------------------------------------
   0 O :   -0.451725   -0.542692
   1 C :    0.035825   -0.024580
   2 C :   -0.522070    0.438490
   3 H :    0.226733    0.095440
   4 H :    0.207453   -0.044773
   5 H :    0.290321    0.049895
   6 H :    0.213463    0.028219
Sum of atomic charges       :   -0.0000000

LOEWDIN ATOMIC CHARGES AND SPIN DENSITIES
-----------------------------------------
   0 O :    0.000257   -0.531776
   1 C :   -0.313582    0.012919
   2 C :    0.341616    0.418710
   3 H :    0.017792    0.039391
   4 H :    0.023681   -0.036112
   5 H :   -0.076381    0.053088
   6 H :    0.006617    0.043779

  Mayer bond orders larger than 0.100000
B(  0-O ,  1-C ) :   0.9841 B(  0-O ,  2-C ) :   0.2894 B(  1-C ,  2-C ) :   0.7658
B(  1-C ,  3-H ) :   0.9691 B(  1-C ,  4-H ) :   0.9314 B(  2-C ,  5-H ) :   0.9507
B(  2-C ,  6-H ) :   0.9811

Dispersion correction           -0.005514381
FINAL SINGLE POINT ENERGY      -153.750063278056

DIPOLE MOMENT
-------------

Method             : TDA/CIS
Type of density    : Electron Density
Level              : Relaxed density
State              :   1
Multiplicity       :   3
Irrep              :   0
Energy             :     0.0000000000000000 Eh
Relativity type    :
Basis              : AO
                                X                 Y                 Z
Electronic contribution:      1.307542360       0.992970620      -0.745378692
Nuclear contribution   :     -2.093070419      -1.595121331       1.347814696
                        -----------------------------------------
Total Dipole Moment    :     -0.785528059      -0.602150711       0.602436004
                        -----------------------------------------
Magnitude (a.u.)       :      1.158692776
Magnitude (Debye)      :      2.945162980

Rotational constants in cm-1:             1.482832             0.351836             0.310277
Rotational constants in MHz :         44454.192948         10547.787899          9301.860969

                             ****ORCA TERMINATED NORMALLY****
TOTAL RUN TIME: 0 days 0 hours 0 minutes 26 seconds 775 msec
