                         Program Version 6.0.0  -   RELEASE  -
|  1> ! EnGrad wB97M-D3BJ def2-TZVPPD
|  2> %pal nprocs 8 end%pal nprocs 16 end
|  3> %tddft
|  4>  sf true
|  5>  nroots 2 Iroot 1 end
|  6> *xyz 0 3
|  7> O   -0.0879363416131 0.75586542501758 -3.837577214e-05
|  8> C   0.78661644130879 -0.51248502409384 2.941854835e-05
|  9> C   -0.74310308321484 -0.367534524194 -1.34912904e-05
| 10> H   1.29848124658852 -0.6500708647891 0.93634670552761
| 11> H   1.29842161824786 -0.6502856963997 -0.93629162554224
| 12> H   -1.27514969203709 -0.64691202836792 -0.91057101695109
| 13> H   -1.27513018928014 -0.64697728717302 0.91053838547992
| 14> *
| 15>
| 16>                          ****END OF INPUT****

CARTESIAN COORDINATES (ANGSTROEM)
---------------------------------
  O     -0.087936    0.755865   -0.000038
  C      0.786616   -0.512485    0.000029
  C     -0.743103   -0.367535   -0.000013
  H      1.298481   -0.650071    0.936347
  H      1.298422   -0.650286   -0.936292
  H     -1.275150   -0.646912   -0.910571
  H     -1.275130   -0.646977    0.910538

 Total Charge           Charge          ....    0
 Multiplicity           Mult            ....    3
 Number of Electrons    NEL             ....   24
 Basis Dimension        Dim             ....  182

ORBITAL ENERGIES
----------------
                 SPIN UP ORBITALS
  NO   OCC          E(Eh)            E(eV)
   0   1.0000     -19.467917      -529.7489
   1   1.0000     -10.426250      -283.7127
   2   1.0000     -10.370215      -282.1879
   3   1.0000      -1.317573       -35.8530
   4   1.0000      -0.839512       -22.8443
   5   1.0000      -0.795345       -21.6424
   6   1.0000      -0.696673       -18.9574
   7   1.0000      -0.654031       -17.7971
   8   1.0000      -0.592031       -16.1100
   9   1.0000      -0.510645       -13.8954
  10   1.0000      -0.495810       -13.4917
  11   1.0000      -0.437937       -11.9169
  12   1.0000      -0.142698        -3.8830
  13   0.0000       0.035147         0.9564
  14   0.0000       0.061068         1.6618
  15   0.0000       0.069743         1.8978
  16   0.0000       0.084242         2.2923
  17   0.0000       0.110597         3.0095

                 SPIN DOWN ORBITALS
  NO   OCC          E(Eh)            E(eV)
   0   1.0000     -19.436762      -528.9012
   1   1.0000     -10.425985      -283.7055
   2   1.0000     -10.361810      -281.9592
   3   1.0000      -1.257145       -34.2087
   4   1.0000      -0.806226       -21.9385
   5   1.0000      -0.772845       -21.0302
   6   1.0000      -0.634219       -17.2580
   7   1.0000      -0.624228       -16.9861
   8   1.0000      -0.550695       -14.9852
   9   1.0000      -0.493354       -13.4248
  10   1.0000      -0.406070       -11.0497
  11   0.0000      -0.123238        -3.3535
  12   0.0000       0.031430         0.8553
  13   0.0000       0.057404         1.5620
  14   0.0000       0.064261         1.7486
  15   0.0000       0.064805         1.7634

----------------------------------------------------------------------------------------------------
          SPIN FLIP ABSORPTION SPECTRUM VIA TRANSITION ELECTRIC DIPOLE MOMENTS
----------------------------------------------------------------------------------------------------
     Transition      Energy     Energy  Wavelength fosc(D2)      D2        DX        DY        DZ
                      (eV)      (cm-1)    (nm)                 (au**2)    (au)      (au)      (au)
----------------------------------------------------------------------------------------------------
  1-3A  ->  2-3A    6.583795   53101.9   188.3   0.008189168   0.05077  -0.00004   0.00005   0.22532

Dispersion correction             ... done (  0.0 sec)

MULLIKEN ATOMIC CHARGES AND SPIN DENSITIES
------------------------------------------
   0 O :   -0.371280    0.055732
   1 C :   -0.466358    0.028644
   2 C :   -0.118660   -0.077378
   3 H :    0.287663   -0.027240
   4 H :    0.287625   -0.027219
   5 H :    0.190518    0.023718
   6 H :    0.190492    0.023743
Sum of atomic charges       :   -0.0000000

LOEWDIN ATOMIC CHARGES AND SPIN DENSITIES
-----------------------------------------
   0 O :   -0.065500    0.027074
   1 C :    0.178188   -0.025761
   2 C :   -0.141878    0.001958
   3 H :   -0.002595   -0.008261
   4 H :   -0.002595   -0.008266
   5 H :    0.017191    0.006627
   6 H :    0.017189    0.006628

  Mayer bond orders larger than 0.100000
B(  0-O ,  1-C ) :   0.8914 B(  0-O ,  2-C ) :   0.8158 B(  1-C ,  2-C ) :   0.7286
B(  1-C ,  3-H ) :   0.9083 B(  1-C ,  4-H ) :   0.9084 B(  2-C ,  5-H ) :   1.0167
B(  2-C ,  6-H ) :   1.0168

Dispersion correction           -0.005182867
FINAL SINGLE POINT ENERGY      -153.859575222442

DIPOLE MOMENT
-------------

Method             : TDA/CIS
Type of density    : Electron Density
Level              : Relaxed density
State              :   1
Multiplicity       :   3
Irrep              :   0
Energy             :     0.0000000000000000 Eh
Relativity type    :
Basis              : AO
                                X                 Y                 Z
Electronic contribution:      0.070634511       1.272029197      -0.000020363
Nuclear contribution   :      0.114043990      -2.329306775       0.000054706
                        -----------------------------------------
Total Dipole Moment    :      0.184678501      -1.057277579       0.000034343
                        -----------------------------------------
Magnitude (a.u.)       :      1.073285623
Magnitude (Debye)      :      2.728075250

Rotational constants in cm-1:             0.941884             0.663271             0.462665
Rotational constants in MHz :         28236.968813         19884.350186         13870.357725

                             ****ORCA TERMINATED NORMALLY****
TOTAL RUN TIME: 0 days 0 hours 0 minutes 20 seconds 801 msec
