                         Program Version 6.0.0  -   RELEASE  -
|  1> ! opt def2-TZVPPD wB97M-D3BJ
|  2> %pal nprocs 24 end%geom Constraints
|  3> {B 9 8 3.0 C}
|  4> {A 8 9 11 88.85714285714286 C}
|  5>  end
|  6>  end
|  7> *xyz 0 1
|  8> O   2.98579685529314 0.88758230159078 -0.86184571092411
|  9> O   -0.03983205397054 0.68929041702508 -2.10362336723772
| 10> O   0.93431434349854 -3.13274393337945 -0.68767288184107
| 11> O   -3.75829998830163 -0.84727300865116 -0.0472717177755
| 12> N   0.21184538946282 -1.54604804365365 0.7617588924445
| 13> N   -2.13631993928911 0.03188773433438 1.27350571071531
| 14> N   2.02598672506387 -1.14318467211666 -0.64531219127023
| 15> N   -1.91814233924584 0.03137116037665 -1.04498946748291
| 16> C   1.18097737274226 0.71693507080484 0.70173889017321
| 17> C   -0.20686880480777 1.27024627933494 0.21345042231937
| 18> C   0.41441080275909 -0.34173258966541 1.52336266615173
| 19> C   -0.82922175114212 0.58960593673968 1.44434972027296
| 20> C   1.92822011286806 1.69488653817281 1.5963734975385
| 21> C   -0.37809776891576 2.77134929626422 0.04819649358288
| 22> C   2.1403947470937 0.1972384729179 -0.35038567829864
| 23> C   -0.67361678962426 0.6214190571346 -1.0793014500539
| 24> C   1.04142578622994 -2.02697492875068 -0.21027082435993
| 25> C   -2.68467002550422 -0.30396816036989 0.07167054343891
| 26> H   0.80817443950001 -0.54572267081061 2.51895215321335
| 27> H   -0.83785272399001 1.27240685039143 2.28901317073582
| 28> H   2.31167340578204 2.52284411740894 1.00913016264629
| 29> H   1.28982602448342 2.08257620823614 2.38710022492991
| 30> H   2.77390820759972 1.19140411795486 2.06045858523949
| 31> H   -1.41857211141493 3.00964947214868 -0.16882755561625
| 32> H   -0.09065531563179 3.29799318042223 0.95389844358819
| 33> H   0.23426221611057 3.12492645074476 -0.77764887675592
| 34> H   -0.46772570547622 -2.21560145172536 1.0787081584806
| 35> H   -2.71769301149571 -0.17090724573546 2.06627440900372
| 36> H   2.60065167263658 -1.49057255715425 -1.3966820077142
| 37> H   -2.27169977231386 -0.32388339999036 -1.91951041514436
| 38> *
| 39>
| 40>                          ****END OF INPUT****
 Total Charge           Charge          ....    0
 Multiplicity           Mult            ....    1
 Number of Electrons    NEL             ....  132
Dispersion correction           -0.053483547
FINAL SINGLE POINT ENERGY      -908.618011128826
Dispersion correction             ... done (  0.1 sec)
Dispersion correction           -0.054097068
FINAL SINGLE POINT ENERGY      -908.649751130919
Dispersion correction             ... done (  0.0 sec)
Dispersion correction           -0.054850103
FINAL SINGLE POINT ENERGY      -908.670225419266
Dispersion correction             ... done (  0.1 sec)
FINAL SINGLE POINT ENERGY      -908.689306592570
FINAL SINGLE POINT ENERGY      -908.750517313820
FINAL SINGLE POINT ENERGY      -908.811843509088
FINAL SINGLE POINT ENERGY      -908.843487676239
FINAL SINGLE POINT ENERGY      -908.861336388732
FINAL SINGLE POINT ENERGY      -908.881589954458
FINAL SINGLE POINT ENERGY      -908.900698312729
FINAL SINGLE POINT ENERGY      -908.930129452955
FINAL SINGLE POINT ENERGY      -908.930308424398
FINAL SINGLE POINT ENERGY      -908.930430933834
FINAL SINGLE POINT ENERGY      -908.930502598610
FINAL SINGLE POINT ENERGY      -908.930545939896
FINAL SINGLE POINT ENERGY      -908.930566006032
FINAL SINGLE POINT ENERGY      -908.930573685509
Dispersion correction             ... done (  0.1 sec)
Dispersion correction           -0.060792453
FINAL SINGLE POINT ENERGY      -908.930577181680
Dispersion correction             ... done (  0.1 sec)
Dispersion correction           -0.060800783
FINAL SINGLE POINT ENERGY      -908.930578686048
Dispersion correction             ... done (  0.1 sec)
                    ***********************HURRAY********************

CARTESIAN COORDINATES (ANGSTROEM)
---------------------------------
  O      2.697653    1.129582   -0.613055
  O     -0.491981    0.828770   -2.158826
  O      0.765838   -2.886062   -1.505059
  O     -2.629690   -1.652837    0.985381
  N      0.601891   -2.040738    0.603132
  N     -2.130811    0.519484    1.453865
  N      1.802066   -0.914135   -1.007515
  N     -1.644608   -0.357371   -0.614494
  C      1.393964    0.152913    1.110664
  C     -0.815118    1.831661   -0.030284
  C      0.752390   -0.972160    1.454823
  C     -1.481579    1.688110    1.118967
  C      1.650837    1.275064    2.064329
  C     -0.085856    3.075724   -0.424826
  C      2.025798    0.204533   -0.208972
  C     -0.942059    0.774597   -1.036564
  C      1.035169   -2.018371   -0.705741
  C     -2.174040   -0.584667    0.633246
  H      0.308477   -1.103608    2.430024
  H     -1.498873    2.457865    1.875175
  H      1.406649    2.233838    1.616540
  H      1.064909    1.147564    2.972444
  H      2.704933    1.312482    2.334906
  H     -0.523068    3.502009   -1.325570
  H     -0.127100    3.815595    0.371610
  H      0.955011    2.852034   -0.649802
  H     -0.039056   -2.781380    0.831767
  H     -2.556497    0.402258    2.355298
  H      2.112217   -0.847366   -1.964425
  H     -1.684864   -1.130386   -1.262439

 Multiplicity           Mult            ....    1
 Number of Electrons    NEL             ....  132
 Basis Dimension        Dim             ....  882

ORBITAL ENERGIES
----------------

  NO   OCC          E(Eh)            E(eV)
   0   2.0000     -19.330962      -526.0222
   1   2.0000     -19.324570      -525.8483
   2   2.0000     -19.319393      -525.7074
   3   2.0000     -19.318705      -525.6887
   4   2.0000     -14.587957      -396.9585
   5   2.0000     -14.574772      -396.5997
   6   2.0000     -14.572378      -396.5346
   7   2.0000     -14.562569      -396.2677
   8   2.0000     -10.517117      -286.1853
   9   2.0000     -10.505280      -285.8632
  10   2.0000     -10.480080      -285.1775
  11   2.0000     -10.474803      -285.0339
  12   2.0000     -10.431369      -283.8520
  13   2.0000     -10.428008      -283.7605
  14   2.0000     -10.380786      -282.4756
  15   2.0000     -10.378622      -282.4167
  16   2.0000     -10.359949      -281.9085
  17   2.0000     -10.350767      -281.6587
  18   2.0000      -1.230037       -33.4710
  19   2.0000      -1.218741       -33.1636
  20   2.0000      -1.195989       -32.5445
  21   2.0000      -1.188537       -32.3417
  22   2.0000      -1.125725       -30.6325
  23   2.0000      -1.116119       -30.3712
  24   2.0000      -1.072715       -29.1901
  25   2.0000      -1.063108       -28.9286
  26   2.0000      -0.961351       -26.1597
  27   2.0000      -0.952186       -25.9103
  28   2.0000      -0.848198       -23.0807
  29   2.0000      -0.847106       -23.0509
  30   2.0000      -0.812429       -22.1073
  31   2.0000      -0.807074       -21.9616
  32   2.0000      -0.796424       -21.6718
  33   2.0000      -0.787384       -21.4258
  34   2.0000      -0.697256       -18.9733
  35   2.0000      -0.694571       -18.9002
  36   2.0000      -0.690696       -18.7948
  37   2.0000      -0.686921       -18.6921
  38   2.0000      -0.644837       -17.5469
  39   2.0000      -0.639766       -17.4089
  40   2.0000      -0.633724       -17.2445
  41   2.0000      -0.599302       -16.3078
  42   2.0000      -0.597681       -16.2637
  43   2.0000      -0.590989       -16.0816
  44   2.0000      -0.570174       -15.5152
  45   2.0000      -0.567261       -15.4360
  46   2.0000      -0.559314       -15.2197
  47   2.0000      -0.552291       -15.0286
  48   2.0000      -0.548940       -14.9374
  49   2.0000      -0.540273       -14.7016
  50   2.0000      -0.520695       -14.1688
  51   2.0000      -0.519218       -14.1286
  52   2.0000      -0.514721       -14.0063
  53   2.0000      -0.511830       -13.9276
  54   2.0000      -0.504196       -13.7199
  55   2.0000      -0.497882       -13.5480
  56   2.0000      -0.480723       -13.0811
  57   2.0000      -0.471829       -12.8391
  58   2.0000      -0.422607       -11.4997
  59   2.0000      -0.411568       -11.1993
  60   2.0000      -0.406226       -11.0540
  61   2.0000      -0.394792       -10.7428
  62   2.0000      -0.388488       -10.5713
  63   2.0000      -0.383049       -10.4233
  64   2.0000      -0.354532        -9.6473
  65   2.0000      -0.336384        -9.1535
  66   0.0000       0.009869         0.2685
  67   0.0000       0.014136         0.3847
  68   0.0000       0.025156         0.6845
  69   0.0000       0.034391         0.9358
  70   0.0000       0.040175         1.0932

MULLIKEN ATOMIC CHARGES
-----------------------
   0 O :   -0.675262
   1 O :   -0.661356
   2 O :   -0.651236
   3 O :   -0.667365
   4 N :   -0.066048
   5 N :   -0.006160
   6 N :    0.036186
   7 N :    0.016900
   8 C :    0.947844
   9 C :    0.469733
  10 C :    0.016430
  11 C :    0.218434
  12 C :   -1.514864
  13 C :   -1.514552
  14 C :    0.255440
  15 C :    0.575027
  16 C :    0.432523
  17 C :    0.445139
  18 H :    0.184741
  19 H :    0.164851
  20 H :    0.221431
  21 H :    0.329205
  22 H :    0.388985
  23 H :    0.372328
  24 H :    0.331949
  25 H :    0.233851
  26 H :    0.060141
  27 H :    0.018717
  28 H :    0.022601
  29 H :    0.014388
Sum of atomic charges:   -0.0000000

LOEWDIN ATOMIC CHARGES
----------------------
   0 O :    0.092416
   1 O :    0.105509
   2 O :    0.087452
   3 O :    0.074660
   4 N :    0.279205
   5 N :    0.284531
   6 N :    0.344990
   7 N :    0.345084
   8 C :   -0.143090
   9 C :   -0.148912
  10 C :    0.042394
  11 C :    0.046764
  12 C :    0.181033
  13 C :    0.180522
  14 C :   -0.399394
  15 C :   -0.393954
  16 C :   -0.481587
  17 C :   -0.493750
  18 H :    0.040536
  19 H :    0.039756
  20 H :   -0.021987
  21 H :   -0.003510
  22 H :    0.005803
  23 H :    0.004304
  24 H :   -0.003802
  25 H :   -0.017944
  26 H :   -0.020870
  27 H :   -0.019685
  28 H :   -0.001757
  29 H :   -0.004717

  Mayer bond orders larger than 0.100000
B(  0-O , 14-C ) :   1.4272 B(  1-O , 15-C ) :   1.4067 B(  2-O , 16-C ) :   1.5664
B(  3-O , 17-C ) :   1.5442 B(  4-N , 10-C ) :   0.8423 B(  4-N , 16-C ) :   1.0059
B(  4-N , 26-H ) :   1.1183 B(  5-N , 11-C ) :   0.9648 B(  5-N , 17-C ) :   1.0337
B(  5-N , 27-H ) :   1.1355 B(  6-N ,  8-C ) :  -0.1030 B(  6-N , 14-C ) :   1.0553
B(  6-N , 16-C ) :   0.9228 B(  6-N , 28-H ) :   1.1050 B(  7-N , 15-C ) :   0.9839
B(  7-N , 17-C ) :   0.9346 B(  7-N , 29-H ) :   1.1245 B(  8-C , 10-C ) :   1.0585
B(  8-C , 12-C ) :   0.3403 B(  8-C , 14-C ) :   0.6337 B(  8-C , 18-H ) :  -0.1075
B(  8-C , 20-H ) :  -0.1011 B(  9-C , 11-C ) :   1.1029 B(  9-C , 13-C ) :   0.3671
B(  9-C , 15-C ) :   0.7467 B(  9-C , 24-H ) :  -0.1138 B(  9-C , 25-H ) :  -0.1080
B( 10-C , 12-C ) :  -0.1781 B( 10-C , 18-H ) :   1.1457 B( 11-C , 13-C ) :  -0.2493
B( 11-C , 19-H ) :   1.0955 B( 12-C , 20-H ) :   1.0293 B( 12-C , 21-H ) :   1.0308
B( 12-C , 22-H ) :   0.8603 B( 13-C , 23-H ) :   0.8606 B( 13-C , 24-H ) :   1.0705
B( 13-C , 25-H ) :   0.9921

Dispersion correction           -0.060802261
FINAL SINGLE POINT ENERGY      -908.930579157468

DIPOLE MOMENT
-------------

Method             : SCF
Type of density    : Electron Density
Multiplicity       :   1
Irrep              :   0
Energy             :  -908.8697768967831507 Eh
Relativity type    :
Basis              : AO
                                X                 Y                 Z
Electronic contribution:     -2.520675707     -10.220170226      -5.990602880
Nuclear contribution   :      1.776476525      11.220637532       8.459089058
                        -----------------------------------------
Total Dipole Moment    :     -0.744199182       1.000467306       2.468486178
                        -----------------------------------------
Magnitude (a.u.)       :      2.765536343
Magnitude (Debye)      :      7.029434745

Rotational constants in cm-1:             0.017745             0.016644             0.012967
Rotational constants in MHz :           531.977619           498.983288           388.737047

                             ****ORCA TERMINATED NORMALLY****
TOTAL RUN TIME: 0 days 2 hours 45 minutes 1 seconds 954 msec
