                         Program Version 6.0.0  -   RELEASE  -
|  1> ! Engrad def2-TZVPPD wB97M-D3BJ
|  2> %pal nprocs 8 end%pal nprocs 32 end
|  3>  %tddft nroots 2 Iroot 2
|  4> sf true
|  5> end
|  6> *xyz 0 3
|  7> O   3.17106891043803 -1.55434313406195 2.55088709091774
|  8> O   -1.63108341601261 0.65817925257593 -2.60114873135875
|  9> O   1.59272955791558 -1.953473819106 -1.71628223892436
| 10> O   -3.50744883059592 -0.98169912046384 1.16674997059202
| 11> N   1.52948505069362 -0.12435997259419 -0.256312059405
| 12> N   -1.79876725746562 0.5064171023526 1.40209026048162
| 13> N   2.51910131523387 -2.07651003336432 0.39423252384739
| 14> N   -2.40755761249535 -0.27307935927846 -0.69540809895973
| 15> C   1.93865236910503 0.00871651441574 1.14270009639751
| 16> C   -0.82131736779052 1.59058849778129 -0.54260347370093
| 17> C   0.48924532399615 -0.14593856904291 0.79054634817338
| 18> C   -0.55298619521856 0.98830765298964 0.83977068012541
| 19> C   2.54059015327818 1.29109891395219 1.62950895207152
| 20> C   -1.5754863117644 2.91759207370945 -0.44826082522104
| 21> C   2.62098042303946 -1.27972358399471 1.51996593810148
| 22> C   -1.62268925091216 0.63011609685128 -1.39730061097709
| 23> C   1.85622162417044 -1.45981610969981 -0.66370124824216
| 24> C   -2.63412582706008 -0.30120166360081 0.68007368846157
| 25> H   0.05810509126998 -1.12116812152121 0.98676311578561
| 26> H   -0.1889311305343 1.77997940141945 1.49119484918909
| 27> H   2.0199282944878 2.14547823031549 1.20636594617861
| 28> H   2.48733868595292 1.33727694917933 2.71469003793569
| 29> H   3.58647663832031 1.35049079882073 1.33735172097431
| 30> H   -2.51836385152639 2.79629979147749 0.08131552772248
| 31> H   -0.97574262407267 3.65262988837019 0.08580159754915
| 32> H   -1.78212965469994 3.29969932378182 -1.44409242726011
| 33> H   0.12306512502011 1.73387422911244 -1.05697821825688
| 34> H   -1.88366008706783 0.39213174071555 2.39654053178823
| 35> H   2.83644643636774 -3.0298258425273 0.35089425074782
| 36> H   -3.01654558207294 -0.86273712856523 -1.2407551947346
| 37> *
| 38>
| 39>                          ****END OF INPUT****

CARTESIAN COORDINATES (ANGSTROEM)
---------------------------------
  O      3.171069   -1.554343    2.550887
  O     -1.631083    0.658179   -2.601149
  O      1.592730   -1.953474   -1.716282
  O     -3.507449   -0.981699    1.166750
  N      1.529485   -0.124360   -0.256312
  N     -1.798767    0.506417    1.402090
  N      2.519101   -2.076510    0.394233
  N     -2.407558   -0.273079   -0.695408
  C      1.938652    0.008717    1.142700
  C     -0.821317    1.590588   -0.542603
  C      0.489245   -0.145939    0.790546
  C     -0.552986    0.988308    0.839771
  C      2.540590    1.291099    1.629509
  C     -1.575486    2.917592   -0.448261
  C      2.620980   -1.279724    1.519966
  C     -1.622689    0.630116   -1.397301
  C      1.856222   -1.459816   -0.663701
  C     -2.634126   -0.301202    0.680074
  H      0.058105   -1.121168    0.986763
  H     -0.188931    1.779979    1.491195
  H      2.019928    2.145478    1.206366
  H      2.487339    1.337277    2.714690
  H      3.586477    1.350491    1.337352
  H     -2.518364    2.796300    0.081316
  H     -0.975743    3.652630    0.085802
  H     -1.782130    3.299699   -1.444092
  H      0.123065    1.733874   -1.056978
  H     -1.883660    0.392132    2.396541
  H      2.836446   -3.029826    0.350894
  H     -3.016546   -0.862737   -1.240755

 Total Charge           Charge          ....    0
 Multiplicity           Mult            ....    3
 Number of Electrons    NEL             ....  132
 Basis Dimension        Dim             ....  882

ORBITAL ENERGIES
----------------
                 SPIN UP ORBITALS
  NO   OCC          E(Eh)            E(eV)
   0   1.0000     -19.448549      -529.2219
   1   1.0000     -19.330360      -526.0058
   2   1.0000     -19.323778      -525.8267
   3   1.0000     -19.316340      -525.6243
   4   1.0000     -14.587744      -396.9527
   5   1.0000     -14.560905      -396.2224
   6   1.0000     -14.557800      -396.1379
   7   1.0000     -14.552734      -396.0000
   8   1.0000     -10.499969      -285.7187
   9   1.0000     -10.499865      -285.7159
  10   1.0000     -10.473816      -285.0070
  11   1.0000     -10.451674      -284.4045
  12   1.0000     -10.442438      -284.1532
  13   1.0000     -10.428662      -283.7783
  14   1.0000     -10.421273      -283.5773
  15   1.0000     -10.381946      -282.5071
  16   1.0000     -10.376626      -282.3623
  17   1.0000     -10.357153      -281.8325
  18   1.0000      -1.295737       -35.2588
  19   1.0000      -1.226583       -33.3770
  20   1.0000      -1.214422       -33.0461
  21   1.0000      -1.191286       -32.4165
  22   1.0000      -1.163518       -31.6609
  23   1.0000      -1.103313       -30.0227
  24   1.0000      -1.084762       -29.5179
  25   1.0000      -1.054626       -28.6978
  26   1.0000      -0.952729       -25.9251
  27   1.0000      -0.921703       -25.0808
  28   1.0000      -0.878352       -23.9012
  29   1.0000      -0.833408       -22.6782
  30   1.0000      -0.811972       -22.0949
  31   1.0000      -0.797479       -21.7005
  32   1.0000      -0.779150       -21.2018
  33   1.0000      -0.761545       -20.7227
  34   1.0000      -0.734228       -19.9794
  35   1.0000      -0.705542       -19.1988
  36   1.0000      -0.684479       -18.6256
  37   1.0000      -0.667887       -18.1741
  38   1.0000      -0.648150       -17.6371
  39   1.0000      -0.646915       -17.6035
  40   1.0000      -0.627815       -17.0837
  41   1.0000      -0.608525       -16.5588
  42   1.0000      -0.604372       -16.4458
  43   1.0000      -0.590330       -16.0637
  44   1.0000      -0.577620       -15.7178
  45   1.0000      -0.574848       -15.6424
  46   1.0000      -0.569325       -15.4921
  47   1.0000      -0.562127       -15.2963
  48   1.0000      -0.557842       -15.1796
  49   1.0000      -0.551531       -15.0079
  50   1.0000      -0.545041       -14.8313
  51   1.0000      -0.538676       -14.6581
  52   1.0000      -0.530541       -14.4368
  53   1.0000      -0.500702       -13.6248
  54   1.0000      -0.497405       -13.5351
  55   1.0000      -0.483182       -13.1481
  56   1.0000      -0.481783       -13.1100
  57   1.0000      -0.471591       -12.8326
  58   1.0000      -0.461401       -12.5554
  59   1.0000      -0.450309       -12.2535
  60   1.0000      -0.412409       -11.2222
  61   1.0000      -0.404822       -11.0158
  62   1.0000      -0.400946       -10.9103
  63   1.0000      -0.393921       -10.7191
  64   1.0000      -0.382699       -10.4138
  65   1.0000      -0.374978       -10.2037
  66   1.0000      -0.215684        -5.8691
  67   0.0000       0.013202         0.3592
  68   0.0000       0.026622         0.7244
  69   0.0000       0.034053         0.9266
  70   0.0000       0.038390         1.0447
  71   0.0000       0.052707         1.4342

                 SPIN DOWN ORBITALS
  NO   OCC          E(Eh)            E(eV)
   0   1.0000     -19.422984      -528.5263
   1   1.0000     -19.327600      -525.9307
   2   1.0000     -19.323778      -525.8267
   3   1.0000     -19.316342      -525.6244
   4   1.0000     -14.585139      -396.8818
   5   1.0000     -14.559881      -396.1945
   6   1.0000     -14.557793      -396.1377
   7   1.0000     -14.552740      -396.0002
   8   1.0000     -10.499969      -285.7187
   9   1.0000     -10.499115      -285.6954
  10   1.0000     -10.473820      -285.0071
  11   1.0000     -10.450203      -284.3645
  12   1.0000     -10.432286      -283.8769
  13   1.0000     -10.428659      -283.7782
  14   1.0000     -10.419350      -283.5249
  15   1.0000     -10.381808      -282.5034
  16   1.0000     -10.376157      -282.3496
  17   1.0000     -10.357135      -281.8320
  18   1.0000      -1.246654       -33.9232
  19   1.0000      -1.217449       -33.1285
  20   1.0000      -1.214269       -33.0419
  21   1.0000      -1.191283       -32.4165
  22   1.0000      -1.157180       -31.4885
  23   1.0000      -1.102469       -29.9997
  24   1.0000      -1.075610       -29.2688
  25   1.0000      -1.054462       -28.6934
  26   1.0000      -0.952331       -25.9142
  27   1.0000      -0.915716       -24.9179
  28   1.0000      -0.875932       -23.8353
  29   1.0000      -0.821541       -22.3553
  30   1.0000      -0.800085       -21.7714
  31   1.0000      -0.795714       -21.6525
  32   1.0000      -0.778145       -21.1744
  33   1.0000      -0.746873       -20.3235
  34   1.0000      -0.725065       -19.7300
  35   1.0000      -0.705040       -19.1851
  36   1.0000      -0.667972       -18.1765
  37   1.0000      -0.654203       -17.8018
  38   1.0000      -0.637022       -17.3343
  39   1.0000      -0.630144       -17.1471
  40   1.0000      -0.619724       -16.8635
  41   1.0000      -0.598016       -16.2728
  42   1.0000      -0.587560       -15.9883
  43   1.0000      -0.578757       -15.7488
  44   1.0000      -0.569686       -15.5019
  45   1.0000      -0.563660       -15.3380
  46   1.0000      -0.561915       -15.2905
  47   1.0000      -0.557708       -15.1760
  48   1.0000      -0.545463       -14.8428
  49   1.0000      -0.541250       -14.7282
  50   1.0000      -0.540501       -14.7078
  51   1.0000      -0.530942       -14.4477
  52   1.0000      -0.513631       -13.9766
  53   1.0000      -0.497240       -13.5306
  54   1.0000      -0.480544       -13.0763
  55   1.0000      -0.476953       -12.9786
  56   1.0000      -0.474271       -12.9056
  57   1.0000      -0.466670       -12.6987
  58   1.0000      -0.422941       -11.5088
  59   1.0000      -0.409329       -11.1384
  60   1.0000      -0.401516       -10.9258
  61   1.0000      -0.396042       -10.7768
  62   1.0000      -0.393631       -10.7113
  63   1.0000      -0.380735       -10.3603
  64   1.0000      -0.374366       -10.1870
  65   0.0000      -0.143191        -3.8964
  66   0.0000       0.012995         0.3536
  67   0.0000       0.026832         0.7301
  68   0.0000       0.034039         0.9262
  69   0.0000       0.038341         1.0433

----------------------------------------------------------------------------------------------------
          SPIN FLIP ABSORPTION SPECTRUM VIA TRANSITION ELECTRIC DIPOLE MOMENTS
----------------------------------------------------------------------------------------------------
     Transition      Energy     Energy  Wavelength fosc(D2)      D2        DX        DY        DZ
                      (eV)      (cm-1)    (nm)                 (au**2)    (au)      (au)      (au)
----------------------------------------------------------------------------------------------------
  1-3A  ->  2-3A    5.564094   44877.4   222.8   0.001782200   0.01307   0.06513   0.05887  -0.07325

Dispersion correction             ... done (  0.0 sec)

MULLIKEN ATOMIC CHARGES AND SPIN DENSITIES
------------------------------------------
   0 O :   -0.388593    0.637306
   1 O :   -0.632768    0.000035
   2 O :   -0.581417   -0.055218
   3 O :   -0.660732   -0.000015
   4 N :   -0.434871    0.024045
   5 N :   -0.245446   -0.001822
   6 N :   -0.014815    0.071085
   7 N :    0.008306   -0.000166
   8 C :    1.189291    0.071248
   9 C :    0.662237   -0.004786
  10 C :   -0.812562   -0.146840
  11 C :   -0.028427   -0.028538
  12 C :   -1.642678   -0.073908
  13 C :   -1.593775    0.000037
  14 C :    0.662195   -0.426400
  15 C :    0.242514   -0.001187
  16 C :    0.401605   -0.078473
  17 C :    0.461784   -0.001815
  18 H :    0.151221   -0.011952
  19 H :    0.608080   -0.006836
  20 H :    0.371804    0.001120
  21 H :    0.314582    0.006584
  22 H :    0.376138    0.019284
  23 H :    0.329771    0.000095
  24 H :    0.369424   -0.000059
  25 H :    0.367624    0.000109
  26 H :    0.357342    0.003062
  27 H :    0.061825   -0.000053
  28 H :    0.059393    0.004386
  29 H :    0.040947   -0.000326
Sum of atomic charges       :    0.0000000

LOEWDIN ATOMIC CHARGES AND SPIN DENSITIES
-----------------------------------------
   0 O :    0.257944    0.463404
   1 O :    0.118035    0.000033
   2 O :    0.121136   -0.058024
   3 O :    0.086104    0.000007
   4 N :    0.167395    0.020061
   5 N :    0.272173   -0.000396
   6 N :    0.341573   -0.003703
   7 N :    0.341443   -0.000658
   8 C :   -0.270793    0.022269
   9 C :   -0.109000   -0.002542
  10 C :   -0.019452   -0.066436
  11 C :   -0.113509   -0.009719
  12 C :    0.224146   -0.002492
  13 C :    0.197841   -0.000273
  14 C :   -0.377286   -0.306282
  15 C :   -0.381263   -0.000080
  16 C :   -0.463934   -0.051165
  17 C :   -0.486947   -0.000049
  18 H :    0.060245   -0.002863
  19 H :    0.040931   -0.001656
  20 H :   -0.006289    0.001018
  21 H :    0.005500    0.000107
  22 H :    0.008412   -0.000697
  23 H :   -0.002253   -0.000013
  24 H :   -0.005246   -0.000023
  25 H :   -0.000223   -0.000204
  26 H :    0.037927    0.000355
  27 H :   -0.028100   -0.000185
  28 H :   -0.006101    0.000234
  29 H :   -0.010411   -0.000028

  Mayer bond orders larger than 0.100000
B(  0-O , 14-C ) :   0.9948 B(  1-O , 15-C ) :   1.4545 B(  2-O , 16-C ) :   1.6137
B(  3-O , 17-C ) :   1.5804 B(  4-N ,  8-C ) :   0.4547 B(  4-N , 10-C ) :   1.0275
B(  4-N , 14-C ) :  -0.1762 B(  4-N , 16-C ) :   0.8428 B(  5-N ,  9-C ) :   0.1246
B(  5-N , 10-C ) :   0.1134 B(  5-N , 11-C ) :   0.2121 B(  5-N , 17-C ) :   1.1265
B(  5-N , 27-H ) :   1.0892 B(  6-N , 14-C ) :   0.8689 B(  6-N , 16-C ) :   1.0796
B(  6-N , 28-H ) :   1.0615 B(  7-N , 15-C ) :   0.9569 B(  7-N , 17-C ) :   0.9393
B(  7-N , 29-H ) :   1.0833 B(  8-C , 12-C ) :   0.3073 B(  8-C , 14-C ) :   0.9161
B(  8-C , 18-H ) :  -0.2753 B(  8-C , 21-H ) :  -0.1258 B(  8-C , 22-H ) :  -0.1034
B(  9-C , 11-C ) :   0.4958 B(  9-C , 13-C ) :   0.3999 B(  9-C , 15-C ) :   0.6364
B(  9-C , 26-H ) :   0.9120 B( 10-C , 11-C ) :   1.0076 B( 10-C , 14-C ) :  -0.1137
B( 10-C , 16-C ) :   0.1070 B( 10-C , 18-H ) :   1.1931 B( 11-C , 17-C ) :  -0.1146
B( 11-C , 19-H ) :   0.6635 B( 12-C , 20-H ) :   0.8975 B( 12-C , 21-H ) :   1.0586
B( 12-C , 22-H ) :   0.8989 B( 13-C , 23-H ) :   0.9652 B( 13-C , 24-H ) :   0.9147
B( 13-C , 25-H ) :   0.9249

Dispersion correction           -0.054878053
FINAL SINGLE POINT ENERGY      -908.674875657915

DIPOLE MOMENT
-------------

Method             : TDA/CIS
Type of density    : Electron Density
Level              : Relaxed density
State              :   2
Multiplicity       :   3
Irrep              :   0
Energy             :     0.0000000000000000 Eh
Relativity type    :
Basis              : AO
                                X                 Y                 Z
Electronic contribution:      1.552141283     -12.794348611      -2.173378302
Nuclear contribution   :     -0.180527104      13.668356787       4.146925668
                        -----------------------------------------
Total Dipole Moment    :      1.371614179       0.874008176       1.973547366
                        -----------------------------------------
Magnitude (a.u.)       :      2.557362891
Magnitude (Debye)      :      6.500299881

Rotational constants in cm-1:             0.022419             0.010133             0.009760
Rotational constants in MHz :           672.099092           303.779767           292.584520

                             ****ORCA TERMINATED NORMALLY****
TOTAL RUN TIME: 0 days 0 hours 35 minutes 12 seconds 261 msec
