                         Program Version 6.0.0  -   RELEASE  -
|  1> ! Opt wB97M-D3BJ def2-TZVPPD
|  2> %pal nprocs 8 end %pal nprocs 64 end
|  3> %geom
|  4> Constraints
|  5>     {A 2 1 0 70.67796610169492 C }
|  6> end
|  7> MaxIter 200
|  8> end
|  9> *xyz 0 1
| 10> O   0.27561415899012703 0.945857308308547 0.0
| 11> C   0.7509 -0.4065 0.0
| 12> C   -0.7502 -0.4076 0.0
| 13> H   1.2625 -0.6786 0.9136
| 14> H   1.2625 -0.6787 -0.9136
| 15> H   -1.2614 -0.6806 -0.9136
| 16> H   -1.2614 -0.6805 0.9136
| 17> *
| 18>
| 19>                          ****END OF INPUT****
 Total Charge           Charge          ....    0
 Multiplicity           Mult            ....    1
 Number of Electrons    NEL             ....   24
Dispersion correction           -0.005185897
FINAL SINGLE POINT ENERGY      -153.860339761719
Dispersion correction             ... done (  0.1 sec)
Dispersion correction           -0.005224717
FINAL SINGLE POINT ENERGY      -153.871959038957
Dispersion correction             ... done (  0.1 sec)
Dispersion correction           -0.005249809
FINAL SINGLE POINT ENERGY      -153.874244974317
Dispersion correction             ... done (  0.1 sec)
FINAL SINGLE POINT ENERGY      -153.874514343966
FINAL SINGLE POINT ENERGY      -153.874608931440
Dispersion correction             ... done (  0.1 sec)
Dispersion correction           -0.005239370
FINAL SINGLE POINT ENERGY      -153.874619686609
Dispersion correction             ... done (  0.1 sec)
Dispersion correction           -0.005240317
FINAL SINGLE POINT ENERGY      -153.874623368376
Dispersion correction             ... done (  0.1 sec)
                    ***********************HURRAY********************

CARTESIAN COORDINATES (ANGSTROEM)
---------------------------------
  O      0.183353    0.863233   -0.000116
  C      0.724567   -0.392807    0.000036
  C     -0.693583   -0.491691   -0.000083
  H      1.264648   -0.678064    0.902341
  H      1.264661   -0.678147   -0.902248
  H     -1.232690   -0.604910   -0.925838
  H     -1.232441   -0.604256    0.925908

 Multiplicity           Mult            ....    1
 Number of Electrons    NEL             ....   24
 Basis Dimension        Dim             ....  182

ORBITAL ENERGIES
----------------

  NO   OCC          E(Eh)            E(eV)
   0   2.0000     -19.348214      -526.4917
   1   2.0000     -10.406650      -283.1793
   2   2.0000     -10.396776      -282.9107
   3   2.0000      -1.183640       -32.2085
   4   2.0000      -0.828447       -22.5432
   5   2.0000      -0.745417       -20.2838
   6   2.0000      -0.629184       -17.1210
   7   2.0000      -0.591557       -16.0971
   8   2.0000      -0.498447       -13.5634
   9   2.0000      -0.493554       -13.4303
  10   2.0000      -0.422264       -11.4904
  11   2.0000      -0.379574       -10.3287
  12   0.0000       0.040424         1.1000
  13   0.0000       0.057675         1.5694
  14   0.0000       0.066767         1.8168
  15   0.0000       0.077272         2.1027
  16   0.0000       0.110906         3.0179

MULLIKEN ATOMIC CHARGES
-----------------------
   0 O :   -0.406064
   1 C :   -0.119185
   2 C :   -0.243911
   3 H :    0.194606
   4 H :    0.194606
   5 H :    0.189953
   6 H :    0.189996
Sum of atomic charges:    0.0000000

LOEWDIN ATOMIC CHARGES
----------------------
   0 O :   -0.028951
   1 C :   -0.172488
   2 C :    0.152499
   3 H :    0.022034
   4 H :    0.022036
   5 H :    0.002439
   6 H :    0.002431

  Mayer bond orders larger than 0.100000
B(  0-O ,  1-C ) :   0.7438 B(  0-O ,  2-C ) :   0.8904 B(  1-C ,  2-C ) :   0.8045
B(  1-C ,  3-H ) :   1.0419 B(  1-C ,  4-H ) :   1.0418 B(  2-C ,  5-H ) :   0.9898
B(  2-C ,  6-H ) :   0.9898

Dispersion correction           -0.005240538
FINAL SINGLE POINT ENERGY      -153.874623596020

DIPOLE MOMENT
-------------

Method             : SCF
Type of density    : Electron Density
Multiplicity       :   1
Irrep              :   0
Energy             :  -153.8693830584237219 Eh
Relativity type    :
Basis              : AO
                                X                 Y                 Z
Electronic contribution:      0.069767421       1.561920057      -0.000284990
Nuclear contribution   :     -0.225312991      -2.445431715       0.000342631
                        -----------------------------------------
Total Dipole Moment    :     -0.155545570      -0.883511658       0.000057642
                        -----------------------------------------
Magnitude (a.u.)       :      0.897099369
Magnitude (Debye)      :      2.280245381

Rotational constants in cm-1:             0.890962             0.679640             0.455790
Rotational constants in MHz :         26710.376300         20375.090246         13664.253372

                             ****ORCA TERMINATED NORMALLY****
TOTAL RUN TIME: 0 days 0 hours 1 minutes 41 seconds 783 msec
