                         Program Version 6.0.0  -   RELEASE  -
|  1> ! Engrad def2-TZVPPD wB97M-D3BJ
|  2> %pal nprocs 8 end%pal nprocs 64 end
|  3> %tddft
|  4>  Iroot 2 Nroots 3
|  5> sf true
|  6> end
|  7> *xyz 0 3
|  8> O   2.68298069 -0.81739603 -2.17205584
|  9> O   -1.67050563 1.58833838 -1.85550923
| 10> O   -1.43883454 -2.46838742 -0.89531822
| 11> O   -2.90512717 0.36256578 2.39969856
| 12> N   -0.19134394 -1.50091181 0.71668892
| 13> N   -0.66767938 1.03946518 2.10805145
| 14> N   0.64900989 -1.65830859 -1.47248819
| 15> N   -2.24021409 0.70754267 0.27344444
| 16> C   2.18134539 -0.67358329 0.0725565
| 17> C   -0.0398066 1.47246754 -0.22905615
| 18> C   0.98177671 -0.61410673 1.01633956
| 19> C   0.37699292 0.84908584 1.10906632
| 20> C   3.47828166 -0.16052657 0.53771393
| 21> C   0.94516061 2.23535465 -1.00669295
| 22> C   1.94402269 -1.09911536 -1.26430306
| 23> C   -1.40818709 1.3183163 -0.68080991
| 24> C   -0.40183949 -1.93407718 -0.54238315
| 25> C   -1.98294937 0.65062921 1.64956762
| 26> H   1.18470406 -0.83707181 2.04636897
| 27> H   1.15079762 1.44883342 1.45987389
| 28> H   4.18597308 -0.35938578 -0.2745658
| 29> H   3.46982723 0.85766975 0.79083428
| 30> H   3.70083883 -0.72527834 1.4639413
| 31> H   1.581013 1.48020233 -1.51088105
| 32> H   0.39159493 2.69659683 -1.83864388
| 33> H   1.49367041 2.99949096 -0.38166064
| 34> H   -0.8110377 -1.7223589 1.45026773
| 35> H   -0.57263104 0.65370713 3.01037981
| 36> H   0.31512541 -1.81182808 -2.42917097
| 37> H   -3.21605571 0.59248256 0.01857421
| 38> *
| 39>
| 40>                          ****END OF INPUT****

CARTESIAN COORDINATES (ANGSTROEM)
---------------------------------
  O      2.682981   -0.817396   -2.172056
  O     -1.670506    1.588338   -1.855509
  O     -1.438835   -2.468387   -0.895318
  O     -2.905127    0.362566    2.399699
  N     -0.191344   -1.500912    0.716689
  N     -0.667679    1.039465    2.108051
  N      0.649010   -1.658309   -1.472488
  N     -2.240214    0.707543    0.273444
  C      2.181345   -0.673583    0.072556
  C     -0.039807    1.472468   -0.229056
  C      0.981777   -0.614107    1.016340
  C      0.376993    0.849086    1.109066
  C      3.478282   -0.160527    0.537714
  C      0.945161    2.235355   -1.006693
  C      1.944023   -1.099115   -1.264303
  C     -1.408187    1.318316   -0.680810
  C     -0.401839   -1.934077   -0.542383
  C     -1.982949    0.650629    1.649568
  H      1.184704   -0.837072    2.046369
  H      1.150798    1.448833    1.459874
  H      4.185973   -0.359386   -0.274566
  H      3.469827    0.857670    0.790834
  H      3.700839   -0.725278    1.463941
  H      1.581013    1.480202   -1.510881
  H      0.391595    2.696597   -1.838644
  H      1.493670    2.999491   -0.381661
  H     -0.811038   -1.722359    1.450268
  H     -0.572631    0.653707    3.010380
  H      0.315125   -1.811828   -2.429171
  H     -3.216056    0.592483    0.018574

 Total Charge           Charge          ....    0
 Multiplicity           Mult            ....    3
 Number of Electrons    NEL             ....  132
 Basis Dimension        Dim             ....  882

ORBITAL ENERGIES
----------------
                 SPIN UP ORBITALS
  NO   OCC          E(Eh)            E(eV)
   0   1.0000     -19.343505      -526.3635
   1   1.0000     -19.336629      -526.1764
   2   1.0000     -19.333384      -526.0881
   3   1.0000     -19.315203      -525.5934
   4   1.0000     -14.569462      -396.4552
   5   1.0000     -14.568528      -396.4298
   6   1.0000     -14.563025      -396.2800
   7   1.0000     -14.560703      -396.2169
   8   1.0000     -10.517473      -286.1950
   9   1.0000     -10.504617      -285.8452
  10   1.0000     -10.487641      -285.3832
  11   1.0000     -10.481827      -285.2250
  12   1.0000     -10.451069      -284.3881
  13   1.0000     -10.435710      -283.9701
  14   1.0000     -10.426965      -283.7322
  15   1.0000     -10.412965      -283.3512
  16   1.0000     -10.380341      -282.4634
  17   1.0000     -10.370584      -282.1979
  18   1.0000      -1.220525       -33.2122
  19   1.0000      -1.215688       -33.0806
  20   1.0000      -1.199299       -32.6346
  21   1.0000      -1.189937       -32.3798
  22   1.0000      -1.113791       -30.3078
  23   1.0000      -1.090536       -29.6750
  24   1.0000      -1.065233       -28.9865
  25   1.0000      -1.049163       -28.5492
  26   1.0000      -0.984860       -26.7994
  27   1.0000      -0.954687       -25.9783
  28   1.0000      -0.889680       -24.2094
  29   1.0000      -0.844664       -22.9845
  30   1.0000      -0.825320       -22.4581
  31   1.0000      -0.801068       -21.7982
  32   1.0000      -0.781901       -21.2766
  33   1.0000      -0.779475       -21.2106
  34   1.0000      -0.703612       -19.1463
  35   1.0000      -0.688133       -18.7251
  36   1.0000      -0.681088       -18.5333
  37   1.0000      -0.669724       -18.2241
  38   1.0000      -0.650651       -17.7051
  39   1.0000      -0.633951       -17.2507
  40   1.0000      -0.613929       -16.7058
  41   1.0000      -0.612253       -16.6602
  42   1.0000      -0.604013       -16.4360
  43   1.0000      -0.589815       -16.0497
  44   1.0000      -0.575413       -15.6578
  45   1.0000      -0.569087       -15.4856
  46   1.0000      -0.568412       -15.4673
  47   1.0000      -0.562507       -15.3066
  48   1.0000      -0.560176       -15.2432
  49   1.0000      -0.557970       -15.1831
  50   1.0000      -0.549467       -14.9518
  51   1.0000      -0.538231       -14.6460
  52   1.0000      -0.532066       -14.4783
  53   1.0000      -0.529619       -14.4117
  54   1.0000      -0.511437       -13.9169
  55   1.0000      -0.507592       -13.8123
  56   1.0000      -0.483632       -13.1603
  57   1.0000      -0.430823       -11.7233
  58   1.0000      -0.420334       -11.4379
  59   1.0000      -0.416676       -11.3383
  60   1.0000      -0.408760       -11.1229
  61   1.0000      -0.402056       -10.9405
  62   1.0000      -0.394321       -10.7300
  63   1.0000      -0.391617       -10.6564
  64   1.0000      -0.383055       -10.4234
  65   1.0000      -0.349397        -9.5076
  66   1.0000      -0.326595        -8.8871
  67   0.0000       0.007948         0.2163
  68   0.0000       0.028994         0.7890
  69   0.0000       0.033534         0.9125
  70   0.0000       0.037228         1.0130
  71   0.0000       0.052893         1.4393

                 SPIN DOWN ORBITALS
  NO   OCC          E(Eh)            E(eV)
   0   1.0000     -19.338946      -526.2395
   1   1.0000     -19.333232      -526.0840
   2   1.0000     -19.331693      -526.0421
   3   1.0000     -19.315165      -525.5924
   4   1.0000     -14.568956      -396.4415
   5   1.0000     -14.568151      -396.4196
   6   1.0000     -14.562124      -396.2555
   7   1.0000     -14.560620      -396.2146
   8   1.0000     -10.517502      -286.1958
   9   1.0000     -10.504670      -285.8466
  10   1.0000     -10.488663      -285.4110
  11   1.0000     -10.482919      -285.2547
  12   1.0000     -10.451030      -284.3870
  13   1.0000     -10.435269      -283.9581
  14   1.0000     -10.415656      -283.4244
  15   1.0000     -10.401627      -283.0427
  16   1.0000     -10.380880      -282.4781
  17   1.0000     -10.371084      -282.2115
  18   1.0000      -1.215968       -33.0882
  19   1.0000      -1.213572       -33.0230
  20   1.0000      -1.197520       -32.5862
  21   1.0000      -1.183261       -32.1982
  22   1.0000      -1.111505       -30.2456
  23   1.0000      -1.088598       -29.6223
  24   1.0000      -1.063474       -28.9386
  25   1.0000      -1.047343       -28.4996
  26   1.0000      -0.971014       -26.4226
  27   1.0000      -0.937974       -25.5236
  28   1.0000      -0.884486       -24.0681
  29   1.0000      -0.837421       -22.7874
  30   1.0000      -0.817545       -22.2465
  31   1.0000      -0.796289       -21.6681
  32   1.0000      -0.780452       -21.2372
  33   1.0000      -0.778107       -21.1734
  34   1.0000      -0.698753       -19.0140
  35   1.0000      -0.681836       -18.5537
  36   1.0000      -0.675558       -18.3829
  37   1.0000      -0.661797       -18.0084
  38   1.0000      -0.639592       -17.4042
  39   1.0000      -0.630910       -17.1679
  40   1.0000      -0.610357       -16.6087
  41   1.0000      -0.608033       -16.5454
  42   1.0000      -0.593354       -16.1460
  43   1.0000      -0.581720       -15.8294
  44   1.0000      -0.571019       -15.5382
  45   1.0000      -0.562363       -15.3027
  46   1.0000      -0.558023       -15.1846
  47   1.0000      -0.557074       -15.1588
  48   1.0000      -0.555949       -15.1281
  49   1.0000      -0.550149       -14.9703
  50   1.0000      -0.541487       -14.7346
  51   1.0000      -0.529349       -14.4043
  52   1.0000      -0.524123       -14.2621
  53   1.0000      -0.522129       -14.2079
  54   1.0000      -0.507268       -13.8035
  55   1.0000      -0.496418       -13.5082
  56   1.0000      -0.478979       -13.0337
  57   1.0000      -0.425056       -11.5664
  58   1.0000      -0.416678       -11.3384
  59   1.0000      -0.409722       -11.1491
  60   1.0000      -0.395895       -10.7729
  61   1.0000      -0.390098       -10.6151
  62   1.0000      -0.388701       -10.5771
  63   1.0000      -0.386154       -10.5078
  64   1.0000      -0.376352       -10.2411
  65   0.0000      -0.065755        -1.7893
  66   0.0000      -0.048296        -1.3142
  67   0.0000       0.007357         0.2002
  68   0.0000       0.028741         0.7821
  69   0.0000       0.033573         0.9136

----------------------------------------------------------------------------------------------------
          SPIN FLIP ABSORPTION SPECTRUM VIA TRANSITION ELECTRIC DIPOLE MOMENTS
----------------------------------------------------------------------------------------------------
     Transition      Energy     Energy  Wavelength fosc(D2)      D2        DX        DY        DZ
                      (eV)      (cm-1)    (nm)                 (au**2)    (au)      (au)      (au)
----------------------------------------------------------------------------------------------------
  1-3A  ->  2-3A    0.047626     384.1  26032.9   0.000010291   0.00882   0.07791  -0.04119  -0.03246
  1-3A  ->  3-3A    2.251655   18160.8   550.6   0.000963445   0.01746  -0.05398   0.02251   0.11851

Dispersion correction             ... done (  0.1 sec)

MULLIKEN ATOMIC CHARGES AND SPIN DENSITIES
------------------------------------------
   0 O :   -0.627264    0.063085
   1 O :   -0.679399   -0.067270
   2 O :   -0.670596    0.000311
   3 O :   -0.629421   -0.001528
   4 N :   -0.130305    0.004793
   5 N :   -0.385319   -0.012809
   6 N :   -0.005683    0.006596
   7 N :    0.097883   -0.009104
   8 C :    0.310030    0.331147
   9 C :    0.490453    0.298502
  10 C :    0.358564   -0.067325
  11 C :    0.210915   -0.259312
  12 C :   -1.358499    0.000063
  13 C :   -1.190886   -0.006855
  14 C :    0.126078   -0.064417
  15 C :   -0.031264   -0.281382
  16 C :    0.466064    0.002687
  17 C :    0.287319    0.011415
  18 H :    0.551729    0.002530
  19 H :    0.746374   -0.001812
  20 H :    0.352596    0.002774
  21 H :    0.279899    0.013311
  22 H :    0.331375    0.012891
  23 H :    0.213951    0.011579
  24 H :    0.325436   -0.010187
  25 H :    0.329450    0.015878
  26 H :   -0.006919   -0.000851
  27 H :    0.131742    0.002113
  28 H :    0.044917   -0.001726
  29 H :    0.060783    0.004903
Sum of atomic charges       :    0.0000000

LOEWDIN ATOMIC CHARGES AND SPIN DENSITIES
-----------------------------------------
   0 O :    0.099885    0.054274
   1 O :    0.071188   -0.061416
   2 O :    0.075841    0.000305
   3 O :    0.074506   -0.001333
   4 N :    0.296459    0.000382
   5 N :    0.304182   -0.001739
   6 N :    0.329236    0.004331
   7 N :    0.320176   -0.010049
   8 C :   -0.031670    0.191705
   9 C :   -0.003906   -0.173689
  10 C :   -0.033383    0.009493
  11 C :   -0.112598   -0.008752
  12 C :    0.205924    0.029087
  13 C :    0.192170   -0.027517
  14 C :   -0.435110    0.028924
  15 C :   -0.389032   -0.034684
  16 C :   -0.479443   -0.000398
  17 C :   -0.430509   -0.000714
  18 H :    0.033383    0.001767
  19 H :   -0.006413   -0.001158
  20 H :    0.011381   -0.000259
  21 H :   -0.028981    0.007605
  22 H :    0.024684    0.008159
  23 H :    0.005550   -0.009083
  24 H :    0.001660   -0.000144
  25 H :    0.039782   -0.005063
  26 H :   -0.053729    0.000212
  27 H :   -0.074515    0.000057
  28 H :   -0.003585    0.000432
  29 H :   -0.003134   -0.000733

  Mayer bond orders larger than 0.100000
B(  0-O ,  8-C ) :  -0.1477 B(  0-O , 14-C ) :   1.5376 B(  1-O , 15-C ) :   1.3423
B(  2-O , 16-C ) :   1.4899 B(  3-O , 17-C ) :   1.5992 B(  4-N , 10-C ) :   0.6803
B(  4-N , 16-C ) :   1.0135 B(  4-N , 26-H ) :   1.1643 B(  5-N ,  9-C ) :   0.3874
B(  5-N , 11-C ) :  -0.1480 B(  5-N , 17-C ) :   1.1505 B(  5-N , 19-H ) :  -0.2025
B(  5-N , 27-H ) :   0.9519 B(  6-N ,  8-C ) :  -0.1800 B(  6-N , 10-C ) :   0.1319
B(  6-N , 14-C ) :   1.0215 B(  6-N , 16-C ) :   0.9146 B(  6-N , 28-H ) :   1.1078
B(  7-N , 15-C ) :   1.0343 B(  7-N , 17-C ) :   1.0199 B(  7-N , 29-H ) :   1.0731
B(  8-C ,  9-C ) :   0.1458 B(  8-C , 10-C ) :   0.4140 B(  8-C , 11-C ) :   0.1745
B(  8-C , 12-C ) :   0.5116 B(  8-C , 14-C ) :   0.7844 B(  8-C , 18-H ) :  -0.1593
B(  8-C , 20-H ) :  -0.1002 B(  9-C , 11-C ) :   0.3755 B(  9-C , 13-C ) :   0.5315
B(  9-C , 15-C ) :   0.5880 B(  9-C , 17-C ) :   0.1304 B(  9-C , 19-H ) :  -0.2831
B( 10-C , 11-C ) :   0.5668 B( 10-C , 14-C ) :  -0.2502 B( 10-C , 18-H ) :   0.7277
B( 11-C , 12-C ) :   0.1028 B( 11-C , 13-C ) :  -0.1845 B( 11-C , 17-C ) :  -0.3207
B( 11-C , 19-H ) :   0.7050 B( 12-C , 20-H ) :   0.9589 B( 12-C , 21-H ) :   0.9590
B( 12-C , 22-H ) :   0.9126 B( 13-C , 23-H ) :   0.9004 B( 13-C , 24-H ) :   0.9709
B( 13-C , 25-H ) :   0.9734

Dispersion correction           -0.059193782
FINAL SINGLE POINT ENERGY      -908.771496582499

DIPOLE MOMENT
-------------

Method             : TDA/CIS
Type of density    : Electron Density
Level              : Relaxed density
State              :   2
Multiplicity       :   3
Irrep              :   0
Energy             :     0.0000000000000000 Eh
Relativity type    :
Basis              : AO
                                X                 Y                 Z
Electronic contribution:     -9.953621902      -4.878503452      -1.923207485
Nuclear contribution   :     12.090659459       5.426042352       3.802903243
                        -----------------------------------------
Total Dipole Moment    :      2.137037557       0.547538900       1.879695757
                        -----------------------------------------
Magnitude (a.u.)       :      2.898272676
Magnitude (Debye)      :      7.366823692

Rotational constants in cm-1:             0.021148             0.012662             0.012215
Rotational constants in MHz :           634.010628           379.601917           366.184314

                             ****ORCA TERMINATED NORMALLY****
TOTAL RUN TIME: 0 days 0 hours 5 minutes 36 seconds 973 msec
