                         Program Version 6.0.0  -   RELEASE  -
|  1> ! Engrad def2-TZVPPD wB97M-D3BJ
|  2> %pal nprocs 8 end%pal nprocs 64 end
|  3> %tddft
|  4>  Iroot 2 Nroots 3
|  5> sf true
|  6> end
|  7> *xyz 0 3
|  8> O   0.47554153 -0.35515206 -1.00266135
|  9> C   0.71601984 -0.26965786 0.35996026
| 10> C   -0.01920053 0.88597237 0.93869677
| 11> H   1.79158111 -0.23903112 0.48128429
| 12> H   0.37490183 -1.17840313 0.87693139
| 13> H   0.52993111 1.56300303 1.52620532
| 14> H   -1.06124681 1.11828888 0.71498949
| 15> *
| 16>
| 17>                          ****END OF INPUT****

CARTESIAN COORDINATES (ANGSTROEM)
---------------------------------
  O      0.475542   -0.355152   -1.002661
  C      0.716020   -0.269658    0.359960
  C     -0.019201    0.885972    0.938697
  H      1.791581   -0.239031    0.481284
  H      0.374902   -1.178403    0.876931
  H      0.529931    1.563003    1.526205
  H     -1.061247    1.118289    0.714989

 Total Charge           Charge          ....    0
 Multiplicity           Mult            ....    3
 Number of Electrons    NEL             ....   24
 Basis Dimension        Dim             ....  182

ORBITAL ENERGIES
----------------
                 SPIN UP ORBITALS
  NO   OCC          E(Eh)            E(eV)
   0   1.0000     -19.387390      -527.5577
   1   1.0000     -10.411111      -283.3007
   2   1.0000     -10.364577      -282.0345
   3   1.0000      -1.162592       -31.6357
   4   1.0000      -0.877102       -23.8672
   5   1.0000      -0.739115       -20.1123
   6   1.0000      -0.615590       -16.7511
   7   1.0000      -0.586948       -15.9717
   8   1.0000      -0.552824       -15.0431
   9   1.0000      -0.517626       -14.0853
  10   1.0000      -0.442148       -12.0315
  11   1.0000      -0.414915       -11.2904
  12   1.0000      -0.322903        -8.7867
  13   0.0000       0.041909         1.1404
  14   0.0000       0.061195         1.6652
  15   0.0000       0.078690         2.1413
  16   0.0000       0.087545         2.3822
  17   0.0000       0.114180         3.1070

                 SPIN DOWN ORBITALS
  NO   OCC          E(Eh)            E(eV)
   0   1.0000     -19.363266      -526.9013
   1   1.0000     -10.412453      -283.3372
   2   1.0000     -10.351113      -281.6681
   3   1.0000      -1.107704       -30.1422
   4   1.0000      -0.843765       -22.9600
   5   1.0000      -0.712647       -19.3921
   6   1.0000      -0.589974       -16.0540
   7   1.0000      -0.544599       -14.8193
   8   1.0000      -0.531540       -14.4639
   9   1.0000      -0.490715       -13.3530
  10   1.0000      -0.383041       -10.4231
  11   0.0000      -0.054001        -1.4694
  12   0.0000       0.001560         0.0425
  13   0.0000       0.040878         1.1123
  14   0.0000       0.061465         1.6726
  15   0.0000       0.078628         2.1396

----------------------------------------------------------------------------------------------------
          SPIN FLIP ABSORPTION SPECTRUM VIA TRANSITION ELECTRIC DIPOLE MOMENTS
----------------------------------------------------------------------------------------------------
     Transition      Energy     Energy  Wavelength fosc(D2)      D2        DX        DY        DZ
                      (eV)      (cm-1)    (nm)                 (au**2)    (au)      (au)      (au)
----------------------------------------------------------------------------------------------------
  1-3A  ->  2-3A    0.277157    2235.4  4473.4   0.000020908   0.00308  -0.05239  -0.01821  -0.00178
  1-3A  ->  3-1A    1.142115    9211.8  1085.6   0.028662655   1.02435  -0.16353   0.44992   0.89173

Dispersion correction             ... done (  0.2 sec)

MULLIKEN ATOMIC CHARGES AND SPIN DENSITIES
------------------------------------------
   0 O :   -0.322153    0.819168
   1 C :   -0.081706    0.057997
   2 C :   -0.268004   -0.730094
   3 H :    0.210910    0.009501
   4 H :    0.185565   -0.017165
   5 H :    0.131130   -0.054505
   6 H :    0.144258   -0.084903
Sum of atomic charges       :    0.0000000

LOEWDIN ATOMIC CHARGES AND SPIN DENSITIES
-----------------------------------------
   0 O :    0.050214    0.766138
   1 C :   -0.237673   -0.013042
   2 C :    0.297282   -0.609915
   3 H :    0.018589    0.015556
   4 H :    0.033502    0.009626
   5 H :   -0.106581   -0.091810
   6 H :   -0.055333   -0.076553

  Mayer bond orders larger than 0.100000
B(  0-O ,  1-C ) :   0.8946 B(  1-C ,  2-C ) :   0.8490 B(  1-C ,  3-H ) :   0.9673
B(  1-C ,  4-H ) :   0.9272 B(  2-C ,  5-H ) :   1.0407 B(  2-C ,  6-H ) :   1.0343

Dispersion correction           -0.005519031
FINAL SINGLE POINT ENERGY      -153.749616353920

DIPOLE MOMENT
-------------

Method             : TDA/CIS
Type of density    : Electron Density
Level              : Relaxed density
State              :   2
Multiplicity       :   3
Irrep              :   0
Energy             :     0.0000000000000000 Eh
Relativity type    :
Basis              : AO
                                X                 Y                 Z
Electronic contribution:      0.142309960      -0.992935506      -2.404567297
Nuclear contribution   :      0.033705400       0.924378523       3.089683630
                        -----------------------------------------
Total Dipole Moment    :      0.176015359      -0.068556983       0.685116332
                        -----------------------------------------
Magnitude (a.u.)       :      0.710679854
Magnitude (Debye)      :      1.806404633

Rotational constants in cm-1:             1.363541             0.360677             0.310632
Rotational constants in MHz :         40877.943833         10812.836317          9312.503287

                             ****ORCA TERMINATED NORMALLY****
TOTAL RUN TIME: 0 days 0 hours 0 minutes 27 seconds 197 msec
