                         Program Version 6.0.0  -   RELEASE  -
|  1> ! Engrad def2-TZVPPD wB97M-D3BJ
|  2> %pal nprocs 8 end%pal nprocs 64 end
|  3> %tddft Nroots 2 Iroot 1
|  4> sf true
|  5> end
|  6> *xyz 0 3
|  7> O   2.25179026 -0.18543065 -1.17896912
|  8> O   -0.19390357 2.73351426 -2.29603048
|  9> O   0.24837634 -3.76655575 0.69589597
| 10> O   -2.20584331 -1.10795995 -1.32796981
| 11> N   0.38300436 -1.87925782 1.95042062
| 12> N   -1.3915223 -0.14751564 0.54921372
| 13> N   1.06973081 -1.88075323 -0.27096978
| 14> N   -0.83396328 0.66175104 -1.61889659
| 15> C   1.26241406 0.22393724 0.94019081
| 16> C   -0.24426175 2.59136359 -0.11266288
| 17> C   0.57971868 -0.47529059 2.06329457
| 18> C   -0.35072707 0.44799896 1.29746569
| 19> C   2.21439151 1.34304524 1.2386005
| 20> C   -1.42529238 3.3280033 0.37200605
| 21> C   1.57852401 -0.59614694 -0.26629403
| 22> C   -0.4365199 1.96238308 -1.38144547
| 23> C   0.53606047 -2.59674974 0.79597054
| 24> C   -1.5218507 -0.25219841 -0.82056867
| 25> H   0.85135677 -0.1673566 3.06592675
| 26> H   -0.54200985 1.38953573 1.75763003
| 27> H   2.38865527 1.94340684 0.34677287
| 28> H   1.81176439 1.9822767 2.01736327
| 29> H   3.15999317 0.93271794 1.56615739
| 30> H   -2.37408873 2.77680499 0.2815368
| 31> H   -1.30555669 3.76928335 1.35411945
| 32> H   -1.50244169 4.16329022 -0.3538929
| 33> H   -0.03680572 -2.38613994 2.70737482
| 34> H   -1.8907028 -0.9099716 0.98442651
| 35> H   1.25788399 -2.43367315 -1.09943175
| 36> H   -0.9084302 0.4452205 -2.60426612
| 37> *
| 38>
| 39>                          ****END OF INPUT****

CARTESIAN COORDINATES (ANGSTROEM)
---------------------------------
  O      2.251790   -0.185431   -1.178969
  O     -0.193904    2.733514   -2.296030
  O      0.248376   -3.766556    0.695896
  O     -2.205843   -1.107960   -1.327970
  N      0.383004   -1.879258    1.950421
  N     -1.391522   -0.147516    0.549214
  N      1.069731   -1.880753   -0.270970
  N     -0.833963    0.661751   -1.618897
  C      1.262414    0.223937    0.940191
  C     -0.244262    2.591364   -0.112663
  C      0.579719   -0.475291    2.063295
  C     -0.350727    0.447999    1.297466
  C      2.214392    1.343045    1.238600
  C     -1.425292    3.328003    0.372006
  C      1.578524   -0.596147   -0.266294
  C     -0.436520    1.962383   -1.381445
  C      0.536060   -2.596750    0.795971
  C     -1.521851   -0.252198   -0.820569
  H      0.851357   -0.167357    3.065927
  H     -0.542010    1.389536    1.757630
  H      2.388655    1.943407    0.346773
  H      1.811764    1.982277    2.017363
  H      3.159993    0.932718    1.566157
  H     -2.374089    2.776805    0.281537
  H     -1.305557    3.769283    1.354119
  H     -1.502442    4.163290   -0.353893
  H     -0.036806   -2.386140    2.707375
  H     -1.890703   -0.909972    0.984427
  H      1.257884   -2.433673   -1.099432
  H     -0.908430    0.445220   -2.604266

 Total Charge           Charge          ....    0
 Multiplicity           Mult            ....    3
 Number of Electrons    NEL             ....  132
 Basis Dimension        Dim             ....  882

ORBITAL ENERGIES
----------------
                 SPIN UP ORBITALS
  NO   OCC          E(Eh)            E(eV)
   0   1.0000     -19.334908      -526.1296
   1   1.0000     -19.334682      -526.1234
   2   1.0000     -19.324520      -525.8469
   3   1.0000     -19.321280      -525.7588
   4   1.0000     -14.568232      -396.4217
   5   1.0000     -14.567686      -396.4069
   6   1.0000     -14.566882      -396.3850
   7   1.0000     -14.565524      -396.3480
   8   1.0000     -10.511193      -286.0241
   9   1.0000     -10.509048      -285.9657
  10   1.0000     -10.490024      -285.4481
  11   1.0000     -10.482200      -285.2352
  12   1.0000     -10.440076      -284.0889
  13   1.0000     -10.437728      -284.0250
  14   1.0000     -10.417394      -283.4717
  15   1.0000     -10.399661      -282.9892
  16   1.0000     -10.375813      -282.3402
  17   1.0000     -10.366726      -282.0929
  18   1.0000      -1.226534       -33.3757
  19   1.0000      -1.221170       -33.2297
  20   1.0000      -1.202687       -32.7268
  21   1.0000      -1.201816       -32.7031
  22   1.0000      -1.126633       -30.6573
  23   1.0000      -1.092260       -29.7219
  24   1.0000      -1.072575       -29.1862
  25   1.0000      -1.063328       -28.9346
  26   1.0000      -1.001797       -27.2603
  27   1.0000      -0.938439       -25.5362
  28   1.0000      -0.881749       -23.9936
  29   1.0000      -0.824194       -22.4275
  30   1.0000      -0.815282       -22.1849
  31   1.0000      -0.807869       -21.9832
  32   1.0000      -0.790586       -21.5129
  33   1.0000      -0.777380       -21.1536
  34   1.0000      -0.722935       -19.6721
  35   1.0000      -0.701387       -19.0857
  36   1.0000      -0.694247       -18.8914
  37   1.0000      -0.665192       -18.1008
  38   1.0000      -0.641165       -17.4470
  39   1.0000      -0.631180       -17.1753
  40   1.0000      -0.614877       -16.7317
  41   1.0000      -0.607080       -16.5195
  42   1.0000      -0.599405       -16.3106
  43   1.0000      -0.590601       -16.0711
  44   1.0000      -0.579767       -15.7763
  45   1.0000      -0.569411       -15.4945
  46   1.0000      -0.565128       -15.3779
  47   1.0000      -0.560546       -15.2532
  48   1.0000      -0.556584       -15.1454
  49   1.0000      -0.555394       -15.1130
  50   1.0000      -0.544302       -14.8112
  51   1.0000      -0.540252       -14.7010
  52   1.0000      -0.535557       -14.5733
  53   1.0000      -0.513526       -13.9738
  54   1.0000      -0.509298       -13.8587
  55   1.0000      -0.487951       -13.2778
  56   1.0000      -0.440509       -11.9869
  57   1.0000      -0.426013       -11.5924
  58   1.0000      -0.419121       -11.4049
  59   1.0000      -0.409635       -11.1467
  60   1.0000      -0.402623       -10.9559
  61   1.0000      -0.399162       -10.8617
  62   1.0000      -0.394793       -10.7429
  63   1.0000      -0.388624       -10.5750
  64   1.0000      -0.382984       -10.4215
  65   1.0000      -0.376943       -10.2571
  66   1.0000      -0.298923        -8.1341
  67   0.0000       0.009613         0.2616
  68   0.0000       0.028744         0.7822
  69   0.0000       0.032708         0.8900
  70   0.0000       0.036257         0.9866
  71   0.0000       0.043377         1.1804

                 SPIN DOWN ORBITALS
  NO   OCC          E(Eh)            E(eV)
   0   1.0000     -19.334845      -526.1279
   1   1.0000     -19.329378      -525.9791
   2   1.0000     -19.324522      -525.8470
   3   1.0000     -19.321274      -525.7586
   4   1.0000     -14.568187      -396.4205
   5   1.0000     -14.567587      -396.4042
   6   1.0000     -14.566755      -396.3816
   7   1.0000     -14.565530      -396.3482
   8   1.0000     -10.511217      -286.0248
   9   1.0000     -10.509051      -285.9658
  10   1.0000     -10.490055      -285.4489
  11   1.0000     -10.482719      -285.2493
  12   1.0000     -10.439702      -284.0787
  13   1.0000     -10.437426      -284.0168
  14   1.0000     -10.416855      -283.4570
  15   1.0000     -10.376111      -282.3483
  16   1.0000     -10.372114      -282.2396
  17   1.0000     -10.366559      -282.0884
  18   1.0000      -1.226079       -33.3633
  19   1.0000      -1.220119       -33.2011
  20   1.0000      -1.202131       -32.7117
  21   1.0000      -1.194574       -32.5060
  22   1.0000      -1.126203       -30.6455
  23   1.0000      -1.091491       -29.7010
  24   1.0000      -1.071584       -29.1593
  25   1.0000      -1.062613       -28.9152
  26   1.0000      -1.000782       -27.2327
  27   1.0000      -0.909657       -24.7530
  28   1.0000      -0.880995       -23.9731
  29   1.0000      -0.823030       -22.3958
  30   1.0000      -0.811824       -22.0909
  31   1.0000      -0.802259       -21.8306
  32   1.0000      -0.787286       -21.4231
  33   1.0000      -0.771931       -21.0053
  34   1.0000      -0.717727       -19.5304
  35   1.0000      -0.698672       -19.0118
  36   1.0000      -0.687555       -18.7093
  37   1.0000      -0.663272       -18.0485
  38   1.0000      -0.635641       -17.2967
  39   1.0000      -0.626165       -17.0388
  40   1.0000      -0.612136       -16.6571
  41   1.0000      -0.604617       -16.4525
  42   1.0000      -0.588413       -16.0115
  43   1.0000      -0.582174       -15.8418
  44   1.0000      -0.574860       -15.6427
  45   1.0000      -0.563572       -15.3356
  46   1.0000      -0.558981       -15.2106
  47   1.0000      -0.554524       -15.0894
  48   1.0000      -0.554266       -15.0823
  49   1.0000      -0.550681       -14.9848
  50   1.0000      -0.537855       -14.6358
  51   1.0000      -0.534503       -14.5446
  52   1.0000      -0.525227       -14.2922
  53   1.0000      -0.512943       -13.9579
  54   1.0000      -0.497363       -13.5339
  55   1.0000      -0.486500       -13.2383
  56   1.0000      -0.429782       -11.6950
  57   1.0000      -0.422650       -11.5009
  58   1.0000      -0.418436       -11.3862
  59   1.0000      -0.405033       -11.0215
  60   1.0000      -0.395948       -10.7743
  61   1.0000      -0.393352       -10.7037
  62   1.0000      -0.383378       -10.4323
  63   1.0000      -0.381321       -10.3763
  64   1.0000      -0.375143       -10.2082
  65   0.0000      -0.056419        -1.5352
  66   0.0000       0.008857         0.2410
  67   0.0000       0.021110         0.5744
  68   0.0000       0.032381         0.8811
  69   0.0000       0.034438         0.9371

----------------------------------------------------------------------------------------------------
          SPIN FLIP ABSORPTION SPECTRUM VIA TRANSITION ELECTRIC DIPOLE MOMENTS
----------------------------------------------------------------------------------------------------
     Transition      Energy     Energy  Wavelength fosc(D2)      D2        DX        DY        DZ
                      (eV)      (cm-1)    (nm)                 (au**2)    (au)      (au)      (au)
----------------------------------------------------------------------------------------------------
  1-3A  ->  2-3A    2.051516   16546.6   604.4   0.000343338   0.00683  -0.04074  -0.05911   0.04096

Dispersion correction             ... done (  0.1 sec)

MULLIKEN ATOMIC CHARGES AND SPIN DENSITIES
------------------------------------------
   0 O :   -0.648732   -0.000375
   1 O :   -0.631879   -0.025277
   2 O :   -0.647165   -0.000025
   3 O :   -0.652836    0.000155
   4 N :   -0.170019   -0.000321
   5 N :   -0.111954   -0.002618
   6 N :    0.006181   -0.000234
   7 N :    0.053628   -0.007588
   8 C :    1.847183   -0.043976
   9 C :    0.018092    0.150716
  10 C :   -0.085575    0.001357
  11 C :   -1.020330   -0.156345
  12 C :   -1.582738    0.057433
  13 C :   -0.963193    0.177011
  14 C :   -0.011153    0.008464
  15 C :    0.622140   -0.176082
  16 C :    0.452253    0.000396
  17 C :    0.530224    0.008618
  18 H :    0.268275   -0.000293
  19 H :    0.495648    0.073113
  20 H :    0.311231   -0.027449
  21 H :    0.316942   -0.012267
  22 H :    0.444581   -0.010855
  23 H :    0.304575   -0.009489
  24 H :    0.298992    0.006008
  25 H :    0.356147   -0.012986
  26 H :    0.030071   -0.000355
  27 H :    0.102745   -0.000599
  28 H :    0.043544   -0.000054
  29 H :    0.023120    0.003919
Sum of atomic charges       :   -0.0000000

LOEWDIN ATOMIC CHARGES AND SPIN DENSITIES
-----------------------------------------
   0 O :    0.119294   -0.000188
   1 O :    0.099537   -0.030363
   2 O :    0.095072    0.000028
   3 O :    0.098368   -0.000537
   4 N :    0.288442   -0.000020
   5 N :    0.276245    0.000178
   6 N :    0.339671   -0.000116
   7 N :    0.336559    0.000452
   8 C :   -0.166988   -0.000858
   9 C :    0.155027    0.053651
  10 C :   -0.072238    0.000152
  11 C :   -0.031092   -0.001055
  12 C :    0.180965   -0.007655
  13 C :    0.106089    0.000902
  14 C :   -0.380840   -0.000183
  15 C :   -0.516174   -0.007929
  16 C :   -0.477004    0.000003
  17 C :   -0.474870   -0.000290
  18 H :    0.059558    0.000028
  19 H :   -0.001970   -0.000298
  20 H :   -0.006774   -0.003217
  21 H :   -0.000017   -0.001055
  22 H :    0.002542   -0.001305
  23 H :    0.009008    0.000428
  24 H :   -0.016807   -0.000352
  25 H :    0.030175   -0.000412
  26 H :   -0.026287   -0.000004
  27 H :   -0.025070   -0.000039
  28 H :    0.003138   -0.000007
  29 H :   -0.003558    0.000060

  Mayer bond orders larger than 0.100000
B(  0-O ,  8-C ) :  -0.1601 B(  0-O , 14-C ) :   1.6129 B(  1-O ,  9-C ) :   0.2845
B(  1-O , 15-C ) :   1.1956 B(  2-O , 16-C ) :   1.5735 B(  3-O , 17-C ) :   1.4904
B(  4-N ,  8-C ) :   0.1018 B(  4-N , 10-C ) :   0.6284 B(  4-N , 16-C ) :   1.0933
B(  4-N , 26-H ) :   1.1281 B(  5-N , 11-C ) :   0.6882 B(  5-N , 17-C ) :   0.9554
B(  5-N , 19-H ) :  -0.1382 B(  5-N , 27-H ) :   1.0375 B(  6-N , 10-C ) :   0.1126
B(  6-N , 14-C ) :   1.0737 B(  6-N , 16-C ) :   0.9390 B(  6-N , 28-H ) :   1.1038
B(  7-N , 15-C ) :   0.9179 B(  7-N , 17-C ) :   0.9664 B(  7-N , 29-H ) :   1.1199
B(  8-C , 10-C ) :   0.5922 B(  8-C , 11-C ) :   0.1361 B(  8-C , 14-C ) :   0.2063
B(  8-C , 21-H ) :  -0.1278 B(  9-C , 12-C ) :  -0.2611 B(  9-C , 13-C ) :   0.4475
B(  9-C , 15-C ) :   0.7062 B(  9-C , 20-H ) :  -0.1170 B( 10-C , 11-C ) :   0.7797
B( 10-C , 12-C ) :  -0.1303 B( 10-C , 14-C ) :  -0.1098 B( 10-C , 16-C ) :  -0.1122
B( 10-C , 18-H ) :   1.1084 B( 11-C , 15-C ) :   0.1067 B( 11-C , 19-H ) :   0.9686
B( 12-C , 14-C ) :   0.1045 B( 12-C , 20-H ) :   1.0314 B( 12-C , 21-H ) :   1.0656
B( 12-C , 22-H ) :   0.7434 B( 13-C , 23-H ) :   0.9814 B( 13-C , 24-H ) :   1.0270
B( 13-C , 25-H ) :   0.8605 B( 15-C , 17-C ) :  -0.1021

Dispersion correction           -0.058301088
FINAL SINGLE POINT ENERGY      -908.735749029043

DIPOLE MOMENT
-------------

Method             : TDA/CIS
Type of density    : Electron Density
Level              : Relaxed density
State              :   1
Multiplicity       :   3
Irrep              :   0
Energy             :     0.0000000000000000 Eh
Relativity type    :
Basis              : AO
                                X                 Y                 Z
Electronic contribution:     -0.495413076      -9.811796792      -6.653815098
Nuclear contribution   :      0.039908121      10.710558817       9.234244434
                        -----------------------------------------
Total Dipole Moment    :     -0.455504955       0.898762025       2.580429336
                        -----------------------------------------
Magnitude (a.u.)       :      2.770175716
Magnitude (Debye)      :      7.041227095

Rotational constants in cm-1:             0.022780             0.012882             0.011649
Rotational constants in MHz :           682.915588           386.188339           349.235740

                             ****ORCA TERMINATED NORMALLY****
TOTAL RUN TIME: 0 days 0 hours 4 minutes 48 seconds 524 msec
