                         Program Version 6.0.0  -   RELEASE  -
|  1> ! Engrad def2-TZVPPD wB97M-D3BJ
|  2> %pal nprocs 8 end%pal nprocs 64 end
|  3> %tddft
|  4>  Iroot 2 Nroots 3
|  5> sf true
|  6> end
|  7> *xyz 0 3
|  8> O   0.90886559 -0.89398156 0.53029769
|  9> C   0.62013277 0.07551283 -0.39237742
| 10> C   -0.36582197 1.10679652 0.12591818
| 11> H   0.03000133 -0.38664162 -1.23870504
| 12> H   1.42312471 0.40954266 -0.99671816
| 13> H   -0.31047362 2.1216768 -0.20887466
| 14> H   -1.29930842 0.70604335 0.34010135
| 15> *
| 16>
| 17>                          ****END OF INPUT****

CARTESIAN COORDINATES (ANGSTROEM)
---------------------------------
  O      0.908866   -0.893982    0.530298
  C      0.620133    0.075513   -0.392377
  C     -0.365822    1.106797    0.125918
  H      0.030001   -0.386642   -1.238705
  H      1.423125    0.409543   -0.996718
  H     -0.310474    2.121677   -0.208875
  H     -1.299308    0.706043    0.340101

 Total Charge           Charge          ....    0
 Multiplicity           Mult            ....    3
 Number of Electrons    NEL             ....   24
 Basis Dimension        Dim             ....  182

ORBITAL ENERGIES
----------------
                 SPIN UP ORBITALS
  NO   OCC          E(Eh)            E(eV)
   0   1.0000     -19.388926      -527.5995
   1   1.0000     -10.413529      -283.3665
   2   1.0000     -10.369144      -282.1587
   3   1.0000      -1.166072       -31.7304
   4   1.0000      -0.880366       -23.9560
   5   1.0000      -0.744933       -20.2706
   6   1.0000      -0.608567       -16.5600
   7   1.0000      -0.592878       -16.1330
   8   1.0000      -0.550163       -14.9707
   9   1.0000      -0.525060       -14.2876
  10   1.0000      -0.436312       -11.8727
  11   1.0000      -0.413457       -11.2507
  12   1.0000      -0.331119        -9.0102
  13   0.0000       0.039147         1.0652
  14   0.0000       0.061969         1.6863
  15   0.0000       0.078495         2.1359
  16   0.0000       0.086142         2.3440
  17   0.0000       0.112187         3.0528

                 SPIN DOWN ORBITALS
  NO   OCC          E(Eh)            E(eV)
   0   1.0000     -19.365678      -526.9669
   1   1.0000     -10.414781      -283.4006
   2   1.0000     -10.355250      -281.7807
   3   1.0000      -1.113611       -30.3029
   4   1.0000      -0.848232       -23.0816
   5   1.0000      -0.718957       -19.5638
   6   1.0000      -0.587937       -15.9986
   7   1.0000      -0.544970       -14.8294
   8   1.0000      -0.526494       -14.3266
   9   1.0000      -0.494978       -13.4690
  10   1.0000      -0.384811       -10.4712
  11   0.0000      -0.055764        -1.5174
  12   0.0000      -0.003812        -0.1037
  13   0.0000       0.039238         1.0677
  14   0.0000       0.061481         1.6730
  15   0.0000       0.078458         2.1350

----------------------------------------------------------------------------------------------------
          SPIN FLIP ABSORPTION SPECTRUM VIA TRANSITION ELECTRIC DIPOLE MOMENTS
----------------------------------------------------------------------------------------------------
     Transition      Energy     Energy  Wavelength fosc(D2)      D2        DX        DY        DZ
                      (eV)      (cm-1)    (nm)                 (au**2)    (au)      (au)      (au)
----------------------------------------------------------------------------------------------------
  1-3A  ->  2-3A    0.181259    1462.0  6840.2   0.000149737   0.03372   0.02010  -0.17353  -0.05658
  1-3A  ->  3-3A    0.717986    5791.0  1726.8   0.010467904   0.59509   0.39067  -0.61746   0.24742

Dispersion correction             ... done (  0.2 sec)

MULLIKEN ATOMIC CHARGES AND SPIN DENSITIES
------------------------------------------
   0 O :   -0.327963    0.357818
   1 C :    0.024445    0.090179
   2 C :   -0.516132   -0.329141
   3 H :    0.173805    0.007752
   4 H :    0.239145   -0.018745
   5 H :    0.218810   -0.034110
   6 H :    0.187889   -0.073754
Sum of atomic charges       :    0.0000000

LOEWDIN ATOMIC CHARGES AND SPIN DENSITIES
-----------------------------------------
   0 O :    0.055913    0.340559
   1 C :   -0.246744   -0.021402
   2 C :    0.323348   -0.237393
   3 H :    0.045934    0.009914
   4 H :   -0.011660   -0.018278
   5 H :   -0.071013   -0.035384
   6 H :   -0.095778   -0.038016

  Mayer bond orders larger than 0.100000
B(  0-O ,  1-C ) :   0.8394 B(  0-O ,  2-C ) :   0.1309 B(  1-C ,  2-C ) :   0.7643
B(  1-C ,  3-H ) :   0.9422 B(  1-C ,  4-H ) :   0.9626 B(  2-C ,  5-H ) :   1.0232
B(  2-C ,  6-H ) :   1.0477

Dispersion correction           -0.005547184
FINAL SINGLE POINT ENERGY      -153.739622665393

DIPOLE MOMENT
-------------

Method             : TDA/CIS
Type of density    : Electron Density
Level              : Relaxed density
State              :   2
Multiplicity       :   3
Irrep              :   0
Energy             :     0.0000000000000000 Eh
Relativity type    :
Basis              : AO
                                X                 Y                 Z
Electronic contribution:      1.318703784      -1.929190955       1.429063023
Nuclear contribution   :     -1.624822088       2.424154649      -2.236750024
                        -----------------------------------------
Total Dipole Moment    :     -0.306118305       0.494963695      -0.807687001
                        -----------------------------------------
Magnitude (a.u.)       :      0.995517838
Magnitude (Debye)      :      2.530405251

Rotational constants in cm-1:             1.463365             0.344750             0.301608
Rotational constants in MHz :         43870.571454         10335.340577          9041.975832

                             ****ORCA TERMINATED NORMALLY****
TOTAL RUN TIME: 0 days 0 hours 0 minutes 26 seconds 461 msec
