                         Program Version 6.0.0  -   RELEASE  -
|  1> ! opt def2-TZVPPD wB97M-D3BJ
|  2> %pal nprocs 8 end%pal nprocs 64 end
|  3>  %geom Constraints
|  4>  {B 9 8 2.6 C}
|  5>  {A 8 9 11 88.85714285714286 C}
|  6>  end
|  7>  end
|  8> *xyz 0 1
|  9> O   2.98579685529314 0.88758230159078 -0.86184571092411
| 10> O   -0.03983205397054 0.68929041702508 -2.10362336723772
| 11> O   0.93431434349854 -3.13274393337945 -0.68767288184107
| 12> O   -3.75829998830163 -0.84727300865116 -0.0472717177755
| 13> N   0.21184538946282 -1.54604804365365 0.7617588924445
| 14> N   -2.13631993928911 0.03188773433438 1.27350571071531
| 15> N   2.02598672506387 -1.14318467211666 -0.64531219127023
| 16> N   -1.91814233924584 0.03137116037665 -1.04498946748291
| 17> C   1.18097737274226 0.71693507080484 0.70173889017321
| 18> C   -0.20686880480777 1.27024627933494 0.21345042231937
| 19> C   0.41441080275909 -0.34173258966541 1.52336266615173
| 20> C   -0.82922175114212 0.58960593673968 1.44434972027296
| 21> C   1.92822011286806 1.69488653817281 1.5963734975385
| 22> C   -0.37809776891576 2.77134929626422 0.04819649358288
| 23> C   2.1403947470937 0.1972384729179 -0.35038567829864
| 24> C   -0.67361678962426 0.6214190571346 -1.0793014500539
| 25> C   1.04142578622994 -2.02697492875068 -0.21027082435993
| 26> C   -2.68467002550422 -0.30396816036989 0.07167054343891
| 27> H   0.80817443950001 -0.54572267081061 2.51895215321335
| 28> H   -0.83785272399001 1.27240685039143 2.28901317073582
| 29> H   2.31167340578204 2.52284411740894 1.00913016264629
| 30> H   1.28982602448342 2.08257620823614 2.38710022492991
| 31> H   2.77390820759972 1.19140411795486 2.06045858523949
| 32> H   -1.41857211141493 3.00964947214868 -0.16882755561625
| 33> H   -0.09065531563179 3.29799318042223 0.95389844358819
| 34> H   0.23426221611057 3.12492645074476 -0.77764887675592
| 35> H   -0.46772570547622 -2.21560145172536 1.0787081584806
| 36> H   -2.71769301149571 -0.17090724573546 2.06627440900372
| 37> H   2.60065167263658 -1.49057255715425 -1.3966820077142
| 38> H   -2.27169977231386 -0.32388339999036 -1.91951041514436
| 39> *
| 40>
| 41>                          ****END OF INPUT****
 Total Charge           Charge          ....    0
 Multiplicity           Mult            ....    1
 Number of Electrons    NEL             ....  132
Dispersion correction           -0.054820571
FINAL SINGLE POINT ENERGY      -908.713789387379
Dispersion correction             ... done (  0.1 sec)
Dispersion correction           -0.055463310
FINAL SINGLE POINT ENERGY      -908.735837083509
Dispersion correction             ... done (  0.1 sec)
Dispersion correction           -0.056363081
FINAL SINGLE POINT ENERGY      -908.749125983299
Dispersion correction             ... done (  0.1 sec)
FINAL SINGLE POINT ENERGY      -908.758331555605
FINAL SINGLE POINT ENERGY      -908.763389866397
FINAL SINGLE POINT ENERGY      -908.768917759668
FINAL SINGLE POINT ENERGY      -908.771741219127
FINAL SINGLE POINT ENERGY      -908.775318952856
FINAL SINGLE POINT ENERGY      -908.778389278402
FINAL SINGLE POINT ENERGY      -908.779410778623
FINAL SINGLE POINT ENERGY      -908.784259545495
FINAL SINGLE POINT ENERGY      -908.784615862550
FINAL SINGLE POINT ENERGY      -908.785144118338
FINAL SINGLE POINT ENERGY      -908.785260115349
FINAL SINGLE POINT ENERGY      -908.785356640074
FINAL SINGLE POINT ENERGY      -908.785393197796
FINAL SINGLE POINT ENERGY      -908.785410514013
Dispersion correction             ... done (  0.1 sec)
Dispersion correction           -0.059824118
FINAL SINGLE POINT ENERGY      -908.785420420723
Dispersion correction             ... done (  0.1 sec)
Dispersion correction           -0.059848447
FINAL SINGLE POINT ENERGY      -908.785423864642
Dispersion correction             ... done (  0.1 sec)
                    ***********************HURRAY********************

CARTESIAN COORDINATES (ANGSTROEM)
---------------------------------
  O      2.505539   -0.006929   -1.468848
  O     -0.561235    2.274687   -1.959688
  O      0.445566   -3.267091    0.748260
  O     -2.417325   -1.812639   -1.311386
  N      0.549912   -1.245608    1.790991
  N     -2.009539   -0.535867    0.520877
  N      1.030842   -1.433151   -0.481384
  N     -1.431126    0.209289   -1.611674
  C      1.563472    0.635295    0.604984
  C     -0.842653    1.567077    0.285065
  C      0.391283    0.139506    1.602912
  C     -1.327293    0.534462    1.155058
  C      2.557813    1.621587    1.072548
  C     -0.601406    2.930915    0.803462
  C      1.765339   -0.219344   -0.526461
  C     -0.903980    1.411237   -1.184217
  C      0.661632   -2.081098    0.683633
  C     -1.978197   -0.799360   -0.826453
  H      0.491657    0.669391    2.545397
  H     -1.815130    0.872707    2.062027
  H      3.353797    1.713966    0.338713
  H      2.114645    2.609263    1.227542
  H      2.993738    1.318111    2.030078
  H     -1.556524    3.463716    0.851101
  H     -0.190462    2.910255    1.811500
  H      0.054689    3.479941    0.136426
  H      0.172160   -1.714674    2.598092
  H     -2.308645   -1.321163    1.072186
  H      1.190609   -2.051298   -1.261334
  H     -1.446575    0.041817   -2.604806

 Multiplicity           Mult            ....    1
 Number of Electrons    NEL             ....  132
 Basis Dimension        Dim             ....  882

ORBITAL ENERGIES
----------------

  NO   OCC          E(Eh)            E(eV)
   0   2.0000     -19.336016      -526.1597
   1   2.0000     -19.324417      -525.8441
   2   2.0000     -19.323151      -525.8097
   3   2.0000     -19.310566      -525.4672
   4   2.0000     -14.569641      -396.4601
   5   2.0000     -14.569256      -396.4496
   6   2.0000     -14.566526      -396.3753
   7   2.0000     -14.548723      -395.8909
   8   2.0000     -10.511135      -286.0225
   9   2.0000     -10.502777      -285.7951
  10   2.0000     -10.492297      -285.5099
  11   2.0000     -10.463035      -284.7137
  12   2.0000     -10.459154      -284.6081
  13   2.0000     -10.454418      -284.4792
  14   2.0000     -10.447871      -284.3010
  15   2.0000     -10.395959      -282.8884
  16   2.0000     -10.385188      -282.5953
  17   2.0000     -10.361401      -281.9481
  18   2.0000      -1.226293       -33.3691
  19   2.0000      -1.215586       -33.0778
  20   2.0000      -1.202568       -32.7235
  21   2.0000      -1.177452       -32.0401
  22   2.0000      -1.120414       -30.4880
  23   2.0000      -1.101656       -29.9776
  24   2.0000      -1.070403       -29.1271
  25   2.0000      -1.050965       -28.5982
  26   2.0000      -0.988338       -26.8940
  27   2.0000      -0.928422       -25.2636
  28   2.0000      -0.878015       -23.8920
  29   2.0000      -0.837982       -22.8026
  30   2.0000      -0.823476       -22.4079
  31   2.0000      -0.799897       -21.7663
  32   2.0000      -0.794172       -21.6105
  33   2.0000      -0.770903       -20.9773
  34   2.0000      -0.704867       -19.1804
  35   2.0000      -0.699662       -19.0388
  36   2.0000      -0.682040       -18.5593
  37   2.0000      -0.655549       -17.8384
  38   2.0000      -0.650951       -17.7133
  39   2.0000      -0.641966       -17.4688
  40   2.0000      -0.618247       -16.8234
  41   2.0000      -0.603850       -16.4316
  42   2.0000      -0.584892       -15.9157
  43   2.0000      -0.580882       -15.8066
  44   2.0000      -0.577061       -15.7026
  45   2.0000      -0.571607       -15.5542
  46   2.0000      -0.567273       -15.4363
  47   2.0000      -0.557731       -15.1766
  48   2.0000      -0.549952       -14.9650
  49   2.0000      -0.547678       -14.9031
  50   2.0000      -0.537599       -14.6288
  51   2.0000      -0.533770       -14.5246
  52   2.0000      -0.528529       -14.3820
  53   2.0000      -0.524361       -14.2686
  54   2.0000      -0.509548       -13.8655
  55   2.0000      -0.496260       -13.5039
  56   2.0000      -0.480961       -13.0876
  57   2.0000      -0.423885       -11.5345
  58   2.0000      -0.418061       -11.3760
  59   2.0000      -0.414252       -11.2724
  60   2.0000      -0.405916       -11.0455
  61   2.0000      -0.395603       -10.7649
  62   2.0000      -0.387261       -10.5379
  63   2.0000      -0.374965       -10.2033
  64   2.0000      -0.367738       -10.0067
  65   2.0000      -0.288177        -7.8417
  66   0.0000      -0.076429        -2.0798
  67   0.0000       0.003487         0.0949
  68   0.0000       0.026772         0.7285
  69   0.0000       0.029320         0.7978
  70   0.0000       0.038885         1.0581

MULLIKEN ATOMIC CHARGES
-----------------------
   0 O :   -0.699486
   1 O :   -0.659544
   2 O :   -0.633297
   3 O :   -0.637915
   4 N :   -0.290297
   5 N :   -0.213997
   6 N :    0.067819
   7 N :    0.036770
   8 C :    0.401179
   9 C :    0.948421
  10 C :    0.439690
  11 C :   -0.065893
  12 C :   -1.463753
  13 C :   -1.644480
  14 C :    0.098372
  15 C :    0.386784
  16 C :    0.248228
  17 C :    0.463578
  18 H :    0.541717
  19 H :    0.414624
  20 H :    0.360916
  21 H :    0.248264
  22 H :    0.332752
  23 H :    0.426690
  24 H :    0.355864
  25 H :    0.316033
  26 H :    0.107690
  27 H :    0.048691
  28 H :    0.048673
  29 H :    0.015907
Sum of atomic charges:    0.0000000

LOEWDIN ATOMIC CHARGES
----------------------
   0 O :    0.084517
   1 O :    0.112425
   2 O :    0.100513
   3 O :    0.103508
   4 N :    0.263190
   5 N :    0.278096
   6 N :    0.317241
   7 N :    0.337982
   8 C :   -0.052416
   9 C :   -0.048700
  10 C :   -0.035877
  11 C :   -0.053326
  12 C :    0.169901
  13 C :    0.186852
  14 C :   -0.433928
  15 C :   -0.392591
  16 C :   -0.482084
  17 C :   -0.484483
  18 H :    0.029389
  19 H :    0.046548
  20 H :    0.000043
  21 H :   -0.015328
  22 H :    0.005305
  23 H :    0.024059
  24 H :    0.001472
  25 H :    0.005532
  26 H :   -0.027102
  27 H :   -0.023277
  28 H :   -0.013182
  29 H :   -0.004278

  Mayer bond orders larger than 0.100000
B(  0-O , 14-C ) :   1.3744 B(  1-O , 15-C ) :   1.3116 B(  2-O , 16-C ) :   1.5334
B(  3-O , 17-C ) :   1.5496 B(  4-N ,  8-C ) :   0.3481 B(  4-N , 10-C ) :   0.1272
B(  4-N , 16-C ) :   1.1745 B(  4-N , 26-H ) :   1.0180 B(  5-N ,  9-C ) :   0.2343
B(  5-N , 11-C ) :   0.4306 B(  5-N , 17-C ) :   1.0387 B(  5-N , 27-H ) :   1.0977
B(  6-N , 10-C ) :   0.1027 B(  6-N , 14-C ) :   0.9638 B(  6-N , 16-C ) :   1.0043
B(  6-N , 28-H ) :   1.0642 B(  7-N , 15-C ) :   1.0116 B(  7-N , 17-C ) :   0.9154
B(  7-N , 29-H ) :   1.1166 B(  8-C ,  9-C ) :   0.5936 B(  8-C , 12-C ) :   0.3763
B(  8-C , 14-C ) :   0.9633 B(  8-C , 15-C ) :   0.2106 B(  8-C , 16-C ) :   0.1087
B(  9-C , 11-C ) :   0.4633 B(  9-C , 13-C ) :   0.2656 B(  9-C , 15-C ) :   0.6124
B(  9-C , 19-H ) :  -0.1568 B(  9-C , 24-H ) :  -0.1384 B(  9-C , 25-H ) :  -0.1574
B( 10-C , 11-C ) :   0.6066 B( 10-C , 12-C ) :  -0.1641 B( 10-C , 14-C ) :  -0.2520
B( 10-C , 16-C ) :  -0.2920 B( 10-C , 18-H ) :   0.8010 B( 11-C , 13-C ) :  -0.1758
B( 11-C , 17-C ) :  -0.1401 B( 11-C , 19-H ) :   0.9552 B( 12-C , 20-H ) :   0.9052
B( 12-C , 21-H ) :   1.0321 B( 12-C , 22-H ) :   0.9115 B( 13-C , 23-H ) :   0.7118
B( 13-C , 24-H ) :   1.0174 B( 13-C , 25-H ) :   1.0828

Dispersion correction           -0.059841091
FINAL SINGLE POINT ENERGY      -908.785425114992

DIPOLE MOMENT
-------------

Method             : SCF
Type of density    : Electron Density
Multiplicity       :   1
Irrep              :   0
Energy             :  -908.7255840244399678 Eh
Relativity type    :
Basis              : AO
                                X                 Y                 Z
Electronic contribution:     -4.106598154      -9.892207698      -7.559468472
Nuclear contribution   :      3.212643216      11.464493064      10.342506223
                        -----------------------------------------
Total Dipole Moment    :     -0.893954938       1.572285366       2.783037751
                        -----------------------------------------
Magnitude (a.u.)       :      3.319116724
Magnitude (Debye)      :      8.436524251

Rotational constants in cm-1:             0.017777             0.016816             0.012922
Rotational constants in MHz :           532.927539           504.137510           387.394823

                             ****ORCA TERMINATED NORMALLY****
TOTAL RUN TIME: 0 days 0 hours 45 minutes 55 seconds 21 msec
