                         Program Version 6.0.0  -   RELEASE  -
|  1> ! Engrad def2-TZVPPD wB97M-D3BJ
|  2> %pal nprocs 8 end%pal nprocs 64 end
|  3> %tddft
|  4>  Iroot 1 Nroots 3
|  5> sf true
|  6> end
|  7> *xyz 0 3
|  8> O   1.09747773 -0.89268191 -0.03112334
|  9> C   0.52255057 0.25015542 0.53134766
| 10> C   -0.49972383 0.92173407 -0.3240724
| 11> H   1.2699026 0.92495649 0.86462239
| 12> H   0.12879019 -0.13135965 1.59014578
| 13> H   -0.5744082 1.9948688 -0.24528466
| 14> H   -1.0507509 0.31802932 -1.01451636
| 15> *
| 16>
| 17>                          ****END OF INPUT****

CARTESIAN COORDINATES (ANGSTROEM)
---------------------------------
  O      1.097478   -0.892682   -0.031123
  C      0.522551    0.250155    0.531348
  C     -0.499724    0.921734   -0.324072
  H      1.269903    0.924956    0.864622
  H      0.128790   -0.131360    1.590146
  H     -0.574408    1.994869   -0.245285
  H     -1.050751    0.318029   -1.014516

 Total Charge           Charge          ....    0
 Multiplicity           Mult            ....    3
 Number of Electrons    NEL             ....   24
 Basis Dimension        Dim             ....  182

ORBITAL ENERGIES
----------------
                 SPIN UP ORBITALS
  NO   OCC          E(Eh)            E(eV)
   0   1.0000     -19.388409      -527.5854
   1   1.0000     -10.418195      -283.4935
   2   1.0000     -10.369625      -282.1718
   3   1.0000      -1.156271       -31.4637
   4   1.0000      -0.876565       -23.8526
   5   1.0000      -0.736906       -20.0522
   6   1.0000      -0.605285       -16.4706
   7   1.0000      -0.585804       -15.9405
   8   1.0000      -0.546998       -14.8846
   9   1.0000      -0.521283       -14.1848
  10   1.0000      -0.441848       -12.0233
  11   1.0000      -0.415499       -11.3063
  12   1.0000      -0.322953        -8.7880
  13   0.0000       0.040728         1.1083
  14   0.0000       0.059989         1.6324
  15   0.0000       0.079881         2.1737
  16   0.0000       0.085519         2.3271
  17   0.0000       0.110800         3.0150

                 SPIN DOWN ORBITALS
  NO   OCC          E(Eh)            E(eV)
   0   1.0000     -19.364952      -526.9471
   1   1.0000     -10.419836      -283.5381
   2   1.0000     -10.356544      -281.8159
   3   1.0000      -1.102670       -30.0052
   4   1.0000      -0.844474       -22.9793
   5   1.0000      -0.711161       -19.3517
   6   1.0000      -0.583175       -15.8690
   7   1.0000      -0.533889       -14.5279
   8   1.0000      -0.525936       -14.3114
   9   1.0000      -0.500149       -13.6097
  10   1.0000      -0.385913       -10.5012
  11   0.0000      -0.051819        -1.4101
  12   0.0000      -0.003047        -0.0829
  13   0.0000       0.040330         1.0974
  14   0.0000       0.059915         1.6304
  15   0.0000       0.079858         2.1731

----------------------------------------------------------------------------------------------------
          SPIN FLIP ABSORPTION SPECTRUM VIA TRANSITION ELECTRIC DIPOLE MOMENTS
----------------------------------------------------------------------------------------------------
     Transition      Energy     Energy  Wavelength fosc(D2)      D2        DX        DY        DZ
                      (eV)      (cm-1)    (nm)                 (au**2)    (au)      (au)      (au)
----------------------------------------------------------------------------------------------------
  1-3A  ->  2-3A    0.174822    1410.0  7092.0   0.000600059   0.14010   0.18487  -0.30827   0.10438
  1-3A  ->  3-3A    0.758924    6121.1  1633.7   0.009489929   0.51040  -0.43495   0.55884   0.09443

Dispersion correction             ... done (  0.2 sec)

MULLIKEN ATOMIC CHARGES AND SPIN DENSITIES
------------------------------------------
   0 O :   -0.411872    0.241823
   1 C :   -0.067386   -0.018939
   2 C :   -0.304979   -0.228995
   3 H :    0.217835    0.004385
   4 H :    0.222455    0.062173
   5 H :    0.157401   -0.041338
   6 H :    0.186545   -0.019108
Sum of atomic charges       :    0.0000000

LOEWDIN ATOMIC CHARGES AND SPIN DENSITIES
-----------------------------------------
   0 O :   -0.044332    0.209259
   1 C :   -0.253477    0.004964
   2 C :    0.317683   -0.203830
   3 H :    0.001136    0.003131
   4 H :    0.104290    0.042974
   5 H :   -0.064625   -0.032017
   6 H :   -0.060674   -0.024480

  Mayer bond orders larger than 0.100000
B(  0-O ,  1-C ) :   0.9750 B(  0-O ,  2-C ) :   0.2038 B(  1-C ,  2-C ) :   0.9303
B(  1-C ,  3-H ) :   0.9174 B(  1-C ,  4-H ) :   0.8964 B(  2-C ,  5-H ) :   1.0285
B(  2-C ,  6-H ) :   0.9857

Dispersion correction           -0.005476267
FINAL SINGLE POINT ENERGY      -153.752790316388

DIPOLE MOMENT
-------------

Method             : TDA/CIS
Type of density    : Electron Density
Level              : Relaxed density
State              :   1
Multiplicity       :   3
Irrep              :   0
Energy             :     0.0000000000000000 Eh
Relativity type    :
Basis              : AO
                                X                 Y                 Z
Electronic contribution:      1.256278443      -1.706331460      -0.444564179
Nuclear contribution   :     -1.701799076       2.651095789       0.847287464
                        -----------------------------------------
Total Dipole Moment    :     -0.445520634       0.944764329       0.402723285
                        -----------------------------------------
Magnitude (a.u.)       :      1.119488418
Magnitude (Debye)      :      2.845513421

Rotational constants in cm-1:             1.438540             0.342980             0.295662
Rotational constants in MHz :         43126.333318         10282.293879          8863.735759

                             ****ORCA TERMINATED NORMALLY****
TOTAL RUN TIME: 0 days 0 hours 0 minutes 26 seconds 60 msec
