                         Program Version 6.0.0  -   RELEASE  -
|  1> ! opt def2-TZVPPD wB97M-D3BJ
|  2> %pal nprocs 8 end%pal nprocs 32 end
|  3> %geom Constraints
|  4> {B 9 8 3.3 C}
|  5> {A 8 9 11 98.0 C}
|  6> end
|  7> MaxIter 300
|  8> end
|  9> *xyz 0 1
| 10> O   2.98579685529314 0.88758230159078 -0.86184571092411
| 11> O   -0.03983205397054 0.68929041702508 -2.10362336723772
| 12> O   0.93431434349854 -3.13274393337945 -0.68767288184107
| 13> O   -3.75829998830163 -0.84727300865116 -0.0472717177755
| 14> N   0.21184538946282 -1.54604804365365 0.7617588924445
| 15> N   -2.13631993928911 0.03188773433438 1.27350571071531
| 16> N   2.02598672506387 -1.14318467211666 -0.64531219127023
| 17> N   -1.91814233924584 0.03137116037665 -1.04498946748291
| 18> C   1.18097737274226 0.71693507080484 0.70173889017321
| 19> C   -0.20686880480777 1.27024627933494 0.21345042231937
| 20> C   0.41441080275909 -0.34173258966541 1.52336266615173
| 21> C   -0.82922175114212 0.58960593673968 1.44434972027296
| 22> C   1.92822011286806 1.69488653817281 1.5963734975385
| 23> C   -0.37809776891576 2.77134929626422 0.04819649358288
| 24> C   2.1403947470937 0.1972384729179 -0.35038567829864
| 25> C   -0.67361678962426 0.6214190571346 -1.0793014500539
| 26> C   1.04142578622994 -2.02697492875068 -0.21027082435993
| 27> C   -2.68467002550422 -0.30396816036989 0.07167054343891
| 28> H   0.80817443950001 -0.54572267081061 2.51895215321335
| 29> H   -0.83785272399001 1.27240685039143 2.28901317073582
| 30> H   2.31167340578204 2.52284411740894 1.00913016264629
| 31> H   1.28982602448342 2.08257620823614 2.38710022492991
| 32> H   2.77390820759972 1.19140411795486 2.06045858523949
| 33> H   -1.41857211141493 3.00964947214868 -0.16882755561625
| 34> H   -0.09065531563179 3.29799318042223 0.95389844358819
| 35> H   0.23426221611057 3.12492645074476 -0.77764887675592
| 36> H   -0.46772570547622 -2.21560145172536 1.0787081584806
| 37> H   -2.71769301149571 -0.17090724573546 2.06627440900372
| 38> H   2.60065167263658 -1.49057255715425 -1.3966820077142
| 39> H   -2.27169977231386 -0.32388339999036 -1.91951041514436
| 40> *
| 41>
| 42>                          ****END OF INPUT****
 Total Charge           Charge          ....    0
 Multiplicity           Mult            ....    1
 Number of Electrons    NEL             ....  132
Dispersion correction           -0.052231509
FINAL SINGLE POINT ENERGY      -908.534795789404
Dispersion correction             ... done (  0.1 sec)
Dispersion correction           -0.052500616
FINAL SINGLE POINT ENERGY      -908.597606881606
Dispersion correction             ... done (  0.0 sec)
Dispersion correction           -0.052913085
FINAL SINGLE POINT ENERGY      -908.653393422311
Dispersion correction             ... done (  0.0 sec)
FINAL SINGLE POINT ENERGY      -908.727163406559
FINAL SINGLE POINT ENERGY      -908.802198245232
FINAL SINGLE POINT ENERGY      -908.847059942268
FINAL SINGLE POINT ENERGY      -908.872214968792
FINAL SINGLE POINT ENERGY      -908.886191143411
FINAL SINGLE POINT ENERGY      -908.901948896581
FINAL SINGLE POINT ENERGY      -908.916041665879
FINAL SINGLE POINT ENERGY      -908.931615703097
FINAL SINGLE POINT ENERGY      -908.931765684365
FINAL SINGLE POINT ENERGY      -908.931876611154
FINAL SINGLE POINT ENERGY      -908.931963223786
FINAL SINGLE POINT ENERGY      -908.932004333477
FINAL SINGLE POINT ENERGY      -908.932030593903
FINAL SINGLE POINT ENERGY      -908.932044368807
Dispersion correction             ... done (  0.1 sec)
Dispersion correction           -0.058154774
FINAL SINGLE POINT ENERGY      -908.932051734563
Dispersion correction             ... done (  0.0 sec)
Dispersion correction           -0.058146241
FINAL SINGLE POINT ENERGY      -908.932053888171
Dispersion correction             ... done (  0.1 sec)
                    ***********************HURRAY********************

CARTESIAN COORDINATES (ANGSTROEM)
---------------------------------
  O      2.814622    1.102026   -0.696700
  O     -0.406708    0.783555   -2.029086
  O      0.740804   -2.853562   -1.523509
  O     -2.700755   -1.682681    1.012850
  N      0.695490   -2.023888    0.595244
  N     -2.392127    0.539995    1.409415
  N      1.891012   -0.939077   -1.049187
  N     -1.645286   -0.400150   -0.551302
  C      1.608054    0.122248    1.092479
  C     -0.985165    1.852388    0.009966
  C      0.918707   -0.969388    1.448406
  C     -1.758525    1.725001    1.092106
  C      1.880687    1.264535    2.016959
  C     -0.245946    3.097956   -0.360793
  C      2.165265    0.176489   -0.260165
  C     -0.962020    0.748756   -0.953773
  C      1.084108   -2.007652   -0.728105
  C     -2.280033   -0.603814    0.651566
  H      0.489777   -1.082061    2.432997
  H     -1.885967    2.521812    1.808934
  H      1.489598    2.194449    1.610587
  H      1.426279    1.088230    2.989496
  H      2.951843    1.403649    2.150120
  H     -0.638220    3.515560   -1.286168
  H     -0.324724    3.844819    0.426046
  H      0.805054    2.875121   -0.537608
  H      0.041727   -2.747128    0.842265
  H     -2.883811    0.433386    2.277963
  H      2.142208   -0.864703   -2.022758
  H     -1.583349   -1.200875   -1.163644

 Multiplicity           Mult            ....    1
 Number of Electrons    NEL             ....  132
 Basis Dimension        Dim             ....  882

ORBITAL ENERGIES
----------------

  NO   OCC          E(Eh)            E(eV)
   0   2.0000     -19.330086      -525.9984
   1   2.0000     -19.324567      -525.8482
   2   2.0000     -19.318394      -525.6802
   3   2.0000     -19.317311      -525.6507
   4   2.0000     -14.586242      -396.9118
   5   2.0000     -14.574497      -396.5922
   6   2.0000     -14.571619      -396.5139
   7   2.0000     -14.560745      -396.2180
   8   2.0000     -10.516132      -286.1585
   9   2.0000     -10.504653      -285.8462
  10   2.0000     -10.480040      -285.1764
  11   2.0000     -10.472555      -284.9727
  12   2.0000     -10.432784      -283.8905
  13   2.0000     -10.427654      -283.7509
  14   2.0000     -10.381569      -282.4969
  15   2.0000     -10.377033      -282.3734
  16   2.0000     -10.357501      -281.8419
  17   2.0000     -10.353141      -281.7233
  18   2.0000      -1.228915       -33.4405
  19   2.0000      -1.217916       -33.1412
  20   2.0000      -1.195822       -32.5400
  21   2.0000      -1.186558       -32.2879
  22   2.0000      -1.124396       -30.5964
  23   2.0000      -1.115209       -30.3464
  24   2.0000      -1.071918       -29.1684
  25   2.0000      -1.061747       -28.8916
  26   2.0000      -0.959040       -26.0968
  27   2.0000      -0.952238       -25.9117
  28   2.0000      -0.848787       -23.0967
  29   2.0000      -0.844912       -22.9912
  30   2.0000      -0.811551       -22.0834
  31   2.0000      -0.805619       -21.9220
  32   2.0000      -0.795719       -21.6526
  33   2.0000      -0.785878       -21.3848
  34   2.0000      -0.696787       -18.9605
  35   2.0000      -0.693768       -18.8784
  36   2.0000      -0.689433       -18.7604
  37   2.0000      -0.685308       -18.6482
  38   2.0000      -0.644292       -17.5321
  39   2.0000      -0.634929       -17.2773
  40   2.0000      -0.631879       -17.1943
  41   2.0000      -0.599448       -16.3118
  42   2.0000      -0.599107       -16.3025
  43   2.0000      -0.590188       -16.0598
  44   2.0000      -0.569431       -15.4950
  45   2.0000      -0.562662       -15.3108
  46   2.0000      -0.558714       -15.2034
  47   2.0000      -0.552484       -15.0338
  48   2.0000      -0.546569       -14.8729
  49   2.0000      -0.538811       -14.6618
  50   2.0000      -0.521536       -14.1917
  51   2.0000      -0.517552       -14.0833
  52   2.0000      -0.515460       -14.0264
  53   2.0000      -0.511817       -13.9273
  54   2.0000      -0.501466       -13.6456
  55   2.0000      -0.500052       -13.6071
  56   2.0000      -0.480047       -13.0627
  57   2.0000      -0.472247       -12.8505
  58   2.0000      -0.421782       -11.4773
  59   2.0000      -0.411338       -11.1931
  60   2.0000      -0.405468       -11.0333
  61   2.0000      -0.393491       -10.7074
  62   2.0000      -0.387641       -10.5482
  63   2.0000      -0.381014       -10.3679
  64   2.0000      -0.352406        -9.5894
  65   2.0000      -0.338400        -9.2083
  66   0.0000       0.010516         0.2862
  67   0.0000       0.016058         0.4370
  68   0.0000       0.025101         0.6830
  69   0.0000       0.034369         0.9352
  70   0.0000       0.039865         1.0848

MULLIKEN ATOMIC CHARGES
-----------------------
   0 O :   -0.671363
   1 O :   -0.657675
   2 O :   -0.647710
   3 O :   -0.664169
   4 N :   -0.069743
   5 N :   -0.041626
   6 N :    0.013846
   7 N :    0.010638
   8 C :    0.761202
   9 C :    0.488762
  10 C :    0.052628
  11 C :    0.122628
  12 C :   -1.388249
  13 C :   -1.445814
  14 C :    0.403869
  15 C :    0.615651
  16 C :    0.431130
  17 C :    0.467644
  18 H :    0.153565
  19 H :    0.152120
  20 H :    0.176439
  21 H :    0.333567
  22 H :    0.354797
  23 H :    0.361250
  24 H :    0.331229
  25 H :    0.230801
  26 H :    0.055465
  27 H :    0.021374
  28 H :    0.027029
  29 H :    0.020714
Sum of atomic charges:    0.0000000

LOEWDIN ATOMIC CHARGES
----------------------
   0 O :    0.093607
   1 O :    0.104345
   2 O :    0.084828
   3 O :    0.074792
   4 N :    0.277191
   5 N :    0.279482
   6 N :    0.342013
   7 N :    0.341231
   8 C :   -0.137035
   9 C :   -0.141346
  10 C :    0.048660
  11 C :    0.060319
  12 C :    0.181176
  13 C :    0.177185
  14 C :   -0.401715
  15 C :   -0.392665
  16 C :   -0.485276
  17 C :   -0.487479
  18 H :    0.039631
  19 H :    0.036720
  20 H :   -0.021048
  21 H :   -0.005228
  22 H :    0.003043
  23 H :    0.003511
  24 H :   -0.004392
  25 H :   -0.015654
  26 H :   -0.021147
  27 H :   -0.022512
  28 H :   -0.002874
  29 H :   -0.009361

  Mayer bond orders larger than 0.100000
B(  0-O , 14-C ) :   1.4491 B(  1-O , 15-C ) :   1.4239 B(  2-O , 16-C ) :   1.5692
B(  3-O , 17-C ) :   1.5431 B(  4-N , 10-C ) :   0.9034 B(  4-N , 16-C ) :   0.9896
B(  4-N , 26-H ) :   1.1199 B(  5-N , 11-C ) :   0.9565 B(  5-N , 17-C ) :   1.0389
B(  5-N , 27-H ) :   1.1369 B(  6-N , 14-C ) :   1.0210 B(  6-N , 16-C ) :   0.9320
B(  6-N , 28-H ) :   1.0998 B(  7-N , 15-C ) :   0.9873 B(  7-N , 17-C ) :   0.9450
B(  7-N , 29-H ) :   1.1253 B(  8-C , 10-C ) :   1.1108 B(  8-C , 12-C ) :   0.3895
B(  8-C , 14-C ) :   0.7256 B(  9-C , 11-C ) :   1.2334 B(  9-C , 13-C ) :   0.2881
B(  9-C , 15-C ) :   0.8484 B(  9-C , 24-H ) :  -0.1036 B(  9-C , 25-H ) :  -0.1226
B( 10-C , 12-C ) :  -0.1193 B( 10-C , 14-C ) :  -0.1248 B( 10-C , 18-H ) :   1.1227
B( 11-C , 13-C ) :  -0.1766 B( 11-C , 19-H ) :   1.0856 B( 12-C , 20-H ) :   1.0456
B( 12-C , 21-H ) :   0.9934 B( 12-C , 22-H ) :   0.9118 B( 13-C , 23-H ) :   0.8942
B( 13-C , 24-H ) :   1.0427 B( 13-C , 25-H ) :   1.0115

Dispersion correction           -0.058157150
FINAL SINGLE POINT ENERGY      -908.932054619868

DIPOLE MOMENT
-------------

Method             : SCF
Type of density    : Electron Density
Multiplicity       :   1
Irrep              :   0
Energy             :  -908.8738974698956099 Eh
Relativity type    :
Basis              : AO
                                X                 Y                 Z
Electronic contribution:     -2.506058981     -10.346616045      -5.938583196
Nuclear contribution   :      1.633428181      11.408610350       8.370515970
                        -----------------------------------------
Total Dipole Moment    :     -0.872630800       1.061994305       2.431932773
                        -----------------------------------------
Magnitude (a.u.)       :      2.793494841
Magnitude (Debye)      :      7.100499601

Rotational constants in cm-1:             0.018003             0.015450             0.012087
Rotational constants in MHz :           539.705397           463.192465           362.358226

                             ****ORCA TERMINATED NORMALLY****
TOTAL RUN TIME: 0 days 6 hours 24 minutes 56 seconds 962 msec
