                         Program Version 6.0.0  -   RELEASE  -
|  1> ! Engrad def2-TZVPPD wB97M-D3BJ
|  2> %pal nprocs 8 end%pal nprocs 64 end
|  3> %tddft
|  4>  Iroot 1 Nroots 3
|  5> sf true
|  6> end
|  7> *xyz 0 3
|  8> O   2.7676428 -1.17026784 -2.42581973
|  9> O   -2.26775511 1.58062175 -1.36895301
| 10> O   -1.38496585 -2.50412386 -1.15554131
| 11> O   -2.3545408 1.09263801 3.19145401
| 12> N   -0.02669159 -1.69691289 0.43020083
| 13> N   -0.36718146 0.92589107 2.14736837
| 14> N   0.58274506 -1.58301303 -1.79161304
| 15> N   -2.32647502 1.19029414 0.9476297
| 16> C   2.10567636 -0.76910432 -0.13473092
| 17> C   -0.19165704 1.29449092 -0.25456063
| 18> C   1.01345007 -0.72934358 0.85467979
| 19> C   0.50034984 0.77120415 0.94578782
| 20> C   3.38352953 -0.21055802 0.20710456
| 21> C   0.59452111 1.80158137 -1.35869647
| 22> C   1.90961238 -1.20858216 -1.53318163
| 23> C   -1.70616173 1.31597043 -0.3561185
| 24> C   -0.33705128 -1.9402747 -0.87254399
| 25> C   -1.71321775 1.0251052 2.17795518
| 26> H   1.36908254 -1.10877402 1.84501156
| 27> H   1.43602523 1.32372551 1.07778258
| 28> H   3.53520082 -0.00784863 1.24370318
| 29> H   4.09544051 -0.91863933 -0.10428544
| 30> H   3.63186916 0.61940999 -0.44099922
| 31> H   -0.04099813 2.39652544 -2.00384013
| 32> H   1.41706014 2.36760504 -1.00471787
| 33> H   0.9967391 0.99606572 -1.95621493
| 34> H   -0.82243015 -1.78290257 1.03274701
| 35> H   0.13336829 0.75896895 2.99518692
| 36> H   0.53304506 -1.79393827 -2.82114101
| 37> H   -3.31436675 1.22325948 0.98046469
| 38> *
| 39>
| 40>                          ****END OF INPUT****

CARTESIAN COORDINATES (ANGSTROEM)
---------------------------------
  O      2.767643   -1.170268   -2.425820
  O     -2.267755    1.580622   -1.368953
  O     -1.384966   -2.504124   -1.155541
  O     -2.354541    1.092638    3.191454
  N     -0.026692   -1.696913    0.430201
  N     -0.367181    0.925891    2.147368
  N      0.582745   -1.583013   -1.791613
  N     -2.326475    1.190294    0.947630
  C      2.105676   -0.769104   -0.134731
  C     -0.191657    1.294491   -0.254561
  C      1.013450   -0.729344    0.854680
  C      0.500350    0.771204    0.945788
  C      3.383530   -0.210558    0.207105
  C      0.594521    1.801581   -1.358696
  C      1.909612   -1.208582   -1.533182
  C     -1.706162    1.315970   -0.356119
  C     -0.337051   -1.940275   -0.872544
  C     -1.713218    1.025105    2.177955
  H      1.369083   -1.108774    1.845012
  H      1.436025    1.323726    1.077783
  H      3.535201   -0.007849    1.243703
  H      4.095441   -0.918639   -0.104285
  H      3.631869    0.619410   -0.440999
  H     -0.040998    2.396525   -2.003840
  H      1.417060    2.367605   -1.004718
  H      0.996739    0.996066   -1.956215
  H     -0.822430   -1.782903    1.032747
  H      0.133368    0.758969    2.995187
  H      0.533045   -1.793938   -2.821141
  H     -3.314367    1.223259    0.980465

 Total Charge           Charge          ....    0
 Multiplicity           Mult            ....    3
 Number of Electrons    NEL             ....  132
 Basis Dimension        Dim             ....  882

ORBITAL ENERGIES
----------------
                 SPIN UP ORBITALS
  NO   OCC          E(Eh)            E(eV)
   0   1.0000     -19.348995      -526.5129
   1   1.0000     -19.346774      -526.4525
   2   1.0000     -19.315910      -525.6126
   3   1.0000     -19.311564      -525.4944
   4   1.0000     -14.573873      -396.5752
   5   1.0000     -14.563437      -396.2913
   6   1.0000     -14.560209      -396.2034
   7   1.0000     -14.557495      -396.1296
   8   1.0000     -10.504301      -285.8366
   9   1.0000     -10.503016      -285.8016
  10   1.0000     -10.495828      -285.6060
  11   1.0000     -10.494324      -285.5651
  12   1.0000     -10.452094      -284.4159
  13   1.0000     -10.451272      -284.3936
  14   1.0000     -10.421334      -283.5789
  15   1.0000     -10.418116      -283.4913
  16   1.0000     -10.371321      -282.2180
  17   1.0000     -10.363706      -282.0108
  18   1.0000      -1.226255       -33.3681
  19   1.0000      -1.218604       -33.1599
  20   1.0000      -1.211365       -32.9629
  21   1.0000      -1.193764       -32.4840
  22   1.0000      -1.113300       -30.2944
  23   1.0000      -1.097615       -29.8676
  24   1.0000      -1.068013       -29.0621
  25   1.0000      -1.055453       -28.7203
  26   1.0000      -0.994006       -27.0483
  27   1.0000      -0.966816       -26.3084
  28   1.0000      -0.896256       -24.3884
  29   1.0000      -0.850104       -23.1325
  30   1.0000      -0.823296       -22.4030
  31   1.0000      -0.800984       -21.7959
  32   1.0000      -0.798666       -21.7328
  33   1.0000      -0.785069       -21.3628
  34   1.0000      -0.704197       -19.1622
  35   1.0000      -0.693730       -18.8774
  36   1.0000      -0.685620       -18.6567
  37   1.0000      -0.679651       -18.4942
  38   1.0000      -0.657089       -17.8803
  39   1.0000      -0.636135       -17.3101
  40   1.0000      -0.623450       -16.9649
  41   1.0000      -0.607213       -16.5231
  42   1.0000      -0.604101       -16.4384
  43   1.0000      -0.593750       -16.1568
  44   1.0000      -0.582721       -15.8566
  45   1.0000      -0.575490       -15.6599
  46   1.0000      -0.573293       -15.6001
  47   1.0000      -0.567772       -15.4499
  48   1.0000      -0.563701       -15.3391
  49   1.0000      -0.561332       -15.2746
  50   1.0000      -0.558168       -15.1885
  51   1.0000      -0.544913       -14.8278
  52   1.0000      -0.532412       -14.4877
  53   1.0000      -0.529059       -14.3964
  54   1.0000      -0.516559       -14.0563
  55   1.0000      -0.514820       -14.0090
  56   1.0000      -0.502187       -13.6652
  57   1.0000      -0.424339       -11.5469
  58   1.0000      -0.421541       -11.4707
  59   1.0000      -0.416773       -11.3410
  60   1.0000      -0.407476       -11.0880
  61   1.0000      -0.402506       -10.9527
  62   1.0000      -0.393417       -10.7054
  63   1.0000      -0.391965       -10.6659
  64   1.0000      -0.382147       -10.3987
  65   1.0000      -0.352090        -9.5809
  66   1.0000      -0.323481        -8.8024
  67   0.0000       0.007926         0.2157
  68   0.0000       0.029357         0.7988
  69   0.0000       0.032358         0.8805
  70   0.0000       0.033682         0.9165
  71   0.0000       0.052706         1.4342

                 SPIN DOWN ORBITALS
  NO   OCC          E(Eh)            E(eV)
   0   1.0000     -19.345258      -526.4112
   1   1.0000     -19.343660      -526.3678
   2   1.0000     -19.315713      -525.6073
   3   1.0000     -19.311352      -525.4886
   4   1.0000     -14.573152      -396.5556
   5   1.0000     -14.562994      -396.2792
   6   1.0000     -14.559705      -396.1897
   7   1.0000     -14.557519      -396.1302
   8   1.0000     -10.504338      -285.8376
   9   1.0000     -10.503068      -285.8030
  10   1.0000     -10.496596      -285.6269
  11   1.0000     -10.495280      -285.5911
  12   1.0000     -10.451592      -284.4023
  13   1.0000     -10.450974      -284.3855
  14   1.0000     -10.410246      -283.2772
  15   1.0000     -10.406445      -283.1738
  16   1.0000     -10.371762      -282.2300
  17   1.0000     -10.364263      -282.0259
  18   1.0000      -1.223288       -33.2874
  19   1.0000      -1.216349       -33.0985
  20   1.0000      -1.209056       -32.9001
  21   1.0000      -1.189869       -32.3780
  22   1.0000      -1.110501       -30.2183
  23   1.0000      -1.095562       -29.8118
  24   1.0000      -1.066276       -29.0149
  25   1.0000      -1.054255       -28.6877
  26   1.0000      -0.981504       -26.7081
  27   1.0000      -0.950325       -25.8596
  28   1.0000      -0.890971       -24.2446
  29   1.0000      -0.843671       -22.9575
  30   1.0000      -0.813796       -22.1445
  31   1.0000      -0.796717       -21.6798
  32   1.0000      -0.795213       -21.6388
  33   1.0000      -0.783555       -21.3216
  34   1.0000      -0.699785       -19.0421
  35   1.0000      -0.688808       -18.7434
  36   1.0000      -0.678104       -18.4521
  37   1.0000      -0.672861       -18.3095
  38   1.0000      -0.640844       -17.4383
  39   1.0000      -0.632566       -17.2130
  40   1.0000      -0.619440       -16.8558
  41   1.0000      -0.602864       -16.4048
  42   1.0000      -0.599039       -16.3007
  43   1.0000      -0.588641       -16.0177
  44   1.0000      -0.576018       -15.6743
  45   1.0000      -0.569902       -15.5078
  46   1.0000      -0.563051       -15.3214
  47   1.0000      -0.559995       -15.2382
  48   1.0000      -0.557420       -15.1682
  49   1.0000      -0.552926       -15.0459
  50   1.0000      -0.551335       -15.0026
  51   1.0000      -0.537511       -14.6264
  52   1.0000      -0.528515       -14.3816
  53   1.0000      -0.521803       -14.1990
  54   1.0000      -0.510737       -13.8979
  55   1.0000      -0.503062       -13.6890
  56   1.0000      -0.497093       -13.5266
  57   1.0000      -0.419643       -11.4191
  58   1.0000      -0.417108       -11.3501
  59   1.0000      -0.409149       -11.1335
  60   1.0000      -0.395941       -10.7741
  61   1.0000      -0.394943       -10.7469
  62   1.0000      -0.390142       -10.6163
  63   1.0000      -0.389097       -10.5879
  64   1.0000      -0.376843       -10.2544
  65   0.0000      -0.069584        -1.8935
  66   0.0000      -0.045996        -1.2516
  67   0.0000       0.007439         0.2024
  68   0.0000       0.028865         0.7854
  69   0.0000       0.032290         0.8787

----------------------------------------------------------------------------------------------------
          SPIN FLIP ABSORPTION SPECTRUM VIA TRANSITION ELECTRIC DIPOLE MOMENTS
----------------------------------------------------------------------------------------------------
     Transition      Energy     Energy  Wavelength fosc(D2)      D2        DX        DY        DZ
                      (eV)      (cm-1)    (nm)                 (au**2)    (au)      (au)      (au)
----------------------------------------------------------------------------------------------------
  1-3A  ->  2-3A    0.156326    1260.9  7931.1   0.000038886   0.01015  -0.06596   0.05052   0.05702
  1-3A  ->  3-3A    2.542193   20504.2   487.7   0.017467668   0.28046   0.44745  -0.22904  -0.16668

Dispersion correction             ... done (  0.1 sec)

MULLIKEN ATOMIC CHARGES AND SPIN DENSITIES
------------------------------------------
   0 O :   -0.687300   -0.050076
   1 O :   -0.602269    0.038416
   2 O :   -0.685861   -0.002131
   3 O :   -0.646062    0.000727
   4 N :   -0.252794   -0.009899
   5 N :   -0.210630    0.002665
   6 N :    0.047271   -0.008664
   7 N :    0.007726    0.005771
   8 C :    0.729076    0.266238
   9 C :    0.219279    0.426377
  10 C :    0.244042   -0.252303
  11 C :    0.215602   -0.150550
  12 C :   -1.631733   -0.021731
  13 C :   -1.489966    0.005521
  14 C :    0.023327   -0.242284
  15 C :    0.275567   -0.086054
  16 C :    0.440355    0.025118
  17 C :    0.493816    0.006649
  18 H :    0.546782   -0.014061
  19 H :    0.694490    0.006528
  20 H :    0.382621   -0.001347
  21 H :    0.421052   -0.003702
  22 H :    0.309337    0.008419
  23 H :    0.343067    0.001184
  24 H :    0.329972    0.007620
  25 H :    0.303857    0.032648
  26 H :    0.050912    0.003412
  27 H :    0.033386    0.000136
  28 H :    0.096101    0.005045
  29 H :   -0.001026    0.000327
Sum of atomic charges       :    0.0000000

LOEWDIN ATOMIC CHARGES AND SPIN DENSITIES
-----------------------------------------
   0 O :    0.061155   -0.042081
   1 O :    0.123925    0.034261
   2 O :    0.073602   -0.001839
   3 O :    0.091879    0.000702
   4 N :    0.286524   -0.000681
   5 N :    0.293184   -0.000823
   6 N :    0.307978   -0.009761
   7 N :    0.339556    0.006345
   8 C :   -0.050088   -0.160741
   9 C :   -0.008641    0.191109
  10 C :   -0.085436   -0.013994
  11 C :   -0.086085    0.009172
  12 C :    0.186012   -0.029787
  13 C :    0.204987    0.030216
  14 C :   -0.394727   -0.032752
  15 C :   -0.352752    0.022611
  16 C :   -0.518092    0.000130
  17 C :   -0.526581   -0.000121
  18 H :    0.080552   -0.003782
  19 H :    0.044741    0.002324
  20 H :    0.000755    0.000144
  21 H :   -0.010097   -0.007343
  22 H :    0.020066   -0.008268
  23 H :    0.010899    0.000733
  24 H :   -0.009523    0.004063
  25 H :   -0.005532    0.010390
  26 H :   -0.038213    0.000020
  27 H :   -0.039556   -0.000157
  28 H :    0.043519   -0.000616
  29 H :   -0.044010    0.000526

  Mayer bond orders larger than 0.100000
B(  0-O , 14-C ) :   1.3318 B(  1-O , 15-C ) :   1.4834 B(  2-O , 16-C ) :   1.4870
B(  3-O , 17-C ) :   1.6121 B(  4-N ,  8-C ) :   0.2986 B(  4-N ,  9-C ) :   0.1279
B(  4-N , 10-C ) :   0.2148 B(  4-N , 16-C ) :   1.0636 B(  4-N , 26-H ) :   1.0538
B(  5-N ,  9-C ) :   0.1383 B(  5-N , 10-C ) :   0.1529 B(  5-N , 11-C ) :   0.3485
B(  5-N , 17-C ) :   1.0980 B(  5-N , 27-H ) :   1.1680 B(  6-N ,  8-C ) :  -0.1573
B(  6-N , 14-C ) :   1.0763 B(  6-N , 16-C ) :   0.9762 B(  6-N , 28-H ) :   1.0689
B(  7-N , 11-C ) :   0.1154 B(  7-N , 15-C ) :   0.9622 B(  7-N , 17-C ) :   0.9582
B(  7-N , 29-H ) :   1.1427 B(  8-C ,  9-C ) :   0.1479 B(  8-C , 10-C ) :   0.4348
B(  8-C , 11-C ) :   0.3491 B(  8-C , 12-C ) :   0.1716 B(  8-C , 14-C ) :   0.6630
B(  8-C , 16-C ) :   0.1090 B(  8-C , 18-H ) :  -0.2163 B(  8-C , 20-H ) :  -0.1493
B(  9-C , 11-C ) :   0.3738 B(  9-C , 13-C ) :   0.4029 B(  9-C , 15-C ) :   0.6434
B(  9-C , 19-H ) :  -0.2026 B( 10-C , 11-C ) :   0.4006 B( 10-C , 12-C ) :  -0.1382
B( 10-C , 16-C ) :  -0.1323 B( 10-C , 18-H ) :   0.8166 B( 11-C , 12-C ) :   0.1166
B( 11-C , 13-C ) :  -0.2629 B( 11-C , 17-C ) :  -0.1108 B( 11-C , 19-H ) :   0.6327
B( 12-C , 20-H ) :   1.0064 B( 12-C , 21-H ) :   0.8884 B( 12-C , 22-H ) :   0.8941
B( 13-C , 23-H ) :   0.9275 B( 13-C , 24-H ) :   1.0498 B( 13-C , 25-H ) :   0.8549
B( 14-C , 16-C ) :  -0.1020

Dispersion correction           -0.058423974
FINAL SINGLE POINT ENERGY      -908.786953082105

DIPOLE MOMENT
-------------

Method             : TDA/CIS
Type of density    : Electron Density
Level              : Relaxed density
State              :   1
Multiplicity       :   3
Irrep              :   0
Energy             :     0.0000000000000000 Eh
Relativity type    :
Basis              : AO
                                X                 Y                 Z
Electronic contribution:     -9.997282473      -3.636010939       0.056725256
Nuclear contribution   :     12.195197266       4.339470393       1.085378445
                        -----------------------------------------
Total Dipole Moment    :      2.197914793       0.703459454       1.142103701
                        -----------------------------------------
Magnitude (a.u.)       :      2.574895242
Magnitude (Debye)      :      6.544863576

Rotational constants in cm-1:             0.022549             0.011513             0.010738
Rotational constants in MHz :           676.001013           345.147698           321.923406

                             ****ORCA TERMINATED NORMALLY****
TOTAL RUN TIME: 0 days 0 hours 5 minutes 0 seconds 755 msec
