                         Program Version 6.0.0  -   RELEASE  -
|  1> ! Opt wB97M-D3BJ def2-TZVPPD
|  2> %pal nprocs 8 end %pal nprocs 64 end
|  3> %geom
|  4> Constraints
|  5>     {A 2 1 0 116.36363636363636 C }
|  6> end
|  7> MaxIter 500
|  8> end
|  9> *xyz 0 1
| 10> O   -0.0007 0.8141 0.0
| 11> C   0.7509 -0.4065 0.0
| 12> C   -0.7502 -0.4076 0.0
| 13> H   1.2625 -0.6786 0.9136
| 14> H   1.2625 -0.6787 -0.9136
| 15> H   -1.2614 -0.6806 -0.9136
| 16> H   -1.2614 -0.6805 0.9136
| 17> *
| 18>
| 19>                          ****END OF INPUT****
 Total Charge           Charge          ....    0
 Multiplicity           Mult            ....    1
 Number of Electrons    NEL             ....   24
Dispersion correction           -0.005786090
FINAL SINGLE POINT ENERGY      -153.643235859333
Dispersion correction             ... done (  0.1 sec)
Dispersion correction           -0.005672005
FINAL SINGLE POINT ENERGY      -153.717092326979
Dispersion correction             ... done (  0.1 sec)
Dispersion correction           -0.005600942
FINAL SINGLE POINT ENERGY      -153.737864387951
Dispersion correction             ... done (  0.1 sec)
FINAL SINGLE POINT ENERGY      -153.749002295422
FINAL SINGLE POINT ENERGY      -153.754175449098
FINAL SINGLE POINT ENERGY      -153.756106890390
FINAL SINGLE POINT ENERGY      -153.757127917854
FINAL SINGLE POINT ENERGY      -153.759153876548
FINAL SINGLE POINT ENERGY      -153.761689331891
FINAL SINGLE POINT ENERGY      -153.764222242158
FINAL SINGLE POINT ENERGY      -153.928651685654
FINAL SINGLE POINT ENERGY      -153.928682622991
FINAL SINGLE POINT ENERGY      -153.928724237537
FINAL SINGLE POINT ENERGY      -153.928743099455
FINAL SINGLE POINT ENERGY      -153.928747479145
FINAL SINGLE POINT ENERGY      -153.928756456075
FINAL SINGLE POINT ENERGY      -153.928759895824
Dispersion correction             ... done (  0.1 sec)
Dispersion correction           -0.005551913
FINAL SINGLE POINT ENERGY      -153.928761439842
Dispersion correction             ... done (  0.1 sec)
Dispersion correction           -0.005552188
FINAL SINGLE POINT ENERGY      -153.928761855086
Dispersion correction             ... done (  0.1 sec)
                    ***********************HURRAY********************

CARTESIAN COORDINATES (ANGSTROEM)
---------------------------------
  O      0.515087    1.289345    0.121213
  C      0.611194    0.155293   -0.278647
  C     -0.444048   -0.813442    0.194249
  H      0.012846   -1.649082    0.727446
  H      1.417391   -0.175210   -0.952624
  H     -0.979384   -1.242111   -0.654863
  H     -1.130886   -0.283193    0.843225

 Multiplicity           Mult            ....    1
 Number of Electrons    NEL             ....   24
 Basis Dimension        Dim             ....  182

ORBITAL ENERGIES
----------------

  NO   OCC          E(Eh)            E(eV)
   0   2.0000     -19.337264      -526.1937
   1   2.0000     -10.443293      -284.1764
   2   2.0000     -10.352746      -281.7125
   3   2.0000      -1.186589       -32.2887
   4   2.0000      -0.874638       -23.8001
   5   2.0000      -0.707890       -19.2627
   6   2.0000      -0.598767       -16.2933
   7   2.0000      -0.556543       -15.1443
   8   2.0000      -0.547641       -14.9021
   9   2.0000      -0.507306       -13.8045
  10   2.0000      -0.472378       -12.8540
  11   2.0000      -0.367555       -10.0017
  12   0.0000       0.038988         1.0609
  13   0.0000       0.051523         1.4020
  14   0.0000       0.058983         1.6050
  15   0.0000       0.084552         2.3008
  16   0.0000       0.087010         2.3677

MULLIKEN ATOMIC CHARGES
-----------------------
   0 O :   -0.473163
   1 C :    0.242879
   2 C :   -0.691579
   3 H :    0.219686
   4 H :    0.243662
   5 H :    0.219582
   6 H :    0.238933
Sum of atomic charges:   -0.0000000

LOEWDIN ATOMIC CHARGES
----------------------
   0 O :    0.054871
   1 C :   -0.202798
   2 C :    0.164781
   3 H :   -0.014347
   4 H :    0.023189
   5 H :   -0.014326
   6 H :   -0.011368

  Mayer bond orders larger than 0.100000
B(  0-O ,  1-C ) :   1.7720 B(  1-C ,  2-C ) :   0.7769 B(  1-C ,  4-H ) :   0.9816
B(  2-C ,  3-H ) :   0.9941 B(  2-C ,  5-H ) :   0.9936 B(  2-C ,  6-H ) :   0.9593

Dispersion correction           -0.005552249
FINAL SINGLE POINT ENERGY      -153.928761906793

DIPOLE MOMENT
-------------

Method             : SCF
Type of density    : Electron Density
Multiplicity       :   1
Irrep              :   0
Energy             :  -153.9232096573513502 Eh
Relativity type    :
Basis              : AO
                                X                 Y                 Z
Electronic contribution:      1.388034012       2.870596511      -0.155514045
Nuclear contribution   :     -1.448217255      -3.922799529      -0.108730480
                        -----------------------------------------
Total Dipole Moment    :     -0.060183243      -1.052203018      -0.264244525
                        -----------------------------------------
Magnitude (a.u.)       :      1.086544239
Magnitude (Debye)      :      2.761775973

Rotational constants in cm-1:             1.705082             0.363151             0.316744
Rotational constants in MHz :         51117.085689         10887.000767          9495.733244

                             ****ORCA TERMINATED NORMALLY****
TOTAL RUN TIME: 0 days 0 hours 11 minutes 29 seconds 766 msec
