                         Program Version 6.0.0  -   RELEASE  -
|  1> ! Engrad def2-TZVPPD wB97M-D3BJ
|  2> %pal nprocs 8 end%pal nprocs 64 end
|  3> %tddft
|  4>  Iroot 2 Nroots 3
|  5> sf true
|  6> end
|  7> *xyz 0 3
|  8> O   2.67994375 -0.59080261 -2.30933827
|  9> O   -2.20888403 1.08994 -1.626979
| 10> O   -1.03532276 -2.8103113 -0.80689129
| 11> O   -2.66085947 0.42699424 2.86003375
| 12> N   0.23375718 -1.60631106 0.71372759
| 13> N   -0.67598101 1.13995283 2.06711487
| 14> N   0.72340463 -1.56117811 -1.59831842
| 15> N   -2.32971941 0.51733719 0.55723697
| 16> C   2.15402365 -0.31136693 -0.02879043
| 17> C   -0.24001448 1.3672389 -0.28477858
| 18> C   1.04010575 -0.4443354 0.92394525
| 19> C   0.36952443 1.06933488 1.01132634
| 20> C   3.44478723 0.3316109 0.24326302
| 21> C   0.52766884 1.96543227 -1.45400892
| 22> C   1.89559238 -0.82190559 -1.36972685
| 23> C   -1.59336616 0.96702438 -0.54201819
| 24> C   -0.11902504 -2.0479771 -0.55987589
| 25> C   -1.99662846 0.64775773 1.9176508
| 26> H   1.50138671 -0.63936502 1.9306559
| 27> H   1.20734455 1.72714361 1.19754132
| 28> H   4.18695317 0.15643512 -0.49821112
| 29> H   3.23803318 1.4547841 0.27055087
| 30> H   3.73943633 0.14323843 1.29841068
| 31> H   -0.12211067 2.0161238 -2.32135903
| 32> H   0.8374842 3.07055601 -1.20590847
| 33> H   1.37569127 1.4501017 -1.80638039
| 34> H   -0.47210243 -1.73288884 1.38335335
| 35> H   -0.30865561 1.05473181 3.02442381
| 36> H   0.59691018 -1.93666206 -2.5343269
| 37> H   -3.29021808 0.44864777 0.4173125
| 38> *
| 39>
| 40>                          ****END OF INPUT****

CARTESIAN COORDINATES (ANGSTROEM)
---------------------------------
  O      2.679944   -0.590803   -2.309338
  O     -2.208884    1.089940   -1.626979
  O     -1.035323   -2.810311   -0.806891
  O     -2.660859    0.426994    2.860034
  N      0.233757   -1.606311    0.713728
  N     -0.675981    1.139953    2.067115
  N      0.723405   -1.561178   -1.598318
  N     -2.329719    0.517337    0.557237
  C      2.154024   -0.311367   -0.028790
  C     -0.240014    1.367239   -0.284779
  C      1.040106   -0.444335    0.923945
  C      0.369524    1.069335    1.011326
  C      3.444787    0.331611    0.243263
  C      0.527669    1.965432   -1.454009
  C      1.895592   -0.821906   -1.369727
  C     -1.593366    0.967024   -0.542018
  C     -0.119025   -2.047977   -0.559876
  C     -1.996628    0.647758    1.917651
  H      1.501387   -0.639365    1.930656
  H      1.207345    1.727144    1.197541
  H      4.186953    0.156435   -0.498211
  H      3.238033    1.454784    0.270551
  H      3.739436    0.143238    1.298411
  H     -0.122111    2.016124   -2.321359
  H      0.837484    3.070556   -1.205908
  H      1.375691    1.450102   -1.806380
  H     -0.472102   -1.732889    1.383353
  H     -0.308656    1.054732    3.024424
  H      0.596910   -1.936662   -2.534327
  H     -3.290218    0.448648    0.417312

 Total Charge           Charge          ....    0
 Multiplicity           Mult            ....    3
 Number of Electrons    NEL             ....  132
 Basis Dimension        Dim             ....  882

ORBITAL ENERGIES
----------------
                 SPIN UP ORBITALS
  NO   OCC          E(Eh)            E(eV)
   0   1.0000     -19.337127      -526.1900
   1   1.0000     -19.336155      -526.1635
   2   1.0000     -19.335125      -526.1355
   3   1.0000     -19.328432      -525.9534
   4   1.0000     -14.569711      -396.4620
   5   1.0000     -14.568240      -396.4220
   6   1.0000     -14.562530      -396.2666
   7   1.0000     -14.561289      -396.2328
   8   1.0000     -10.515032      -286.1286
   9   1.0000     -10.513346      -286.0827
  10   1.0000     -10.485119      -285.3146
  11   1.0000     -10.484342      -285.2935
  12   1.0000     -10.452260      -284.4205
  13   1.0000     -10.450450      -284.3712
  14   1.0000     -10.423300      -283.6324
  15   1.0000     -10.420387      -283.5531
  16   1.0000     -10.386207      -282.6231
  17   1.0000     -10.370944      -282.2077
  18   1.0000      -1.237236       -33.6669
  19   1.0000      -1.214573       -33.0502
  20   1.0000      -1.189371       -32.3644
  21   1.0000      -1.187844       -32.3229
  22   1.0000      -1.118697       -30.4413
  23   1.0000      -1.099990       -29.9323
  24   1.0000      -1.061290       -28.8792
  25   1.0000      -1.052729       -28.6462
  26   1.0000      -0.987413       -26.8689
  27   1.0000      -0.957419       -26.0527
  28   1.0000      -0.881817       -23.9955
  29   1.0000      -0.846272       -23.0282
  30   1.0000      -0.826172       -22.4813
  31   1.0000      -0.806797       -21.9541
  32   1.0000      -0.782048       -21.2806
  33   1.0000      -0.779980       -21.2243
  34   1.0000      -0.699107       -19.0237
  35   1.0000      -0.696415       -18.9504
  36   1.0000      -0.688291       -18.7294
  37   1.0000      -0.674413       -18.3517
  38   1.0000      -0.656203       -17.8562
  39   1.0000      -0.637042       -17.3348
  40   1.0000      -0.616750       -16.7826
  41   1.0000      -0.604596       -16.4519
  42   1.0000      -0.602515       -16.3953
  43   1.0000      -0.588576       -16.0160
  44   1.0000      -0.577771       -15.7219
  45   1.0000      -0.574207       -15.6250
  46   1.0000      -0.568060       -15.4577
  47   1.0000      -0.565244       -15.3811
  48   1.0000      -0.558365       -15.1939
  49   1.0000      -0.554444       -15.0872
  50   1.0000      -0.551559       -15.0087
  51   1.0000      -0.540079       -14.6963
  52   1.0000      -0.527954       -14.3664
  53   1.0000      -0.521540       -14.1918
  54   1.0000      -0.513712       -13.9788
  55   1.0000      -0.505962       -13.7679
  56   1.0000      -0.489965       -13.3326
  57   1.0000      -0.431446       -11.7402
  58   1.0000      -0.426829       -11.6146
  59   1.0000      -0.415929       -11.3180
  60   1.0000      -0.411074       -11.1859
  61   1.0000      -0.405883       -11.0446
  62   1.0000      -0.398594       -10.8463
  63   1.0000      -0.394064       -10.7230
  64   1.0000      -0.385371       -10.4865
  65   1.0000      -0.351272        -9.5586
  66   1.0000      -0.321241        -8.7414
  67   0.0000       0.008598         0.2340
  68   0.0000       0.030272         0.8237
  69   0.0000       0.033429         0.9096
  70   0.0000       0.036033         0.9805
  71   0.0000       0.054005         1.4695

                 SPIN DOWN ORBITALS
  NO   OCC          E(Eh)            E(eV)
   0   1.0000     -19.337000      -526.1865
   1   1.0000     -19.330600      -526.0124
   2   1.0000     -19.330519      -526.0102
   3   1.0000     -19.328376      -525.9518
   4   1.0000     -14.569023      -396.4433
   5   1.0000     -14.568146      -396.4194
   6   1.0000     -14.562110      -396.2552
   7   1.0000     -14.560786      -396.2191
   8   1.0000     -10.515079      -286.1298
   9   1.0000     -10.513397      -286.0841
  10   1.0000     -10.486056      -285.3401
  11   1.0000     -10.485501      -285.3250
  12   1.0000     -10.451779      -284.4074
  13   1.0000     -10.449782      -284.3530
  14   1.0000     -10.412475      -283.3378
  15   1.0000     -10.409415      -283.2546
  16   1.0000     -10.386840      -282.6403
  17   1.0000     -10.371468      -282.2220
  18   1.0000      -1.236810       -33.6553
  19   1.0000      -1.213463       -33.0200
  20   1.0000      -1.182215       -32.1697
  21   1.0000      -1.181921       -32.1617
  22   1.0000      -1.115828       -30.3632
  23   1.0000      -1.097111       -29.8539
  24   1.0000      -1.059008       -28.8171
  25   1.0000      -1.050690       -28.5907
  26   1.0000      -0.973866       -26.5002
  27   1.0000      -0.940171       -25.5833
  28   1.0000      -0.876408       -23.8483
  29   1.0000      -0.841487       -22.8980
  30   1.0000      -0.818106       -22.2618
  31   1.0000      -0.801796       -21.8180
  32   1.0000      -0.780367       -21.2349
  33   1.0000      -0.778173       -21.1752
  34   1.0000      -0.693697       -18.8764
  35   1.0000      -0.690510       -18.7897
  36   1.0000      -0.682306       -18.5665
  37   1.0000      -0.668991       -18.2042
  38   1.0000      -0.643230       -17.5032
  39   1.0000      -0.632439       -17.2096
  40   1.0000      -0.613979       -16.7072
  41   1.0000      -0.599533       -16.3141
  42   1.0000      -0.595780       -16.2120
  43   1.0000      -0.584492       -15.9048
  44   1.0000      -0.574211       -15.6251
  45   1.0000      -0.569111       -15.4863
  46   1.0000      -0.560797       -15.2600
  47   1.0000      -0.558150       -15.1880
  48   1.0000      -0.550793       -14.9878
  49   1.0000      -0.546282       -14.8651
  50   1.0000      -0.537650       -14.6302
  51   1.0000      -0.532074       -14.4785
  52   1.0000      -0.517044       -14.0695
  53   1.0000      -0.514512       -14.0006
  54   1.0000      -0.508070       -13.8253
  55   1.0000      -0.494145       -13.4464
  56   1.0000      -0.485994       -13.2246
  57   1.0000      -0.428784       -11.6678
  58   1.0000      -0.422686       -11.5019
  59   1.0000      -0.408650       -11.1199
  60   1.0000      -0.399005       -10.8575
  61   1.0000      -0.391917       -10.6646
  62   1.0000      -0.389709       -10.6045
  63   1.0000      -0.388236       -10.5645
  64   1.0000      -0.373167       -10.1544
  65   0.0000      -0.071707        -1.9512
  66   0.0000      -0.052901        -1.4395
  67   0.0000       0.007980         0.2172
  68   0.0000       0.029920         0.8142
  69   0.0000       0.033418         0.9093

----------------------------------------------------------------------------------------------------
          SPIN FLIP ABSORPTION SPECTRUM VIA TRANSITION ELECTRIC DIPOLE MOMENTS
----------------------------------------------------------------------------------------------------
     Transition      Energy     Energy  Wavelength fosc(D2)      D2        DX        DY        DZ
                      (eV)      (cm-1)    (nm)                 (au**2)    (au)      (au)      (au)
----------------------------------------------------------------------------------------------------
  1-3A  ->  2-3A    0.115135     928.6  10768.6   0.000061097   0.02166  -0.12755   0.06897   0.02515
  1-3A  ->  3-3A    2.084737   16814.5   594.7   0.000766497   0.01501   0.02052  -0.03340   0.11606

Dispersion correction             ... done (  0.1 sec)

MULLIKEN ATOMIC CHARGES AND SPIN DENSITIES
------------------------------------------
   0 O :   -0.716188    0.024260
   1 O :   -0.698654   -0.021075
   2 O :   -0.636770    0.000065
   3 O :   -0.574473    0.000502
   4 N :   -0.161800   -0.001742
   5 N :   -0.363836   -0.005688
   6 N :    0.076701   -0.004230
   7 N :    0.106240   -0.001535
   8 C :    0.233359    0.306995
   9 C :    0.454920    0.294552
  10 C :    0.473781   -0.108432
  11 C :    0.260959   -0.145781
  12 C :   -1.238677    0.007581
  13 C :   -1.241008   -0.029992
  14 C :    0.090878   -0.146261
  15 C :    0.080676   -0.223945
  16 C :    0.370492    0.008188
  17 C :    0.353503    0.008170
  18 H :    0.516772    0.001649
  19 H :    0.583409   -0.004076
  20 H :    0.343057    0.000782
  21 H :    0.270356    0.014500
  22 H :    0.310968    0.005798
  23 H :    0.299702   -0.000057
  24 H :    0.338902    0.007460
  25 H :    0.240718    0.010819
  26 H :    0.038000   -0.000626
  27 H :    0.125662    0.001327
  28 H :    0.059153    0.000397
  29 H :    0.003201    0.000393
Sum of atomic charges       :   -0.0000000

LOEWDIN ATOMIC CHARGES AND SPIN DENSITIES
-----------------------------------------
   0 O :    0.048344    0.020909
   1 O :    0.058679   -0.019667
   2 O :    0.091098    0.000044
   3 O :    0.132242    0.000366
   4 N :    0.300842   -0.000166
   5 N :    0.262826   -0.000680
   6 N :    0.334138   -0.003540
   7 N :    0.343941   -0.004485
   8 C :   -0.073206    0.068148
   9 C :   -0.019614   -0.046481
  10 C :   -0.116444   -0.001802
  11 C :   -0.076282   -0.003905
  12 C :    0.192308    0.009986
  13 C :    0.216425   -0.008280
  14 C :   -0.400006    0.004601
  15 C :   -0.374077   -0.015067
  16 C :   -0.431844   -0.000474
  17 C :   -0.488282   -0.000227
  18 H :    0.070778   -0.000895
  19 H :    0.037857   -0.000367
  20 H :   -0.017102    0.000238
  21 H :    0.036950    0.005080
  22 H :    0.019887    0.001841
  23 H :   -0.010546    0.000105
  24 H :    0.069259   -0.002590
  25 H :   -0.060578   -0.002014
  26 H :   -0.063742    0.000044
  27 H :   -0.022286   -0.000001
  28 H :   -0.003398   -0.000261
  29 H :   -0.058167   -0.000461

  Mayer bond orders larger than 0.100000
B(  0-O , 14-C ) :   1.3792 B(  1-O , 15-C ) :   1.1651 B(  2-O , 16-C ) :   1.5469
B(  3-O , 17-C ) :   1.6641 B(  4-N ,  8-C ) :   0.3080 B(  4-N , 10-C ) :   0.2416
B(  4-N , 16-C ) :   0.9984 B(  4-N , 26-H ) :   1.0504 B(  5-N ,  9-C ) :   0.3427
B(  5-N , 10-C ) :   0.1149 B(  5-N , 17-C ) :   1.0931 B(  5-N , 19-H ) :  -0.1395
B(  5-N , 27-H ) :   1.0095 B(  6-N ,  8-C ) :  -0.1357 B(  6-N , 10-C ) :   0.1089
B(  6-N , 14-C ) :   1.1447 B(  6-N , 16-C ) :   0.9549 B(  6-N , 28-H ) :   1.0921
B(  7-N ,  9-C ) :  -0.1366 B(  7-N , 11-C ) :   0.1491 B(  7-N , 15-C ) :   1.0513
B(  7-N , 17-C ) :   0.9577 B(  7-N , 29-H ) :   1.1076 B(  8-C , 10-C ) :   0.2546
B(  8-C , 11-C ) :   0.3581 B(  8-C , 12-C ) :   0.6737 B(  8-C , 14-C ) :   0.8126
B(  8-C , 16-C ) :   0.1274 B(  8-C , 18-H ) :  -0.1894 B(  8-C , 22-H ) :  -0.1263
B(  9-C , 10-C ) :   0.1792 B(  9-C , 11-C ) :   0.3745 B(  9-C , 13-C ) :   0.5733
B(  9-C , 15-C ) :   0.7863 B(  9-C , 19-H ) :  -0.1845 B( 10-C , 11-C ) :   0.5484
B( 10-C , 12-C ) :  -0.1441 B( 10-C , 14-C ) :  -0.1646 B( 10-C , 16-C ) :  -0.1765
B( 10-C , 18-H ) :   0.9028 B( 11-C , 13-C ) :  -0.1260 B( 11-C , 17-C ) :  -0.1667
B( 11-C , 19-H ) :   0.7672 B( 12-C , 20-H ) :   0.8940 B( 12-C , 21-H ) :   0.8346
B( 12-C , 22-H ) :   1.0512 B( 13-C , 23-H ) :   1.0297 B( 13-C , 24-H ) :   0.9376
B( 13-C , 25-H ) :   0.8289

Dispersion correction           -0.059036278
FINAL SINGLE POINT ENERGY      -908.777965317374

DIPOLE MOMENT
-------------

Method             : TDA/CIS
Type of density    : Electron Density
Level              : Relaxed density
State              :   2
Multiplicity       :   3
Irrep              :   0
Energy             :     0.0000000000000000 Eh
Relativity type    :
Basis              : AO
                                X                 Y                 Z
Electronic contribution:     -9.771106511      -6.206654282       0.184712945
Nuclear contribution   :     11.742167496       7.239828177       1.350106212
                        -----------------------------------------
Total Dipole Moment    :      1.971060986       1.033173895       1.534819157
                        -----------------------------------------
Magnitude (a.u.)       :      2.703368186
Magnitude (Debye)      :      6.871415849

Rotational constants in cm-1:             0.021492             0.012416             0.011808
Rotational constants in MHz :           644.309418           372.234430           354.009394

                             ****ORCA TERMINATED NORMALLY****
TOTAL RUN TIME: 0 days 0 hours 5 minutes 29 seconds 553 msec
