                         Program Version 6.0.0  -   RELEASE  -
|  1> ! EnGrad wB97M-D3BJ def2-TZVPPD
|  2> %pal nprocs 8 end%pal nprocs 16 end
|  3> %tddft
|  4>  sf true
|  5>  nroots 2 Iroot 2 end
|  6> *xyz 0 3
|  7> O   -0.0253632813429 0.77047353037897 -3.312122296e-05
|  8> C   0.74572806647684 -0.45497172466202 1.063098867e-05
|  9> C   -0.73336551771554 -0.41735429333667 1.23963693e-06
| 10> H   1.27252710061472 -0.65426585156611 0.92223096872422
| 11> H   1.27247932183102 -0.65447040746115 -0.9221991767944
| 12> H   -1.2649042724585 -0.65386906703062 -0.91551808278979
| 13> H   -1.26490141740564 -0.65394218632241 0.91550754145733
| 14> *
| 15>
| 16>                          ****END OF INPUT****

CARTESIAN COORDINATES (ANGSTROEM)
---------------------------------
  O     -0.025363    0.770474   -0.000033
  C      0.745728   -0.454972    0.000011
  C     -0.733366   -0.417354    0.000001
  H      1.272527   -0.654266    0.922231
  H      1.272479   -0.654470   -0.922199
  H     -1.264904   -0.653869   -0.915518
  H     -1.264901   -0.653942    0.915508

 Total Charge           Charge          ....    0
 Multiplicity           Mult            ....    3
 Number of Electrons    NEL             ....   24
 Basis Dimension        Dim             ....  182

ORBITAL ENERGIES
----------------
                 SPIN UP ORBITALS
  NO   OCC          E(Eh)            E(eV)
   0   1.0000     -19.509288      -530.8747
   1   1.0000     -10.443271      -284.1759
   2   1.0000     -10.413321      -283.3609
   3   1.0000      -1.342034       -36.5186
   4   1.0000      -0.872394       -23.7390
   5   1.0000      -0.815327       -22.1862
   6   1.0000      -0.718386       -19.5483
   7   1.0000      -0.677510       -18.4360
   8   1.0000      -0.607978       -16.5439
   9   1.0000      -0.531859       -14.4726
  10   1.0000      -0.520878       -14.1738
  11   1.0000      -0.478757       -13.0276
  12   1.0000      -0.117378        -3.1940
  13   0.0000       0.030491         0.8297
  14   0.0000       0.055009         1.4969
  15   0.0000       0.066154         1.8001
  16   0.0000       0.082536         2.2459
  17   0.0000       0.101725         2.7681

                 SPIN DOWN ORBITALS
  NO   OCC          E(Eh)            E(eV)
   0   1.0000     -19.478580      -530.0391
   1   1.0000     -10.442719      -284.1608
   2   1.0000     -10.408734      -283.2361
   3   1.0000      -1.280728       -34.8504
   4   1.0000      -0.841039       -22.8858
   5   1.0000      -0.797727       -21.7072
   6   1.0000      -0.656659       -17.8686
   7   1.0000      -0.649324       -17.6690
   8   1.0000      -0.573436       -15.6040
   9   1.0000      -0.511123       -13.9084
  10   1.0000      -0.458279       -12.4704
  11   0.0000      -0.147846        -4.0231
  12   0.0000       0.031918         0.8685
  13   0.0000       0.055631         1.5138
  14   0.0000       0.064623         1.7585
  15   0.0000       0.073486         1.9997

----------------------------------------------------------------------------------------------------
          SPIN FLIP ABSORPTION SPECTRUM VIA TRANSITION ELECTRIC DIPOLE MOMENTS
----------------------------------------------------------------------------------------------------
     Transition      Energy     Energy  Wavelength fosc(D2)      D2        DX        DY        DZ
                      (eV)      (cm-1)    (nm)                 (au**2)    (au)      (au)      (au)
----------------------------------------------------------------------------------------------------
  1-3A  ->  2-3A    6.979712   56295.2   177.6   0.007211755   0.04217   0.00003  -0.00007  -0.20536

Dispersion correction             ... done (  0.0 sec)

MULLIKEN ATOMIC CHARGES AND SPIN DENSITIES
------------------------------------------
   0 O :    0.911008    1.040946
   1 C :   -2.176186   -1.876644
   2 C :   -1.790412   -1.781527
   3 H :    0.905353    0.809915
   4 H :    0.904936    0.809509
   5 H :    0.622568    0.498747
   6 H :    0.622734    0.499054
Sum of atomic charges       :    0.0000000

LOEWDIN ATOMIC CHARGES AND SPIN DENSITIES
-----------------------------------------
   0 O :    0.382461    0.582199
   1 C :   -0.172729   -0.163994
   2 C :   -0.178033   -0.218004
   3 H :   -0.022412   -0.051833
   4 H :   -0.022379   -0.051789
   5 H :    0.006558   -0.048273
   6 H :    0.006534   -0.048306

  Mayer bond orders larger than 0.100000
B(  0-O ,  1-C ) :  -2.0156 B(  0-O ,  2-C ) :  -1.1325 B(  0-O ,  3-H ) :   0.9209
B(  0-O ,  4-H ) :   0.9205 B(  0-O ,  5-H ) :   0.5885 B(  0-O ,  6-H ) :   0.5887
B(  1-C ,  2-C ) :  10.7867 B(  1-C ,  3-H ) :  -1.6837 B(  1-C ,  4-H ) :  -1.6823
B(  1-C ,  5-H ) :  -2.6895 B(  1-C ,  6-H ) :  -2.6905 B(  2-C ,  3-H ) :  -3.2866
B(  2-C ,  4-H ) :  -3.2848 B(  2-C ,  5-H ) :  -0.1228 B(  2-C ,  6-H ) :  -0.1234
B(  3-H ,  4-H ) :   0.8101 B(  3-H ,  5-H ) :   0.8465 B(  3-H ,  6-H ) :   0.9524
B(  4-H ,  5-H ) :   0.9516 B(  4-H ,  6-H ) :   0.8464 B(  5-H ,  6-H ) :   0.2995

Dispersion correction           -0.005216199
FINAL SINGLE POINT ENERGY      -153.621692041959

DIPOLE MOMENT
-------------

Method             : TDA/CIS
Type of density    : Electron Density
Level              : Relaxed density
State              :   2
Multiplicity       :   3
Irrep              :   0
Energy             :     0.0000000000000000 Eh
Relativity type    :
Basis              : AO
                                X                 Y                 Z
Electronic contribution:     -0.311289326       3.098931772      -0.000580581
Nuclear contribution   :      0.034580294      -2.375981634       0.000050740
                        -----------------------------------------
Total Dipole Moment    :     -0.276709031       0.722950138      -0.000529841
                        -----------------------------------------
Magnitude (a.u.)       :      0.774096293
Magnitude (Debye)      :      1.967596409

Rotational constants in cm-1:             0.884514             0.727399             0.475865
Rotational constants in MHz :         26517.059567         21806.887184         14266.075235

                             ****ORCA TERMINATED NORMALLY****
TOTAL RUN TIME: 0 days 0 hours 0 minutes 23 seconds 182 msec
