                         Program Version 6.0.0  -   RELEASE  -
|  1> ! Engrad def2-TZVPPD wB97M-D3BJ
|  2> %pal nprocs 8 end%pal nprocs 64 end
|  3> %tddft
|  4>  Iroot 1 Nroots 3
|  5> sf true
|  6> end
|  7> *xyz 0 3
|  8> O   3.34516314 0.61215413 -0.22607115
|  9> O   -0.53558925 1.15400073 -2.46913468
| 10> O   0.56124576 -2.87732519 -0.93947458
| 11> O   -3.37432729 -1.58078323 -0.11751021
| 12> N   0.28997958 -1.58919946 0.89369984
| 13> N   -2.17389841 0.09535792 1.03169137
| 14> N   1.77676622 -0.90658534 -0.74161023
| 15> N   -1.75391703 -0.38560691 -1.26571967
| 16> C   1.5691308 0.43310536 1.2968228
| 17> C   -0.59277901 1.47122817 -0.208719
| 18> C   0.28398032 -0.30696737 1.53139222
| 19> C   -0.87922497 0.73428219 1.07461593
| 20> C   1.87071318 1.54249493 2.14988477
| 21> C   -0.10193945 2.84318523 -0.24341515
| 22> C   2.26068703 0.06127578 0.09484147
| 23> C   -1.00119371 0.79795158 -1.42201403
| 24> C   0.83770767 -1.88771866 -0.3573049
| 25> C   -2.48031149 -0.71179917 -0.10582652
| 26> H   0.13798645 -0.3793091 2.63218246
| 27> H   -0.85673307 1.4363442 1.86619742
| 28> H   2.5725027 1.12971553 2.95882088
| 29> H   2.40479403 2.32575058 1.6495114
| 30> H   1.05742469 2.06358153 2.58481911
| 31> H   -0.15673108 3.23313047 -1.26952923
| 32> H   -0.66885658 3.48166093 0.4199112
| 33> H   0.97264846 2.81107114 0.09954211
| 34> H   -0.44927739 -2.20350461 1.15776672
| 35> H   -2.58409359 -0.18160406 1.90463298
| 36> H   2.26133034 -1.04819595 -1.60601687
| 37> H   -1.93727664 -0.93670508 -2.06485416
| 38> *
| 39>
| 40>                          ****END OF INPUT****

CARTESIAN COORDINATES (ANGSTROEM)
---------------------------------
  O      3.345163    0.612154   -0.226071
  O     -0.535589    1.154001   -2.469135
  O      0.561246   -2.877325   -0.939475
  O     -3.374327   -1.580783   -0.117510
  N      0.289980   -1.589199    0.893700
  N     -2.173898    0.095358    1.031691
  N      1.776766   -0.906585   -0.741610
  N     -1.753917   -0.385607   -1.265720
  C      1.569131    0.433105    1.296823
  C     -0.592779    1.471228   -0.208719
  C      0.283980   -0.306967    1.531392
  C     -0.879225    0.734282    1.074616
  C      1.870713    1.542495    2.149885
  C     -0.101939    2.843185   -0.243415
  C      2.260687    0.061276    0.094841
  C     -1.001194    0.797952   -1.422014
  C      0.837708   -1.887719   -0.357305
  C     -2.480311   -0.711799   -0.105827
  H      0.137986   -0.379309    2.632182
  H     -0.856733    1.436344    1.866197
  H      2.572503    1.129716    2.958821
  H      2.404794    2.325751    1.649511
  H      1.057425    2.063582    2.584819
  H     -0.156731    3.233130   -1.269529
  H     -0.668857    3.481661    0.419911
  H      0.972648    2.811071    0.099542
  H     -0.449277   -2.203505    1.157767
  H     -2.584094   -0.181604    1.904633
  H      2.261330   -1.048196   -1.606017
  H     -1.937277   -0.936705   -2.064854

 Total Charge           Charge          ....    0
 Multiplicity           Mult            ....    3
 Number of Electrons    NEL             ....  132
 Basis Dimension        Dim             ....  882

ORBITAL ENERGIES
----------------
                 SPIN UP ORBITALS
  NO   OCC          E(Eh)            E(eV)
   0   1.0000     -19.336131      -526.1629
   1   1.0000     -19.329660      -525.9868
   2   1.0000     -19.328112      -525.9447
   3   1.0000     -19.326470      -525.9000
   4   1.0000     -14.568112      -396.4185
   5   1.0000     -14.566860      -396.3844
   6   1.0000     -14.564865      -396.3301
   7   1.0000     -14.555403      -396.0727
   8   1.0000     -10.519415      -286.2478
   9   1.0000     -10.509229      -285.9707
  10   1.0000     -10.479413      -285.1593
  11   1.0000     -10.478760      -285.1416
  12   1.0000     -10.442724      -284.1610
  13   1.0000     -10.438616      -284.0492
  14   1.0000     -10.416597      -283.4500
  15   1.0000     -10.411639      -283.3151
  16   1.0000     -10.379732      -282.4469
  17   1.0000     -10.373566      -282.2791
  18   1.0000      -1.229583       -33.4587
  19   1.0000      -1.217808       -33.1382
  20   1.0000      -1.191205       -32.4143
  21   1.0000      -1.184163       -32.2227
  22   1.0000      -1.115640       -30.3581
  23   1.0000      -1.096279       -29.8313
  24   1.0000      -1.065050       -28.9815
  25   1.0000      -1.054047       -28.6821
  26   1.0000      -0.989256       -26.9190
  27   1.0000      -0.956789       -26.0355
  28   1.0000      -0.885516       -24.0961
  29   1.0000      -0.845631       -23.0108
  30   1.0000      -0.830170       -22.5901
  31   1.0000      -0.801469       -21.8091
  32   1.0000      -0.783057       -21.3081
  33   1.0000      -0.778751       -21.1909
  34   1.0000      -0.703799       -19.1514
  35   1.0000      -0.697619       -18.9832
  36   1.0000      -0.690057       -18.7774
  37   1.0000      -0.671596       -18.2751
  38   1.0000      -0.653885       -17.7931
  39   1.0000      -0.642272       -17.4771
  40   1.0000      -0.627055       -17.0630
  41   1.0000      -0.602180       -16.3862
  42   1.0000      -0.593285       -16.1441
  43   1.0000      -0.588389       -16.0109
  44   1.0000      -0.583986       -15.8911
  45   1.0000      -0.573039       -15.5932
  46   1.0000      -0.570228       -15.5167
  47   1.0000      -0.564661       -15.3652
  48   1.0000      -0.558776       -15.2051
  49   1.0000      -0.556632       -15.1467
  50   1.0000      -0.550329       -14.9752
  51   1.0000      -0.544004       -14.8031
  52   1.0000      -0.539481       -14.6800
  53   1.0000      -0.523791       -14.2531
  54   1.0000      -0.513097       -13.9621
  55   1.0000      -0.503094       -13.6899
  56   1.0000      -0.488544       -13.2939
  57   1.0000      -0.424891       -11.5619
  58   1.0000      -0.417523       -11.3614
  59   1.0000      -0.416062       -11.3216
  60   1.0000      -0.405896       -11.0450
  61   1.0000      -0.403229       -10.9724
  62   1.0000      -0.395450       -10.7608
  63   1.0000      -0.389753       -10.6057
  64   1.0000      -0.382127       -10.3982
  65   1.0000      -0.331872        -9.0307
  66   1.0000      -0.329098        -8.9552
  67   0.0000       0.006125         0.1667
  68   0.0000       0.029063         0.7908
  69   0.0000       0.033434         0.9098
  70   0.0000       0.036598         0.9959
  71   0.0000       0.055033         1.4975

                 SPIN DOWN ORBITALS
  NO   OCC          E(Eh)            E(eV)
   0   1.0000     -19.331496      -526.0367
   1   1.0000     -19.329647      -525.9864
   2   1.0000     -19.327904      -525.9390
   3   1.0000     -19.320965      -525.7502
   4   1.0000     -14.567429      -396.3999
   5   1.0000     -14.566583      -396.3769
   6   1.0000     -14.564341      -396.3159
   7   1.0000     -14.555231      -396.0680
   8   1.0000     -10.519442      -286.2486
   9   1.0000     -10.509283      -285.9721
  10   1.0000     -10.480443      -285.1874
  11   1.0000     -10.479847      -285.1711
  12   1.0000     -10.442446      -284.1534
  13   1.0000     -10.437995      -284.0323
  14   1.0000     -10.405736      -283.1545
  15   1.0000     -10.400206      -283.0040
  16   1.0000     -10.380311      -282.4626
  17   1.0000     -10.374088      -282.2933
  18   1.0000      -1.229143       -33.4467
  19   1.0000      -1.212348       -32.9897
  20   1.0000      -1.189158       -32.3586
  21   1.0000      -1.177490       -32.0411
  22   1.0000      -1.112623       -30.2760
  23   1.0000      -1.093728       -29.7619
  24   1.0000      -1.063125       -28.9291
  25   1.0000      -1.052197       -28.6317
  26   1.0000      -0.975830       -26.5537
  27   1.0000      -0.939984       -25.5783
  28   1.0000      -0.881085       -23.9755
  29   1.0000      -0.838974       -22.8296
  30   1.0000      -0.821754       -22.3611
  31   1.0000      -0.797170       -21.6921
  32   1.0000      -0.781830       -21.2747
  33   1.0000      -0.776859       -21.1394
  34   1.0000      -0.697795       -18.9880
  35   1.0000      -0.691036       -18.8040
  36   1.0000      -0.685504       -18.6535
  37   1.0000      -0.664155       -18.0726
  38   1.0000      -0.640891       -17.4395
  39   1.0000      -0.639682       -17.4066
  40   1.0000      -0.623987       -16.9796
  41   1.0000      -0.597292       -16.2531
  42   1.0000      -0.587867       -15.9967
  43   1.0000      -0.579363       -15.7653
  44   1.0000      -0.576425       -15.6853
  45   1.0000      -0.568356       -15.4658
  46   1.0000      -0.561336       -15.2747
  47   1.0000      -0.558866       -15.2075
  48   1.0000      -0.552803       -15.0425
  49   1.0000      -0.549580       -14.9548
  50   1.0000      -0.542607       -14.7651
  51   1.0000      -0.536217       -14.5912
  52   1.0000      -0.531473       -14.4621
  53   1.0000      -0.510956       -13.9038
  54   1.0000      -0.502073       -13.6621
  55   1.0000      -0.499224       -13.5846
  56   1.0000      -0.482983       -13.1426
  57   1.0000      -0.422154       -11.4874
  58   1.0000      -0.414472       -11.2784
  59   1.0000      -0.410326       -11.1655
  60   1.0000      -0.393252       -10.7009
  61   1.0000      -0.389004       -10.5853
  62   1.0000      -0.387721       -10.5504
  63   1.0000      -0.383388       -10.4325
  64   1.0000      -0.368070       -10.0157
  65   0.0000      -0.058870        -1.6019
  66   0.0000      -0.048048        -1.3075
  67   0.0000       0.005645         0.1536
  68   0.0000       0.028951         0.7878
  69   0.0000       0.033172         0.9026

----------------------------------------------------------------------------------------------------
          SPIN FLIP ABSORPTION SPECTRUM VIA TRANSITION ELECTRIC DIPOLE MOMENTS
----------------------------------------------------------------------------------------------------
     Transition      Energy     Energy  Wavelength fosc(D2)      D2        DX        DY        DZ
                      (eV)      (cm-1)    (nm)                 (au**2)    (au)      (au)      (au)
----------------------------------------------------------------------------------------------------
  1-3A  ->  2-3A    0.047754     385.2  25963.3   0.000000377   0.00032   0.00411   0.01458  -0.00962
  1-3A  ->  3-3A    1.894350   15279.0   654.5   0.002151876   0.04637   0.16191   0.14098  -0.01665

Dispersion correction             ... done (  0.1 sec)

MULLIKEN ATOMIC CHARGES AND SPIN DENSITIES
------------------------------------------
   0 O :   -0.729303   -0.203002
   1 O :   -0.629148    0.166269
   2 O :   -0.595009   -0.001211
   3 O :   -0.648543   -0.000369
   4 N :   -0.256660   -0.009471
   5 N :   -0.328341    0.014406
   6 N :    0.086210   -0.000197
   7 N :    0.114397    0.016258
   8 C :    0.877634    0.260403
   9 C :   -0.002869    0.416528
  10 C :    0.082357   -0.294781
  11 C :    0.593896    0.054115
  12 C :   -1.389893   -0.063687
  13 C :   -1.135950    0.059180
  14 C :   -0.025074   -0.535893
  15 C :    0.228812    0.067183
  16 C :    0.382132    0.037996
  17 C :    0.225015   -0.002349
  18 H :    0.497976   -0.026785
  19 H :    0.634818    0.023206
  20 H :    0.388584   -0.000236
  21 H :    0.315520   -0.007911
  22 H :    0.322262   -0.012567
  23 H :    0.326422    0.011082
  24 H :    0.298248    0.005090
  25 H :    0.175994    0.019303
  26 H :    0.055132    0.002218
  27 H :    0.107783    0.000186
  28 H :    0.026883    0.005595
  29 H :    0.000715   -0.000560
Sum of atomic charges       :    0.0000000

LOEWDIN ATOMIC CHARGES AND SPIN DENSITIES
-----------------------------------------
   0 O :    0.037635   -0.182900
   1 O :    0.116331    0.149382
   2 O :    0.128879   -0.001395
   3 O :    0.051917   -0.000339
   4 N :    0.283246    0.002526
   5 N :    0.285611    0.004009
   6 N :    0.340073   -0.009236
   7 N :    0.341703    0.011748
   8 C :   -0.051191   -0.445268
   9 C :   -0.040600    0.490614
  10 C :   -0.100599   -0.025009
  11 C :   -0.101814    0.016260
  12 C :    0.165512   -0.074880
  13 C :    0.198486    0.074837
  14 C :   -0.395849   -0.082473
  15 C :   -0.402271    0.078473
  16 C :   -0.473556    0.000770
  17 C :   -0.405834   -0.000830
  18 H :    0.070902   -0.006365
  19 H :    0.010127    0.000973
  20 H :    0.072216   -0.034400
  21 H :   -0.009073   -0.003793
  22 H :   -0.019527   -0.005387
  23 H :    0.012421   -0.001010
  24 H :    0.001675    0.017384
  25 H :    0.017954    0.025668
  26 H :   -0.046815    0.000211
  27 H :   -0.039793    0.000345
  28 H :   -0.012863   -0.001107
  29 H :   -0.034903    0.001192

  Mayer bond orders larger than 0.100000
B(  0-O , 14-C ) :   1.3073 B(  1-O , 15-C ) :   1.4695 B(  2-O , 16-C ) :   1.5989
B(  3-O , 17-C ) :   1.5831 B(  4-N ,  8-C ) :   0.2608 B(  4-N , 10-C ) :   0.2358
B(  4-N , 16-C ) :   1.0283 B(  4-N , 26-H ) :   1.0516 B(  5-N ,  9-C ) :   0.4529
B(  5-N , 10-C ) :   0.1191 B(  5-N , 11-C ) :  -0.2296 B(  5-N , 17-C ) :   1.2288
B(  5-N , 19-H ) :  -0.1306 B(  5-N , 27-H ) :   1.0119 B(  6-N , 10-C ) :   0.1154
B(  6-N , 14-C ) :   1.0783 B(  6-N , 16-C ) :   0.9030 B(  6-N , 28-H ) :   1.1139
B(  7-N , 11-C ) :   0.1349 B(  7-N , 15-C ) :   0.9502 B(  7-N , 17-C ) :   0.9831
B(  7-N , 29-H ) :   1.1235 B(  8-C ,  9-C ) :   0.2340 B(  8-C , 10-C ) :   0.4672
B(  8-C , 11-C ) :   0.2089 B(  8-C , 12-C ) :   0.4203 B(  8-C , 14-C ) :   0.4294
B(  9-C , 10-C ) :   0.1818 B(  9-C , 11-C ) :  -0.3240 B(  9-C , 13-C ) :   0.5390
B(  9-C , 15-C ) :   0.8045 B(  9-C , 17-C ) :   0.1399 B(  9-C , 19-H ) :  -0.2472
B( 10-C , 11-C ) :   0.4385 B( 10-C , 16-C ) :  -0.1622 B( 10-C , 18-H ) :   0.7960
B( 11-C , 12-C ) :   0.1010 B( 11-C , 13-C ) :  -0.1885 B( 11-C , 15-C ) :  -0.2289
B( 11-C , 17-C ) :  -0.3129 B( 11-C , 19-H ) :   0.8154 B( 12-C , 20-H ) :   0.8245
B( 12-C , 21-H ) :   0.9945 B( 12-C , 22-H ) :   0.9387 B( 13-C , 23-H ) :   0.9206
B( 13-C , 24-H ) :   1.0181 B( 13-C , 25-H ) :   0.9478 B( 14-C , 16-C ) :  -0.1221

Dispersion correction           -0.060369340
FINAL SINGLE POINT ENERGY      -908.780732638689

DIPOLE MOMENT
-------------

Method             : TDA/CIS
Type of density    : Electron Density
Level              : Relaxed density
State              :   1
Multiplicity       :   3
Irrep              :   0
Energy             :     0.0000000000000000 Eh
Relativity type    :
Basis              : AO
                                X                 Y                 Z
Electronic contribution:     -3.072285025      -9.991304553      -7.376394851
Nuclear contribution   :      2.668826477      11.422951576       9.862914939
                        -----------------------------------------
Total Dipole Moment    :     -0.403458548       1.431647023       2.486520088
                        -----------------------------------------
Magnitude (a.u.)       :      2.897442691
Magnitude (Debye)      :      7.364714038

Rotational constants in cm-1:             0.020273             0.014322             0.012606
Rotational constants in MHz :           607.774173           429.353672           377.918082

                             ****ORCA TERMINATED NORMALLY****
TOTAL RUN TIME: 0 days 0 hours 5 minutes 1 seconds 419 msec
