                         Program Version 6.0.0  -   RELEASE  -
|  1> ! Engrad def2-TZVPPD wB97M-D3BJ
|  2> %pal nprocs 8 end%pal nprocs 64 end
|  3> %tddft
|  4>  Iroot 2 Nroots 3
|  5> sf true
|  6> end
|  7> *xyz 0 3
|  8> O   3.22016341 -0.7354501 -1.94992545
|  9> O   -2.25784 1.7515918 -1.24405879
| 10> O   -1.03720047 -2.38251428 -2.10963381
| 11> O   -2.57693967 1.06950603 3.22162636
| 12> N   -0.34757333 -1.59530812 -0.08698538
| 13> N   -0.50458705 0.68864 2.23655908
| 14> N   1.08951384 -1.58833718 -1.9427848
| 15> N   -2.43839801 1.21844795 0.96132203
| 16> C   2.01639053 -1.00028115 0.07880792
| 17> C   -0.26940887 1.34225015 -0.10914622
| 18> C   0.70040523 -0.91307332 0.73650129
| 19> C   0.33257507 0.65649884 1.0860991
| 20> C   3.21154092 -0.58409714 0.85307591
| 21> C   0.56855766 1.72948712 -1.30067185
| 22> C   2.21561431 -1.14854162 -1.3053734
| 23> C   -1.74152498 1.44161806 -0.19079618
| 24> C   -0.14923473 -1.84713051 -1.43593818
| 25> C   -1.87135176 1.00701443 2.23780651
| 26> H   0.74402649 -1.41422224 1.62068361
| 27> H   1.32043229 1.1158077 1.32313204
| 28> H   3.18923453 0.50072465 0.95735261
| 29> H   3.29962298 -1.14502944 1.75727499
| 30> H   4.12440062 -0.80077558 0.31978539
| 31> H   0.28062362 1.18072611 -2.18457523
| 32> H   0.35143989 2.74460649 -1.61868583
| 33> H   1.54231921 1.457661 -0.97876978
| 34> H   -1.32800012 -1.47430663 0.21525535
| 35> H   -0.09922229 0.56251487 3.16066956
| 36> H   1.17083781 -1.77422334 -2.90765872
| 37> H   -3.45596439 1.26419747 0.89205158
| 38> *
| 39>
| 40>                          ****END OF INPUT****

CARTESIAN COORDINATES (ANGSTROEM)
---------------------------------
  O      3.220163   -0.735450   -1.949925
  O     -2.257840    1.751592   -1.244059
  O     -1.037200   -2.382514   -2.109634
  O     -2.576940    1.069506    3.221626
  N     -0.347573   -1.595308   -0.086985
  N     -0.504587    0.688640    2.236559
  N      1.089514   -1.588337   -1.942785
  N     -2.438398    1.218448    0.961322
  C      2.016391   -1.000281    0.078808
  C     -0.269409    1.342250   -0.109146
  C      0.700405   -0.913073    0.736501
  C      0.332575    0.656499    1.086099
  C      3.211541   -0.584097    0.853076
  C      0.568558    1.729487   -1.300672
  C      2.215614   -1.148542   -1.305373
  C     -1.741525    1.441618   -0.190796
  C     -0.149235   -1.847131   -1.435938
  C     -1.871352    1.007014    2.237807
  H      0.744026   -1.414222    1.620684
  H      1.320432    1.115808    1.323132
  H      3.189235    0.500725    0.957353
  H      3.299623   -1.145029    1.757275
  H      4.124401   -0.800776    0.319785
  H      0.280624    1.180726   -2.184575
  H      0.351440    2.744606   -1.618686
  H      1.542319    1.457661   -0.978770
  H     -1.328000   -1.474307    0.215255
  H     -0.099222    0.562515    3.160670
  H      1.170838   -1.774223   -2.907659
  H     -3.455964    1.264197    0.892052

 Total Charge           Charge          ....    0
 Multiplicity           Mult            ....    3
 Number of Electrons    NEL             ....  132
 Basis Dimension        Dim             ....  882

ORBITAL ENERGIES
----------------
                 SPIN UP ORBITALS
  NO   OCC          E(Eh)            E(eV)
   0   1.0000     -19.340166      -526.2727
   1   1.0000     -19.335036      -526.1331
   2   1.0000     -19.332638      -526.0678
   3   1.0000     -19.315635      -525.6051
   4   1.0000     -14.576255      -396.6401
   5   1.0000     -14.574229      -396.5849
   6   1.0000     -14.569571      -396.4582
   7   1.0000     -14.563931      -396.3047
   8   1.0000     -10.524426      -286.3842
   9   1.0000     -10.508509      -285.9511
  10   1.0000     -10.485805      -285.3333
  11   1.0000     -10.481177      -285.2073
  12   1.0000     -10.456473      -284.5351
  13   1.0000     -10.442879      -284.1652
  14   1.0000     -10.420704      -283.5618
  15   1.0000     -10.419916      -283.5403
  16   1.0000     -10.373245      -282.2704
  17   1.0000     -10.369729      -282.1747
  18   1.0000      -1.225420       -33.3454
  19   1.0000      -1.212727       -33.0000
  20   1.0000      -1.201259       -32.6879
  21   1.0000      -1.180252       -32.1163
  22   1.0000      -1.118892       -30.4466
  23   1.0000      -1.098787       -29.8995
  24   1.0000      -1.075078       -29.2544
  25   1.0000      -1.062279       -28.9061
  26   1.0000      -0.985111       -26.8062
  27   1.0000      -0.958785       -26.0899
  28   1.0000      -0.887052       -24.1379
  29   1.0000      -0.852758       -23.2047
  30   1.0000      -0.834896       -22.7187
  31   1.0000      -0.809291       -22.0219
  32   1.0000      -0.793938       -21.6042
  33   1.0000      -0.792756       -21.5720
  34   1.0000      -0.704660       -19.1748
  35   1.0000      -0.701633       -19.0924
  36   1.0000      -0.695242       -18.9185
  37   1.0000      -0.682335       -18.5673
  38   1.0000      -0.650886       -17.7115
  39   1.0000      -0.643096       -17.4995
  40   1.0000      -0.629879       -17.1399
  41   1.0000      -0.610332       -16.6080
  42   1.0000      -0.605117       -16.4661
  43   1.0000      -0.594646       -16.1811
  44   1.0000      -0.584318       -15.9001
  45   1.0000      -0.577293       -15.7090
  46   1.0000      -0.568665       -15.4742
  47   1.0000      -0.565537       -15.3890
  48   1.0000      -0.558964       -15.2102
  49   1.0000      -0.556747       -15.1499
  50   1.0000      -0.553093       -15.0504
  51   1.0000      -0.531436       -14.4611
  52   1.0000      -0.525831       -14.3086
  53   1.0000      -0.519959       -14.1488
  54   1.0000      -0.514355       -13.9963
  55   1.0000      -0.510790       -13.8993
  56   1.0000      -0.503767       -13.7082
  57   1.0000      -0.425560       -11.5801
  58   1.0000      -0.423131       -11.5140
  59   1.0000      -0.412208       -11.2167
  60   1.0000      -0.411513       -11.1978
  61   1.0000      -0.407269       -11.0824
  62   1.0000      -0.395247       -10.7552
  63   1.0000      -0.391089       -10.6421
  64   1.0000      -0.382158       -10.3991
  65   1.0000      -0.356439        -9.6992
  66   1.0000      -0.323050        -8.7906
  67   0.0000       0.008887         0.2418
  68   0.0000       0.029796         0.8108
  69   0.0000       0.031353         0.8532
  70   0.0000       0.033724         0.9177
  71   0.0000       0.052119         1.4182

                 SPIN DOWN ORBITALS
  NO   OCC          E(Eh)            E(eV)
   0   1.0000     -19.335162      -526.1365
   1   1.0000     -19.334921      -526.1300
   2   1.0000     -19.328980      -525.9683
   3   1.0000     -19.315555      -525.6030
   4   1.0000     -14.576073      -396.6351
   5   1.0000     -14.573708      -396.5707
   6   1.0000     -14.568670      -396.4337
   7   1.0000     -14.563928      -396.3046
   8   1.0000     -10.524457      -286.3850
   9   1.0000     -10.508574      -285.9528
  10   1.0000     -10.486773      -285.3596
  11   1.0000     -10.482136      -285.2334
  12   1.0000     -10.456000      -284.5222
  13   1.0000     -10.442249      -284.1480
  14   1.0000     -10.409108      -283.2462
  15   1.0000     -10.409017      -283.2438
  16   1.0000     -10.373742      -282.2839
  17   1.0000     -10.370226      -282.1882
  18   1.0000      -1.224209       -33.3124
  19   1.0000      -1.210499       -32.9393
  20   1.0000      -1.196846       -32.5678
  21   1.0000      -1.174989       -31.9731
  22   1.0000      -1.116547       -30.3828
  23   1.0000      -1.095632       -29.8137
  24   1.0000      -1.073095       -29.2004
  25   1.0000      -1.060583       -28.8599
  26   1.0000      -0.972151       -26.4536
  27   1.0000      -0.941927       -25.6311
  28   1.0000      -0.881723       -23.9929
  29   1.0000      -0.847504       -23.0618
  30   1.0000      -0.827438       -22.5157
  31   1.0000      -0.803875       -21.8745
  32   1.0000      -0.791871       -21.5479
  33   1.0000      -0.791325       -21.5330
  34   1.0000      -0.699741       -19.0409
  35   1.0000      -0.696203       -18.9446
  36   1.0000      -0.688301       -18.7296
  37   1.0000      -0.676765       -18.4157
  38   1.0000      -0.642108       -17.4727
  39   1.0000      -0.635274       -17.2867
  40   1.0000      -0.623982       -16.9794
  41   1.0000      -0.605805       -16.4848
  42   1.0000      -0.598232       -16.2787
  43   1.0000      -0.588201       -16.0058
  44   1.0000      -0.576272       -15.6812
  45   1.0000      -0.572107       -15.5678
  46   1.0000      -0.562366       -15.3028
  47   1.0000      -0.559843       -15.2341
  48   1.0000      -0.552083       -15.0229
  49   1.0000      -0.550589       -14.9823
  50   1.0000      -0.542905       -14.7732
  51   1.0000      -0.523340       -14.2408
  52   1.0000      -0.517463       -14.0809
  53   1.0000      -0.512271       -13.9396
  54   1.0000      -0.506404       -13.7800
  55   1.0000      -0.502447       -13.6723
  56   1.0000      -0.500332       -13.6147
  57   1.0000      -0.422382       -11.4936
  58   1.0000      -0.417061       -11.3488
  59   1.0000      -0.406148       -11.0518
  60   1.0000      -0.399802       -10.8792
  61   1.0000      -0.390787       -10.6339
  62   1.0000      -0.389751       -10.6057
  63   1.0000      -0.387527       -10.5451
  64   1.0000      -0.374536       -10.1916
  65   0.0000      -0.075310        -2.0493
  66   0.0000      -0.046046        -1.2530
  67   0.0000       0.008175         0.2225
  68   0.0000       0.029536         0.8037
  69   0.0000       0.031193         0.8488

----------------------------------------------------------------------------------------------------
          SPIN FLIP ABSORPTION SPECTRUM VIA TRANSITION ELECTRIC DIPOLE MOMENTS
----------------------------------------------------------------------------------------------------
     Transition      Energy     Energy  Wavelength fosc(D2)      D2        DX        DY        DZ
                      (eV)      (cm-1)    (nm)                 (au**2)    (au)      (au)      (au)
----------------------------------------------------------------------------------------------------
  1-3A  ->  2-3A    0.208124    1678.6  5957.2   0.000098284   0.01928   0.10538  -0.05609  -0.07089
  1-3A  ->  3-3A    2.262261   18246.4   548.1   0.002674811   0.04826  -0.13153   0.05986   0.16546

Dispersion correction             ... done (  0.1 sec)

MULLIKEN ATOMIC CHARGES AND SPIN DENSITIES
------------------------------------------
   0 O :   -0.700707    0.047755
   1 O :   -0.667528   -0.037150
   2 O :   -0.681372    0.000625
   3 O :   -0.629558    0.000106
   4 N :   -0.270744   -0.015008
   5 N :   -0.149642   -0.000819
   6 N :    0.051603    0.006550
   7 N :   -0.047691   -0.009223
   8 C :    0.304858    0.316542
   9 C :    0.944682    0.298146
  10 C :    0.152039   -0.083966
  11 C :   -0.109526   -0.239575
  12 C :   -1.396437   -0.002924
  13 C :   -1.518947   -0.040237
  14 C :    0.245463   -0.076931
  15 C :    0.067222   -0.175287
  16 C :    0.473351   -0.005540
  17 C :    0.418764    0.012770
  18 H :    0.697245    0.013568
  19 H :    0.519242   -0.032339
  20 H :    0.310602    0.011460
  21 H :    0.352798    0.005989
  22 H :    0.343542    0.001091
  23 H :    0.263170   -0.001014
  24 H :    0.390485   -0.003374
  25 H :    0.394116    0.005112
  26 H :    0.125592   -0.000349
  27 H :    0.057453    0.000316
  28 H :   -0.007351    0.000318
  29 H :    0.067277    0.003391
Sum of atomic charges       :    0.0000000

LOEWDIN ATOMIC CHARGES AND SPIN DENSITIES
-----------------------------------------
   0 O :    0.055403    0.041190
   1 O :    0.093944   -0.032128
   2 O :    0.063514    0.000309
   3 O :    0.086011   -0.000074
   4 N :    0.288347   -0.002613
   5 N :    0.265966    0.001377
   6 N :    0.333055    0.007271
   7 N :    0.311691   -0.007766
   8 C :   -0.040899    0.129513
   9 C :    0.021778   -0.125303
  10 C :   -0.040012    0.004614
  11 C :   -0.106914   -0.005903
  12 C :    0.202800    0.017308
  13 C :    0.229421   -0.019261
  14 C :   -0.401189    0.017832
  15 C :   -0.440415   -0.025103
  16 C :   -0.460152   -0.000269
  17 C :   -0.435605   -0.000244
  18 H :   -0.011282    0.001561
  19 H :    0.047465   -0.002368
  20 H :    0.001970    0.006037
  21 H :   -0.005735    0.002574
  22 H :   -0.002433    0.000195
  23 H :    0.005786   -0.004949
  24 H :    0.014922   -0.004875
  25 H :   -0.034827    0.001040
  26 H :   -0.007730   -0.000269
  27 H :   -0.013967    0.000211
  28 H :   -0.026501    0.000654
  29 H :    0.005590   -0.000559

  Mayer bond orders larger than 0.100000
B(  0-O , 14-C ) :   1.3419 B(  1-O , 15-C ) :   1.4840 B(  2-O , 16-C ) :   1.5239
B(  3-O , 17-C ) :   1.6506 B(  4-N ,  8-C ) :   0.2023 B(  4-N ,  9-C ) :   0.1595
B(  4-N , 10-C ) :   0.5026 B(  4-N , 16-C ) :   1.0355 B(  4-N , 18-H ) :  -0.1030
B(  4-N , 26-H ) :   1.0130 B(  5-N , 10-C ) :   0.1375 B(  5-N , 11-C ) :   0.5102
B(  5-N , 17-C ) :   1.1240 B(  5-N , 27-H ) :   1.1347 B(  6-N ,  8-C ) :  -0.1041
B(  6-N , 14-C ) :   1.0332 B(  6-N , 16-C ) :   0.9498 B(  6-N , 28-H ) :   1.1402
B(  7-N , 15-C ) :   1.1278 B(  7-N , 17-C ) :   0.9451 B(  7-N , 29-H ) :   1.1046
B(  8-C , 10-C ) :   0.4363 B(  8-C , 11-C ) :   0.2601 B(  8-C , 12-C ) :   0.4133
B(  8-C , 14-C ) :   0.9128 B(  8-C , 16-C ) :   0.1062 B(  8-C , 18-H ) :  -0.1878
B(  8-C , 21-H ) :  -0.1059 B(  9-C , 10-C ) :   0.1506 B(  9-C , 11-C ) :   0.8046
B(  9-C , 13-C ) :   0.1082 B(  9-C , 15-C ) :   0.6184 B(  9-C , 19-H ) :  -0.1450
B(  9-C , 25-H ) :  -0.1248 B( 10-C , 11-C ) :   0.4431 B( 10-C , 14-C ) :  -0.2446
B( 10-C , 16-C ) :  -0.1327 B( 10-C , 18-H ) :   0.5986 B( 11-C , 13-C ) :   0.1135
B( 11-C , 15-C ) :  -0.1622 B( 11-C , 17-C ) :  -0.1131 B( 11-C , 19-H ) :   0.7973
B( 12-C , 20-H ) :   0.8407 B( 12-C , 21-H ) :   1.0224 B( 12-C , 22-H ) :   0.9827
B( 13-C , 23-H ) :   0.9592 B( 13-C , 24-H ) :   0.8741 B( 13-C , 25-H ) :   0.9393

Dispersion correction           -0.057996215
FINAL SINGLE POINT ENERGY      -908.773714973128

DIPOLE MOMENT
-------------

Method             : TDA/CIS
Type of density    : Electron Density
Level              : Relaxed density
State              :   2
Multiplicity       :   3
Irrep              :   0
Energy             :     0.0000000000000000 Eh
Relativity type    :
Basis              : AO
                                X                 Y                 Z
Electronic contribution:     -8.926928135      -2.375862405      -1.008595763
Nuclear contribution   :     10.481068244       2.616831511       2.668996418
                        -----------------------------------------
Total Dipole Moment    :      1.554140109       0.240969106       1.660400655
                        -----------------------------------------
Magnitude (a.u.)       :      2.286995392
Magnitude (Debye)      :      5.813080313

Rotational constants in cm-1:             0.022657             0.011160             0.009893
Rotational constants in MHz :           679.250626           334.566902           296.583722

                             ****ORCA TERMINATED NORMALLY****
TOTAL RUN TIME: 0 days 0 hours 5 minutes 14 seconds 868 msec
