                         Program Version 6.0.0  -   RELEASE  -
|  1> ! Engrad def2-TZVPPD wB97M-D3BJ
|  2> %pal nprocs 8 end%pal nprocs 32 end
|  3>  %tddft nroots 2 Iroot 1
|  4> sf true
|  5> end
|  6> *xyz 0 3
|  7> O   3.11292220059785 0.53874263005312 -0.86030920578997
|  8> O   -0.43985051282315 1.34798647415959 -2.30784542457774
|  9> O   0.42181009769068 -3.06778774490235 -0.54518958219184
| 10> O   -3.1493658888932 -1.58986434671291 -0.25597269294077
| 11> N   0.28779648170809 -1.51794305439831 1.10479681052289
| 12> N   -2.12870319181464 -0.03063171131079 1.05190243144615
| 13> N   1.59218931163882 -1.13935176199055 -0.78829274224396
| 14> N   -1.50367829141931 -0.30665165006854 -1.17148261547312
| 15> C   1.59196378108825 0.53931266039288 0.93937973958171
| 16> C   -0.62408426026489 1.56623492110062 0.0479978349477
| 17> C   0.37279644024427 -0.15546561323107 1.57740394061567
| 18> C   -0.91873602154644 0.71453160302173 1.28146222096527
| 19> C   2.30966542210004 1.58388002254233 1.69582325820904
| 20> C   -0.59993020222601 3.04091104290529 0.11118079556448
| 21> C   2.17782410302655 0.01278203473482 -0.29116672562749
| 22> C   -0.81849508003594 0.9027342956473 -1.24621385168888
| 23> C   0.72966556966523 -1.98440959871995 -0.10496460560503
| 24> C   -2.3249124757085 -0.71917499891879 -0.12081976633149
| 25> H   0.51892618682975 -0.20210909201569 2.65971426473583
| 26> H   -1.08288421721696 1.37443120983662 2.13058919010527
| 27> H   3.01285034430057 2.10273332881956 1.05241222039271
| 28> H   1.6212851513586 2.29968570759964 2.14793444087171
| 29> H   2.86805358338395 1.1250112134267 2.5195295371011
| 30> H   -1.59879908800877 3.42132954958294 0.35360948248246
| 31> H   0.07114129409129 3.39298707514145 0.89631097825647
| 32> H   -0.2958937232556 3.45517078163515 -0.84520278889294
| 33> H   -0.36836886411512 -2.14093461340707 1.54260107438666
| 34> H   -2.69207563447051 -0.3549878806721 1.81797724158422
| 35> H   1.97143733436155 -1.50663507822039 -1.64548546564426
| 36> H   -1.66194985028645 -0.78751740603127 -2.04307999476182
| 37> *
| 38>
| 39>                          ****END OF INPUT****

CARTESIAN COORDINATES (ANGSTROEM)
---------------------------------
  O      3.112922    0.538743   -0.860309
  O     -0.439851    1.347986   -2.307845
  O      0.421810   -3.067788   -0.545190
  O     -3.149366   -1.589864   -0.255973
  N      0.287796   -1.517943    1.104797
  N     -2.128703   -0.030632    1.051902
  N      1.592189   -1.139352   -0.788293
  N     -1.503678   -0.306652   -1.171483
  C      1.591964    0.539313    0.939380
  C     -0.624084    1.566235    0.047998
  C      0.372796   -0.155466    1.577404
  C     -0.918736    0.714532    1.281462
  C      2.309665    1.583880    1.695823
  C     -0.599930    3.040911    0.111181
  C      2.177824    0.012782   -0.291167
  C     -0.818495    0.902734   -1.246214
  C      0.729666   -1.984410   -0.104965
  C     -2.324912   -0.719175   -0.120820
  H      0.518926   -0.202109    2.659714
  H     -1.082884    1.374431    2.130589
  H      3.012850    2.102733    1.052412
  H      1.621285    2.299686    2.147934
  H      2.868054    1.125011    2.519530
  H     -1.598799    3.421330    0.353609
  H      0.071141    3.392987    0.896311
  H     -0.295894    3.455171   -0.845203
  H     -0.368369   -2.140935    1.542601
  H     -2.692076   -0.354988    1.817977
  H      1.971437   -1.506635   -1.645485
  H     -1.661950   -0.787517   -2.043080

 Total Charge           Charge          ....    0
 Multiplicity           Mult            ....    3
 Number of Electrons    NEL             ....  132
 Basis Dimension        Dim             ....  882

ORBITAL ENERGIES
----------------
                 SPIN UP ORBITALS
  NO   OCC          E(Eh)            E(eV)
   0   1.0000     -19.332413      -526.0617
   1   1.0000     -19.329954      -525.9948
   2   1.0000     -19.320224      -525.7300
   3   1.0000     -19.314292      -525.5686
   4   1.0000     -14.563880      -396.3033
   5   1.0000     -14.559362      -396.1804
   6   1.0000     -14.558263      -396.1505
   7   1.0000     -14.557204      -396.1216
   8   1.0000     -10.504358      -285.8381
   9   1.0000     -10.500951      -285.7454
  10   1.0000     -10.478681      -285.1394
  11   1.0000     -10.477465      -285.1063
  12   1.0000     -10.444935      -284.2211
  13   1.0000     -10.443611      -284.1851
  14   1.0000     -10.417739      -283.4811
  15   1.0000     -10.412996      -283.3520
  16   1.0000     -10.373801      -282.2855
  17   1.0000     -10.372910      -282.2612
  18   1.0000      -1.221120       -33.2284
  19   1.0000      -1.214912       -33.0594
  20   1.0000      -1.197574       -32.5877
  21   1.0000      -1.194105       -32.4932
  22   1.0000      -1.118223       -30.4284
  23   1.0000      -1.095343       -29.8058
  24   1.0000      -1.065046       -28.9814
  25   1.0000      -1.054895       -28.7052
  26   1.0000      -0.981624       -26.7114
  27   1.0000      -0.947597       -25.7854
  28   1.0000      -0.889702       -24.2100
  29   1.0000      -0.835571       -22.7370
  30   1.0000      -0.827947       -22.5296
  31   1.0000      -0.800682       -21.7877
  32   1.0000      -0.785349       -21.3704
  33   1.0000      -0.778237       -21.1769
  34   1.0000      -0.698647       -19.0112
  35   1.0000      -0.695269       -18.9192
  36   1.0000      -0.688809       -18.7434
  37   1.0000      -0.664234       -18.0747
  38   1.0000      -0.653088       -17.7714
  39   1.0000      -0.646181       -17.5835
  40   1.0000      -0.616980       -16.7889
  41   1.0000      -0.602470       -16.3940
  42   1.0000      -0.588053       -16.0017
  43   1.0000      -0.582077       -15.8391
  44   1.0000      -0.580562       -15.7979
  45   1.0000      -0.576009       -15.6740
  46   1.0000      -0.566026       -15.4023
  47   1.0000      -0.560066       -15.2402
  48   1.0000      -0.556782       -15.1508
  49   1.0000      -0.551420       -15.0049
  50   1.0000      -0.547252       -14.8915
  51   1.0000      -0.541142       -14.7252
  52   1.0000      -0.531831       -14.4718
  53   1.0000      -0.524346       -14.2682
  54   1.0000      -0.512235       -13.9386
  55   1.0000      -0.506929       -13.7942
  56   1.0000      -0.487128       -13.2554
  57   1.0000      -0.419455       -11.4140
  58   1.0000      -0.415547       -11.3076
  59   1.0000      -0.408285       -11.1100
  60   1.0000      -0.404866       -11.0170
  61   1.0000      -0.396701       -10.7948
  62   1.0000      -0.391828       -10.6622
  63   1.0000      -0.387040       -10.5319
  64   1.0000      -0.384221       -10.4552
  65   1.0000      -0.357734        -9.7344
  66   1.0000      -0.310091        -8.4380
  67   0.0000       0.005531         0.1505
  68   0.0000       0.028385         0.7724
  69   0.0000       0.030350         0.8259
  70   0.0000       0.038884         1.0581
  71   0.0000       0.056655         1.5417

                 SPIN DOWN ORBITALS
  NO   OCC          E(Eh)            E(eV)
   0   1.0000     -19.328480      -525.9547
   1   1.0000     -19.325534      -525.8745
   2   1.0000     -19.319979      -525.7234
   3   1.0000     -19.314192      -525.5659
   4   1.0000     -14.563285      -396.2871
   5   1.0000     -14.559050      -396.1719
   6   1.0000     -14.557850      -396.1392
   7   1.0000     -14.557003      -396.1162
   8   1.0000     -10.504366      -285.8383
   9   1.0000     -10.500968      -285.7459
  10   1.0000     -10.479615      -285.1648
  11   1.0000     -10.478458      -285.1333
  12   1.0000     -10.444893      -284.2200
  13   1.0000     -10.443250      -284.1753
  14   1.0000     -10.405883      -283.1585
  15   1.0000     -10.400810      -283.0204
  16   1.0000     -10.374380      -282.3012
  17   1.0000     -10.373453      -282.2760
  18   1.0000      -1.219433       -33.1825
  19   1.0000      -1.213072       -33.0094
  20   1.0000      -1.192857       -32.4593
  21   1.0000      -1.189245       -32.3610
  22   1.0000      -1.115719       -30.3603
  23   1.0000      -1.093341       -29.7513
  24   1.0000      -1.063389       -28.9363
  25   1.0000      -1.053513       -28.6675
  26   1.0000      -0.966964       -26.3124
  27   1.0000      -0.930887       -25.3307
  28   1.0000      -0.884737       -24.0749
  29   1.0000      -0.830670       -22.6037
  30   1.0000      -0.819117       -22.2893
  31   1.0000      -0.795252       -21.6399
  32   1.0000      -0.783895       -21.3309
  33   1.0000      -0.776657       -21.1339
  34   1.0000      -0.693086       -18.8598
  35   1.0000      -0.687212       -18.7000
  36   1.0000      -0.681848       -18.5540
  37   1.0000      -0.655612       -17.8401
  38   1.0000      -0.644970       -17.5505
  39   1.0000      -0.641968       -17.4688
  40   1.0000      -0.614019       -16.7083
  41   1.0000      -0.598274       -16.2799
  42   1.0000      -0.581976       -15.8364
  43   1.0000      -0.575222       -15.6526
  44   1.0000      -0.572597       -15.5812
  45   1.0000      -0.565601       -15.3908
  46   1.0000      -0.561063       -15.2673
  47   1.0000      -0.554377       -15.0854
  48   1.0000      -0.553221       -15.0539
  49   1.0000      -0.541957       -14.7474
  50   1.0000      -0.538918       -14.6647
  51   1.0000      -0.534766       -14.5517
  52   1.0000      -0.524843       -14.2817
  53   1.0000      -0.514498       -14.0002
  54   1.0000      -0.503982       -13.7140
  55   1.0000      -0.500076       -13.6078
  56   1.0000      -0.481376       -13.0989
  57   1.0000      -0.415890       -11.3169
  58   1.0000      -0.412353       -11.2207
  59   1.0000      -0.402948       -10.9648
  60   1.0000      -0.392242       -10.6734
  61   1.0000      -0.387273       -10.5382
  62   1.0000      -0.385366       -10.4863
  63   1.0000      -0.382279       -10.4023
  64   1.0000      -0.374996       -10.2042
  65   0.0000      -0.075562        -2.0561
  66   0.0000      -0.020863        -0.5677
  67   0.0000       0.005249         0.1428
  68   0.0000       0.028474         0.7748
  69   0.0000       0.030184         0.8213

----------------------------------------------------------------------------------------------------
          SPIN FLIP ABSORPTION SPECTRUM VIA TRANSITION ELECTRIC DIPOLE MOMENTS
----------------------------------------------------------------------------------------------------
     Transition      Energy     Energy  Wavelength fosc(D2)      D2        DX        DY        DZ
                      (eV)      (cm-1)    (nm)                 (au**2)    (au)      (au)      (au)
----------------------------------------------------------------------------------------------------
  1-3A  ->  2-3A    0.753663    6078.7  1645.1   0.000071899   0.00389   0.04626  -0.03057   0.02863

Dispersion correction             ... done (  0.0 sec)

MULLIKEN ATOMIC CHARGES AND SPIN DENSITIES
------------------------------------------
   0 O :   -0.691672   -0.013668
   1 O :   -0.665221    0.007335
   2 O :   -0.660056   -0.002050
   3 O :   -0.637596   -0.001898
   4 N :   -0.262579    0.017459
   5 N :   -0.298319    0.004698
   6 N :    0.059372   -0.008286
   7 N :    0.065216    0.012986
   8 C :    1.014499    0.735506
   9 C :    0.914233    0.535291
  10 C :   -0.514788   -0.475806
  11 C :    0.419809   -0.229091
  12 C :   -1.263897    0.135536
  13 C :   -1.385457   -0.001930
  14 C :    0.034829   -0.525282
  15 C :   -0.248427   -0.342231
  16 C :    0.471001    0.031540
  17 C :    0.359554    0.019559
  18 H :    0.635417    0.013225
  19 H :    0.471608    0.007395
  20 H :    0.292394   -0.017324
  21 H :    0.347266    0.030395
  22 H :    0.381464    0.014548
  23 H :    0.359631    0.006327
  24 H :    0.267857    0.036790
  25 H :    0.337224   -0.004286
  26 H :    0.053354    0.001622
  27 H :    0.082905    0.001389
  28 H :    0.023715    0.008991
  29 H :    0.036663    0.001258
Sum of atomic charges       :    0.0000000

LOEWDIN ATOMIC CHARGES AND SPIN DENSITIES
-----------------------------------------
   0 O :    0.094898   -0.008429
   1 O :    0.103944    0.002977
   2 O :    0.092555   -0.000953
   3 O :    0.101436   -0.000690
   4 N :    0.277308   -0.000147
   5 N :    0.277964   -0.000255
   6 N :    0.327407   -0.001786
   7 N :    0.329558    0.000256
   8 C :    0.001938   -0.012886
   9 C :   -0.011472    0.030190
  10 C :   -0.097468   -0.000217
  11 C :   -0.110342    0.002008
  12 C :    0.183653   -0.004262
  13 C :    0.191305    0.001679
  14 C :   -0.415193   -0.007577
  15 C :   -0.413670    0.000061
  16 C :   -0.495349    0.000053
  17 C :   -0.484381    0.000037
  18 H :    0.044588    0.000141
  19 H :    0.049599    0.000037
  20 H :    0.001605   -0.000030
  21 H :   -0.008367   -0.000480
  22 H :    0.017769   -0.001149
  23 H :    0.017482    0.001085
  24 H :   -0.010399    0.000520
  25 H :    0.003750    0.000008
  26 H :   -0.027815   -0.000037
  27 H :   -0.029326   -0.000035
  28 H :   -0.007629   -0.000143
  29 H :   -0.005350    0.000026

  Mayer bond orders larger than 0.100000
B(  0-O , 14-C ) :   1.2882 B(  1-O , 15-C ) :   1.4519 B(  2-O , 16-C ) :   1.5247
B(  3-O , 17-C ) :   1.5510 B(  4-N ,  8-C ) :   0.2564 B(  4-N , 10-C ) :   0.3587
B(  4-N , 11-C ) :  -0.1194 B(  4-N , 16-C ) :   1.0467 B(  4-N , 26-H ) :   1.1020
B(  5-N ,  9-C ) :   0.2897 B(  5-N , 17-C ) :   1.1720 B(  5-N , 27-H ) :   1.0510
B(  6-N , 14-C ) :   1.0328 B(  6-N , 16-C ) :   0.9481 B(  6-N , 28-H ) :   1.1168
B(  7-N , 11-C ) :   0.1313 B(  7-N , 15-C ) :   0.9460 B(  7-N , 17-C ) :   0.9616
B(  7-N , 29-H ) :   1.0863 B(  8-C ,  9-C ) :   0.6374 B(  8-C , 10-C ) :   0.2233
B(  8-C , 11-C ) :  -0.2111 B(  8-C , 12-C ) :   0.5227 B(  8-C , 14-C ) :   0.2614
B(  8-C , 16-C ) :   0.1025 B(  8-C , 20-H ) :  -0.1409 B(  9-C , 11-C ) :   0.2474
B(  9-C , 13-C ) :   0.4753 B(  9-C , 15-C ) :   0.2861 B( 10-C , 11-C ) :   0.8023
B( 10-C , 14-C ) :   0.1675 B( 10-C , 16-C ) :  -0.1219 B( 10-C , 18-H ) :   0.5969
B( 11-C , 13-C ) :  -0.1877 B( 11-C , 17-C ) :  -0.2180 B( 11-C , 19-H ) :   0.8923
B( 12-C , 20-H ) :   1.0752 B( 12-C , 21-H ) :   0.8495 B( 12-C , 22-H ) :   0.8626
B( 13-C , 23-H ) :   0.8485 B( 13-C , 24-H ) :   0.9790 B( 13-C , 25-H ) :   0.9834
B( 14-C , 15-C ) :   0.1967 B( 14-C , 16-C ) :  -0.1320 B( 15-C , 17-C ) :  -0.1531

Dispersion correction           -0.059991585
FINAL SINGLE POINT ENERGY      -908.821111691975

DIPOLE MOMENT
-------------

Method             : TDA/CIS
Type of density    : Electron Density
Level              : Relaxed density
State              :   1
Multiplicity       :   3
Irrep              :   0
Energy             :     0.0000000000000000 Eh
Relativity type    :
Basis              : AO
                                X                 Y                 Z
Electronic contribution:     -2.488946169     -10.172530810      -7.236710438
Nuclear contribution   :      2.219043107      11.724963645      10.025436527
                        -----------------------------------------
Total Dipole Moment    :     -0.269903062       1.552432834       2.788726089
                        -----------------------------------------
Magnitude (a.u.)       :      3.203106081
Magnitude (Debye)      :      8.141648631

Rotational constants in cm-1:             0.019444             0.015618             0.012752
Rotational constants in MHz :           582.920161           468.215895           382.286379

                             ****ORCA TERMINATED NORMALLY****
TOTAL RUN TIME: 0 days 0 hours 24 minutes 37 seconds 539 msec
