                         Program Version 6.0.0  -   RELEASE  -
|  1> ! Engrad def2-TZVPPD wB97M-D3BJ
|  2> %pal nprocs 8 end%pal nprocs 64 end
|  3>  %tddft nroots 2 Iroot 2
|  4> sf true
|  5> end
|  6> *xyz 0 3
|  7> O   2.66867408512503 -0.17161397882415 -1.37280279524632
|  8> O   -0.78747103189295 2.35504832938729 -2.03820429462595
|  9> O   0.40307388179722 -3.23470298468466 0.8953407410147
| 10> O   -2.26291322931802 -1.87979637281146 -1.35578729171053
| 11> N   0.54505974557896 -1.16777901288636 1.84173016376032
| 12> N   -1.94632243580385 -0.56111346266986 0.46645497441393
| 13> N   1.05891126570736 -1.47240137589738 -0.40900211972703
| 14> N   -1.43310425499419 0.20923327138976 -1.67153009880778
| 15> C   1.6571487320732 0.59322878592739 0.62724327219961
| 16> C   -1.01101192538622 1.64905065809545 0.20753048567576
| 17> C   0.40417427536447 0.20226640228972 1.57027579115149
| 18> C   -1.30598033296517 0.54668355147382 1.08723473229201
| 19> C   2.66368952336413 1.54462597370056 1.13582357307825
| 20> C   -0.78298837583474 3.00684373762321 0.73403455161939
| 21> C   1.86794358431706 -0.29797912221149 -0.46194475847543
| 22> C   -1.04302865406115 1.46587947933567 -1.25542616601448
| 23> C   0.65665884706501 -2.06072790393536 0.77268487571105
| 24> C   -1.89879974150425 -0.83400834292109 -0.87865643156367
| 25> H   0.47056443992146 0.78170506266991 2.48664199641571
| 26> H   -1.79188441322289 0.82661315199952 2.01701310399197
| 27> H   3.51486079996894 1.57404745563319 0.46090443928204
| 28> H   2.25826803311895 2.55697453288113 1.23044849978181
| 29> H   3.01750045932208 1.25414415318679 2.13177300906183
| 30> H   -1.74952950621134 3.50632759763951 0.86433419650502
| 31> H   -0.30094446636972 2.98134549193389 1.7103442426675
| 32> H   -0.19890929576536 3.59323318896897 0.03242942036691
| 33> H   0.16804062090739 -1.59393772898402 2.67316874083319
| 34> H   -2.17561232277437 -1.36534303413665 1.02454258671465
| 35> H   1.22071279003687 -2.1268518194815 -1.15854269093613
| 36> H   -1.43418109756392 0.03400431530816 -2.66345674942984
| 37> *
| 38>
| 39>                          ****END OF INPUT****

CARTESIAN COORDINATES (ANGSTROEM)
---------------------------------
  O      2.668674   -0.171614   -1.372803
  O     -0.787471    2.355048   -2.038204
  O      0.403074   -3.234703    0.895341
  O     -2.262913   -1.879796   -1.355787
  N      0.545060   -1.167779    1.841730
  N     -1.946322   -0.561113    0.466455
  N      1.058911   -1.472401   -0.409002
  N     -1.433104    0.209233   -1.671530
  C      1.657149    0.593229    0.627243
  C     -1.011012    1.649051    0.207530
  C      0.404174    0.202266    1.570276
  C     -1.305980    0.546684    1.087235
  C      2.663690    1.544626    1.135824
  C     -0.782988    3.006844    0.734035
  C      1.867944   -0.297979   -0.461945
  C     -1.043029    1.465879   -1.255426
  C      0.656659   -2.060728    0.772685
  C     -1.898800   -0.834008   -0.878656
  H      0.470564    0.781705    2.486642
  H     -1.791884    0.826613    2.017013
  H      3.514861    1.574047    0.460904
  H      2.258268    2.556975    1.230448
  H      3.017500    1.254144    2.131773
  H     -1.749530    3.506328    0.864334
  H     -0.300944    2.981345    1.710344
  H     -0.198909    3.593233    0.032429
  H      0.168041   -1.593938    2.673169
  H     -2.175612   -1.365343    1.024543
  H      1.220713   -2.126852   -1.158543
  H     -1.434181    0.034004   -2.663457

 Total Charge           Charge          ....    0
 Multiplicity           Mult            ....    3
 Number of Electrons    NEL             ....  132
 Basis Dimension        Dim             ....  882

ORBITAL ENERGIES
----------------
                 SPIN UP ORBITALS
  NO   OCC          E(Eh)            E(eV)
   0   1.0000     -19.342372      -526.3327
   1   1.0000     -19.323754      -525.8261
   2   1.0000     -19.321142      -525.7550
   3   1.0000     -19.317389      -525.6529
   4   1.0000     -14.563339      -396.2886
   5   1.0000     -14.562875      -396.2760
   6   1.0000     -14.560094      -396.2003
   7   1.0000     -14.558232      -396.1496
   8   1.0000     -10.503484      -285.8143
   9   1.0000     -10.503413      -285.8124
  10   1.0000     -10.483572      -285.2725
  11   1.0000     -10.473522      -284.9990
  12   1.0000     -10.451570      -284.4017
  13   1.0000     -10.445614      -284.2396
  14   1.0000     -10.429696      -283.8065
  15   1.0000     -10.402124      -283.0562
  16   1.0000     -10.378782      -282.4210
  17   1.0000     -10.369214      -282.1607
  18   1.0000      -1.221678       -33.2435
  19   1.0000      -1.216478       -33.1020
  20   1.0000      -1.199717       -32.6460
  21   1.0000      -1.192429       -32.4476
  22   1.0000      -1.117166       -30.3996
  23   1.0000      -1.100956       -29.9585
  24   1.0000      -1.064633       -28.9701
  25   1.0000      -1.056841       -28.7581
  26   1.0000      -0.974297       -26.5120
  27   1.0000      -0.953681       -25.9510
  28   1.0000      -0.871245       -23.7078
  29   1.0000      -0.841658       -22.9027
  30   1.0000      -0.828075       -22.5331
  31   1.0000      -0.803504       -21.8645
  32   1.0000      -0.784795       -21.3554
  33   1.0000      -0.776630       -21.1332
  34   1.0000      -0.697764       -18.9871
  35   1.0000      -0.692133       -18.8339
  36   1.0000      -0.688412       -18.7326
  37   1.0000      -0.659662       -17.9503
  38   1.0000      -0.649722       -17.6798
  39   1.0000      -0.643855       -17.5202
  40   1.0000      -0.621059       -16.8999
  41   1.0000      -0.601015       -16.3544
  42   1.0000      -0.593858       -16.1597
  43   1.0000      -0.586146       -15.9498
  44   1.0000      -0.575443       -15.6586
  45   1.0000      -0.569193       -15.4885
  46   1.0000      -0.563443       -15.3321
  47   1.0000      -0.562238       -15.2993
  48   1.0000      -0.557427       -15.1684
  49   1.0000      -0.551770       -15.0144
  50   1.0000      -0.548583       -14.9277
  51   1.0000      -0.538585       -14.6556
  52   1.0000      -0.529351       -14.4044
  53   1.0000      -0.523586       -14.2475
  54   1.0000      -0.516697       -14.0600
  55   1.0000      -0.503754       -13.7078
  56   1.0000      -0.493993       -13.4422
  57   1.0000      -0.428250       -11.6533
  58   1.0000      -0.422293       -11.4912
  59   1.0000      -0.410076       -11.1587
  60   1.0000      -0.407000       -11.0750
  61   1.0000      -0.397218       -10.8088
  62   1.0000      -0.394169       -10.7259
  63   1.0000      -0.386464       -10.5162
  64   1.0000      -0.379204       -10.3187
  65   1.0000      -0.344373        -9.3709
  66   1.0000      -0.301573        -8.2062
  67   0.0000       0.005774         0.1571
  68   0.0000       0.028045         0.7632
  69   0.0000       0.032116         0.8739
  70   0.0000       0.037974         1.0333
  71   0.0000       0.055175         1.5014

                 SPIN DOWN ORBITALS
  NO   OCC          E(Eh)            E(eV)
   0   1.0000     -19.337064      -526.1883
   1   1.0000     -19.320673      -525.7422
   2   1.0000     -19.319930      -525.7220
   3   1.0000     -19.317391      -525.6529
   4   1.0000     -14.563118      -396.2826
   5   1.0000     -14.561774      -396.2460
   6   1.0000     -14.559907      -396.1952
   7   1.0000     -14.557678      -396.1346
   8   1.0000     -10.503533      -285.8157
   9   1.0000     -10.503421      -285.8126
  10   1.0000     -10.484696      -285.3031
  11   1.0000     -10.474237      -285.0185
  12   1.0000     -10.449317      -284.3404
  13   1.0000     -10.446193      -284.2554
  14   1.0000     -10.418276      -283.4957
  15   1.0000     -10.391318      -282.7621
  16   1.0000     -10.379331      -282.4359
  17   1.0000     -10.369753      -282.1753
  18   1.0000      -1.219584       -33.1866
  19   1.0000      -1.214970       -33.0610
  20   1.0000      -1.193504       -32.4769
  21   1.0000      -1.187762       -32.3206
  22   1.0000      -1.114375       -30.3237
  23   1.0000      -1.098661       -29.8961
  24   1.0000      -1.062742       -28.9187
  25   1.0000      -1.055082       -28.7103
  26   1.0000      -0.960160       -26.1273
  27   1.0000      -0.937269       -25.5044
  28   1.0000      -0.866928       -23.5903
  29   1.0000      -0.836206       -22.7543
  30   1.0000      -0.820118       -22.3165
  31   1.0000      -0.797685       -21.7061
  32   1.0000      -0.783505       -21.3202
  33   1.0000      -0.774857       -21.0849
  34   1.0000      -0.691513       -18.8170
  35   1.0000      -0.687190       -18.6994
  36   1.0000      -0.681900       -18.5554
  37   1.0000      -0.652252       -17.7487
  38   1.0000      -0.641827       -17.4650
  39   1.0000      -0.637865       -17.3572
  40   1.0000      -0.618321       -16.8254
  41   1.0000      -0.596132       -16.2216
  42   1.0000      -0.587394       -15.9838
  43   1.0000      -0.577924       -15.7261
  44   1.0000      -0.563482       -15.3331
  45   1.0000      -0.561854       -15.2888
  46   1.0000      -0.560400       -15.2493
  47   1.0000      -0.555177       -15.1071
  48   1.0000      -0.553979       -15.0745
  49   1.0000      -0.542301       -14.7568
  50   1.0000      -0.540458       -14.7066
  51   1.0000      -0.531045       -14.4505
  52   1.0000      -0.522219       -14.2103
  53   1.0000      -0.513984       -13.9862
  54   1.0000      -0.505103       -13.7446
  55   1.0000      -0.497600       -13.5404
  56   1.0000      -0.487751       -13.2724
  57   1.0000      -0.422492       -11.4966
  58   1.0000      -0.416458       -11.3324
  59   1.0000      -0.406828       -11.0704
  60   1.0000      -0.394887       -10.7454
  61   1.0000      -0.389347       -10.5947
  62   1.0000      -0.383831       -10.4446
  63   1.0000      -0.381844       -10.3905
  64   1.0000      -0.358480        -9.7547
  65   0.0000      -0.065168        -1.7733
  66   0.0000      -0.035993        -0.9794
  67   0.0000       0.005393         0.1468
  68   0.0000       0.027884         0.7588
  69   0.0000       0.031921         0.8686

----------------------------------------------------------------------------------------------------
          SPIN FLIP ABSORPTION SPECTRUM VIA TRANSITION ELECTRIC DIPOLE MOMENTS
----------------------------------------------------------------------------------------------------
     Transition      Energy     Energy  Wavelength fosc(D2)      D2        DX        DY        DZ
                      (eV)      (cm-1)    (nm)                 (au**2)    (au)      (au)      (au)
----------------------------------------------------------------------------------------------------
  1-3A  ->  2-3A    0.172490    1391.2  7187.9   0.000009767   0.00231  -0.03484   0.02843  -0.01700

Dispersion correction             ... done (  0.1 sec)

MULLIKEN ATOMIC CHARGES AND SPIN DENSITIES
------------------------------------------
   0 O :   -0.672130   -0.169827
   1 O :   -0.683101    0.121102
   2 O :   -0.638205   -0.001742
   3 O :   -0.641682   -0.001518
   4 N :   -0.301429    0.011715
   5 N :   -0.220849    0.006931
   6 N :    0.090884   -0.001561
   7 N :    0.026119    0.017927
   8 C :    1.591881    0.461060
   9 C :    0.093325    0.400860
  10 C :   -0.258365   -0.385935
  11 C :    0.390120    0.115624
  12 C :   -1.351901   -0.008814
  13 C :   -1.525868    0.016668
  14 C :   -0.534100   -0.646936
  15 C :    0.593879   -0.000465
  16 C :    0.259224    0.022058
  17 C :    0.435568   -0.007520
  18 H :    0.569022   -0.026612
  19 H :    0.492719    0.010894
  20 H :    0.357431   -0.017453
  21 H :    0.298918    0.034369
  22 H :    0.353914    0.005549
  23 H :    0.395996    0.023586
  24 H :    0.344128    0.010136
  25 H :    0.298461    0.010556
  26 H :    0.106524   -0.000972
  27 H :    0.059444   -0.001263
  28 H :    0.058444    0.002093
  29 H :    0.011628   -0.000506
Sum of atomic charges       :   -0.0000000

LOEWDIN ATOMIC CHARGES AND SPIN DENSITIES
-----------------------------------------
   0 O :    0.093262   -0.155197
   1 O :    0.092160    0.108818
   2 O :    0.095281   -0.000774
   3 O :    0.098606   -0.001271
   4 N :    0.245054    0.002369
   5 N :    0.278536   -0.006705
   6 N :    0.322963   -0.008471
   7 N :    0.329865    0.019258
   8 C :    0.027309   -0.431695
   9 C :   -0.091851    0.399139
  10 C :   -0.036003    0.057884
  11 C :   -0.059451    0.035574
  12 C :    0.188353   -0.069091
  13 C :    0.180126    0.058285
  14 C :   -0.412412   -0.085013
  15 C :   -0.404040    0.065883
  16 C :   -0.489517    0.002236
  17 C :   -0.489012   -0.000817
  18 H :    0.024509    0.006972
  19 H :    0.047509    0.005961
  20 H :    0.002032    0.001185
  21 H :    0.004033   -0.017611
  22 H :    0.016618   -0.019312
  23 H :    0.015740    0.023441
  24 H :   -0.007897    0.006488
  25 H :   -0.000441    0.002407
  26 H :   -0.026349   -0.000238
  27 H :   -0.026189   -0.000501
  28 H :   -0.010086   -0.000847
  29 H :   -0.008706    0.001643

  Mayer bond orders larger than 0.100000
B(  0-O , 14-C ) :   1.3691 B(  1-O , 15-C ) :   1.2953 B(  2-O , 16-C ) :   1.5267
B(  3-O , 17-C ) :   1.5570 B(  4-N ,  8-C ) :   0.2022 B(  4-N , 10-C ) :   0.1196
B(  4-N , 16-C ) :   1.2051 B(  4-N , 26-H ) :   1.0002 B(  5-N ,  9-C ) :   0.2458
B(  5-N , 11-C ) :   0.4477 B(  5-N , 17-C ) :   1.0143 B(  5-N , 27-H ) :   1.0973
B(  6-N , 10-C ) :   0.1052 B(  6-N , 14-C ) :   0.9309 B(  6-N , 16-C ) :   1.0133
B(  6-N , 28-H ) :   1.0508 B(  7-N , 15-C ) :   1.0294 B(  7-N , 17-C ) :   0.9207
B(  7-N , 29-H ) :   1.1219 B(  8-C , 12-C ) :   0.4618 B(  9-C , 10-C ) :   0.3785
B(  9-C , 13-C ) :   0.4365 B(  9-C , 14-C ) :   0.1411 B(  9-C , 15-C ) :   0.8508
B(  9-C , 17-C ) :   0.1146 B(  9-C , 19-H ) :  -0.1927 B(  9-C , 24-H ) :  -0.1115
B(  9-C , 25-H ) :  -0.1351 B( 10-C , 11-C ) :   0.4563 B( 10-C , 12-C ) :  -0.1109
B( 10-C , 14-C ) :   0.2143 B( 10-C , 16-C ) :  -0.2928 B( 10-C , 18-H ) :   0.7546
B( 11-C , 13-C ) :  -0.1563 B( 11-C , 14-C ) :  -0.1369 B( 11-C , 17-C ) :  -0.1619
B( 11-C , 19-H ) :   0.8626 B( 12-C , 20-H ) :   0.9279 B( 12-C , 21-H ) :   0.9449
B( 12-C , 22-H ) :   0.8839 B( 13-C , 23-H ) :   0.8020 B( 13-C , 24-H ) :   0.9563
B( 13-C , 25-H ) :   1.0502 B( 14-C , 16-C ) :  -0.1204

Dispersion correction           -0.058465226
FINAL SINGLE POINT ENERGY      -908.775351170363

DIPOLE MOMENT
-------------

Method             : TDA/CIS
Type of density    : Electron Density
Level              : Relaxed density
State              :   2
Multiplicity       :   3
Irrep              :   0
Energy             :     0.0000000000000000 Eh
Relativity type    :
Basis              : AO
                                X                 Y                 Z
Electronic contribution:     -3.203376015     -10.017695045      -7.470231691
Nuclear contribution   :      3.118589677      11.526279905      10.325827894
                        -----------------------------------------
Total Dipole Moment    :     -0.084786338       1.508584861       2.855596203
                        -----------------------------------------
Magnitude (a.u.)       :      3.230703744
Magnitude (Debye)      :      8.211796314

Rotational constants in cm-1:             0.017597             0.016156             0.012416
Rotational constants in MHz :           527.531396           484.332830           372.234872

                             ****ORCA TERMINATED NORMALLY****
TOTAL RUN TIME: 0 days 0 hours 4 minutes 38 seconds 89 msec
