                         Program Version 6.0.0  -   RELEASE  -
|  1> ! Engrad def2-TZVPPD wB97M-D3BJ
|  2> %pal nprocs 8 end%pal nprocs 64 end
|  3>  %tddft nroots 2 Iroot 2
|  4> sf true
|  5> end
|  6> *xyz 0 3
|  7> O   3.32373300691694 0.50168180483454 -0.64817533132966
|  8> O   -0.69212974833991 1.28376086988665 -2.43215452618898
|  9> O   0.45100742502737 -2.9756652134323 -0.73398638280324
| 10> O   -3.17668828322045 -1.58798549097286 -0.03185298084142
| 11> N   0.28065820467932 -1.50816102270809 0.98795806047139
| 12> N   -2.08568293346124 0.05663711021776 1.10668443577737
| 13> N   1.71121441103483 -1.08716466864647 -0.79293216882694
| 14> N   -1.61814919098246 -0.34699427300761 -1.13965850243839
| 15> C   1.70019520928622 0.45626982307435 1.05796166426722
| 16> C   -0.7119902116337 1.59247882886867 -0.08238505878633
| 17> C   0.39233913933512 -0.17135078711439 1.52698980623435
| 18> C   -0.82803166705932 0.76382817038224 1.21160185830759
| 19> C   2.35264207677803 1.49201917232434 1.87627712924741
| 20> C   -0.68968254197582 3.06251131216804 -0.04616247336983
| 21> C   2.32592440494066 -0.0075632556621 -0.17225087901064
| 22> C   -0.97462392836442 0.87446661833593 -1.32538298673997
| 23> C   0.77620563805918 -1.93153178393836 -0.21703314518307
| 24> C   -2.35603836885523 -0.70317479316822 -0.01063050896096
| 25> H   0.43091083447486 -0.27796618234346 2.61582556116542
| 26> H   -0.9086867483898 1.46762100522601 2.03844777435304
| 27> H   3.25266920526192 1.85080949552267 1.38853031035767
| 28> H   1.68175251996099 2.33862594892243 2.05858815873499
| 29> H   2.60669264979534 1.0897137594353 2.86276716660287
| 30> H   -1.63815801078915 3.44575303670609 0.35006488966715
| 31> H   0.09419270238296 3.42787090981008 0.6226325104616
| 32> H   -0.5427940523427 3.46630836178472 -1.04318687145468
| 33> H   -0.41793694305438 -2.12561134889873 1.36367734221875
| 34> H   -2.5947467985786 -0.23073501348444 1.92495615767823
| 35> H   2.1327651523511 -1.41828418914962 -1.64485399222966
| 36> H   -1.82496315323766 -0.8831682049732 -1.96771701738131
| 37> *
| 38>
| 39>                          ****END OF INPUT****

CARTESIAN COORDINATES (ANGSTROEM)
---------------------------------
  O      3.323733    0.501682   -0.648175
  O     -0.692130    1.283761   -2.432155
  O      0.451007   -2.975665   -0.733986
  O     -3.176688   -1.587985   -0.031853
  N      0.280658   -1.508161    0.987958
  N     -2.085683    0.056637    1.106684
  N      1.711214   -1.087165   -0.792932
  N     -1.618149   -0.346994   -1.139659
  C      1.700195    0.456270    1.057962
  C     -0.711990    1.592479   -0.082385
  C      0.392339   -0.171351    1.526990
  C     -0.828032    0.763828    1.211602
  C      2.352642    1.492019    1.876277
  C     -0.689683    3.062511   -0.046162
  C      2.325924   -0.007563   -0.172251
  C     -0.974624    0.874467   -1.325383
  C      0.776206   -1.931532   -0.217033
  C     -2.356038   -0.703175   -0.010631
  H      0.430911   -0.277966    2.615826
  H     -0.908687    1.467621    2.038448
  H      3.252669    1.850809    1.388530
  H      1.681753    2.338626    2.058588
  H      2.606693    1.089714    2.862767
  H     -1.638158    3.445753    0.350065
  H      0.094193    3.427871    0.622633
  H     -0.542794    3.466308   -1.043187
  H     -0.417937   -2.125611    1.363677
  H     -2.594747   -0.230735    1.924956
  H      2.132765   -1.418284   -1.644854
  H     -1.824963   -0.883168   -1.967717

 Total Charge           Charge          ....    0
 Multiplicity           Mult            ....    3
 Number of Electrons    NEL             ....  132
 Basis Dimension        Dim             ....  882

ORBITAL ENERGIES
----------------
                 SPIN UP ORBITALS
  NO   OCC          E(Eh)            E(eV)
   0   1.0000     -19.333320      -526.0864
   1   1.0000     -19.332447      -526.0626
   2   1.0000     -19.322111      -525.7814
   3   1.0000     -19.314688      -525.5794
   4   1.0000     -14.563696      -396.2983
   5   1.0000     -14.559628      -396.1876
   6   1.0000     -14.559471      -396.1833
   7   1.0000     -14.556139      -396.0927
   8   1.0000     -10.505372      -285.8657
   9   1.0000     -10.500994      -285.7466
  10   1.0000     -10.479850      -285.1712
  11   1.0000     -10.479224      -285.1542
  12   1.0000     -10.445121      -284.2262
  13   1.0000     -10.444972      -284.2221
  14   1.0000     -10.419493      -283.5288
  15   1.0000     -10.415561      -283.4218
  16   1.0000     -10.375174      -282.3228
  17   1.0000     -10.374045      -282.2921
  18   1.0000      -1.221632       -33.2423
  19   1.0000      -1.215697       -33.0808
  20   1.0000      -1.197600       -32.5884
  21   1.0000      -1.194758       -32.5110
  22   1.0000      -1.118766       -30.4432
  23   1.0000      -1.096494       -29.8371
  24   1.0000      -1.065088       -28.9825
  25   1.0000      -1.055094       -28.7106
  26   1.0000      -0.978816       -26.6349
  27   1.0000      -0.952646       -25.9228
  28   1.0000      -0.890869       -24.2418
  29   1.0000      -0.838744       -22.8234
  30   1.0000      -0.828734       -22.5510
  31   1.0000      -0.802150       -21.8276
  32   1.0000      -0.783626       -21.3236
  33   1.0000      -0.779602       -21.2141
  34   1.0000      -0.698678       -19.0120
  35   1.0000      -0.694460       -18.8972
  36   1.0000      -0.687768       -18.7151
  37   1.0000      -0.664585       -18.0843
  38   1.0000      -0.656375       -17.8609
  39   1.0000      -0.645200       -17.5568
  40   1.0000      -0.619041       -16.8450
  41   1.0000      -0.602970       -16.4077
  42   1.0000      -0.590973       -16.0812
  43   1.0000      -0.584522       -15.9056
  44   1.0000      -0.578821       -15.7505
  45   1.0000      -0.573902       -15.6167
  46   1.0000      -0.565780       -15.3956
  47   1.0000      -0.559613       -15.2278
  48   1.0000      -0.558391       -15.1946
  49   1.0000      -0.553905       -15.0725
  50   1.0000      -0.547561       -14.8999
  51   1.0000      -0.543865       -14.7993
  52   1.0000      -0.532979       -14.5031
  53   1.0000      -0.524606       -14.2753
  54   1.0000      -0.515183       -14.0189
  55   1.0000      -0.507808       -13.8182
  56   1.0000      -0.488893       -13.3035
  57   1.0000      -0.420171       -11.4334
  58   1.0000      -0.418218       -11.3803
  59   1.0000      -0.411768       -11.2048
  60   1.0000      -0.402855       -10.9622
  61   1.0000      -0.399594       -10.8735
  62   1.0000      -0.392455       -10.6793
  63   1.0000      -0.388791       -10.5795
  64   1.0000      -0.381946       -10.3933
  65   1.0000      -0.347966        -9.4686
  66   1.0000      -0.326378        -8.8812
  67   0.0000       0.005290         0.1439
  68   0.0000       0.028014         0.7623
  69   0.0000       0.031822         0.8659
  70   0.0000       0.038333         1.0431
  71   0.0000       0.056062         1.5255

                 SPIN DOWN ORBITALS
  NO   OCC          E(Eh)            E(eV)
   0   1.0000     -19.329207      -525.9745
   1   1.0000     -19.327866      -525.9380
   2   1.0000     -19.321836      -525.7739
   3   1.0000     -19.314578      -525.5764
   4   1.0000     -14.562920      -396.2772
   5   1.0000     -14.559197      -396.1759
   6   1.0000     -14.559164      -396.1750
   7   1.0000     -14.555955      -396.0877
   8   1.0000     -10.505383      -285.8660
   9   1.0000     -10.501022      -285.7473
  10   1.0000     -10.480919      -285.2003
  11   1.0000     -10.480247      -285.1820
  12   1.0000     -10.445283      -284.2306
  13   1.0000     -10.444636      -284.2130
  14   1.0000     -10.407941      -283.2145
  15   1.0000     -10.403626      -283.0971
  16   1.0000     -10.375787      -282.3395
  17   1.0000     -10.374626      -282.3079
  18   1.0000      -1.220009       -33.1981
  19   1.0000      -1.213691       -33.0262
  20   1.0000      -1.192551       -32.4510
  21   1.0000      -1.189826       -32.3768
  22   1.0000      -1.116222       -30.3739
  23   1.0000      -1.094300       -29.7774
  24   1.0000      -1.063399       -28.9366
  25   1.0000      -1.053643       -28.6711
  26   1.0000      -0.965049       -26.2603
  27   1.0000      -0.935743       -25.4629
  28   1.0000      -0.885966       -24.1084
  29   1.0000      -0.833474       -22.6800
  30   1.0000      -0.819853       -22.3093
  31   1.0000      -0.797037       -21.6885
  32   1.0000      -0.782298       -21.2874
  33   1.0000      -0.778011       -21.1707
  34   1.0000      -0.693023       -18.8581
  35   1.0000      -0.687458       -18.7067
  36   1.0000      -0.681669       -18.5491
  37   1.0000      -0.656914       -17.8755
  38   1.0000      -0.646591       -17.5946
  39   1.0000      -0.641613       -17.4592
  40   1.0000      -0.615696       -16.7540
  41   1.0000      -0.598837       -16.2952
  42   1.0000      -0.583634       -15.8815
  43   1.0000      -0.577206       -15.7066
  44   1.0000      -0.571964       -15.5639
  45   1.0000      -0.564910       -15.3720
  46   1.0000      -0.560409       -15.2495
  47   1.0000      -0.555502       -15.1160
  48   1.0000      -0.552309       -15.0291
  49   1.0000      -0.543112       -14.7788
  50   1.0000      -0.539788       -14.6884
  51   1.0000      -0.537711       -14.6319
  52   1.0000      -0.526568       -14.3286
  53   1.0000      -0.514560       -14.0019
  54   1.0000      -0.506369       -13.7790
  55   1.0000      -0.501873       -13.6566
  56   1.0000      -0.483063       -13.1448
  57   1.0000      -0.417013       -11.3475
  58   1.0000      -0.414225       -11.2716
  59   1.0000      -0.405372       -11.0307
  60   1.0000      -0.390148       -10.6165
  61   1.0000      -0.388458       -10.5705
  62   1.0000      -0.387283       -10.5385
  63   1.0000      -0.384181       -10.4541
  64   1.0000      -0.375561       -10.2195
  65   0.0000      -0.066192        -1.8012
  66   0.0000      -0.037337        -1.0160
  67   0.0000       0.004864         0.1324
  68   0.0000       0.027933         0.7601
  69   0.0000       0.031567         0.8590

----------------------------------------------------------------------------------------------------
          SPIN FLIP ABSORPTION SPECTRUM VIA TRANSITION ELECTRIC DIPOLE MOMENTS
----------------------------------------------------------------------------------------------------
     Transition      Energy     Energy  Wavelength fosc(D2)      D2        DX        DY        DZ
                      (eV)      (cm-1)    (nm)                 (au**2)    (au)      (au)      (au)
----------------------------------------------------------------------------------------------------
  1-3A  ->  2-3A    0.179239    1445.7  6917.3   0.000008986   0.00205  -0.02622   0.02657  -0.02555

Dispersion correction             ... done (  0.1 sec)

MULLIKEN ATOMIC CHARGES AND SPIN DENSITIES
------------------------------------------
   0 O :   -0.680006    0.031740
   1 O :   -0.671126   -0.029908
   2 O :   -0.661876    0.000446
   3 O :   -0.636610   -0.001162
   4 N :   -0.270073    0.008707
   5 N :   -0.339284   -0.001247
   6 N :    0.069210    0.000875
   7 N :    0.067696    0.002903
   8 C :    0.399122    0.499059
   9 C :    0.967913    0.426453
  10 C :    0.009714   -0.212223
  11 C :    0.329816   -0.269215
  12 C :   -1.230315    0.045779
  13 C :   -1.404682    0.016286
  14 C :    0.230095   -0.259751
  15 C :   -0.184369   -0.361916
  16 C :    0.448044    0.017044
  17 C :    0.332529    0.018970
  18 H :    0.632739    0.011590
  19 H :    0.475321   -0.005540
  20 H :    0.284276   -0.002621
  21 H :    0.291507    0.015108
  22 H :    0.345399    0.015282
  23 H :    0.355269    0.007382
  24 H :    0.266817    0.031442
  25 H :    0.353306   -0.012501
  26 H :    0.058777    0.000995
  27 H :    0.098414    0.001092
  28 H :    0.026922    0.003593
  29 H :    0.035456    0.001340
Sum of atomic charges       :    0.0000000

LOEWDIN ATOMIC CHARGES AND SPIN DENSITIES
-----------------------------------------
   0 O :    0.089479    0.028400
   1 O :    0.095759   -0.030279
   2 O :    0.090931    0.000839
   3 O :    0.096863   -0.000646
   4 N :    0.276563   -0.000117
   5 N :    0.275734   -0.003855
   6 N :    0.332260   -0.000105
   7 N :    0.325679   -0.003491
   8 C :   -0.010405    0.113428
   9 C :   -0.001988   -0.091776
  10 C :   -0.096989    0.004230
  11 C :   -0.101954   -0.006574
  12 C :    0.189630    0.016012
  13 C :    0.189198   -0.017273
  14 C :   -0.400735    0.011998
  15 C :   -0.416403   -0.020257
  16 C :   -0.495682   -0.000211
  17 C :   -0.489184   -0.000313
  18 H :    0.053679    0.000314
  19 H :    0.048772    0.000086
  20 H :   -0.002812   -0.000271
  21 H :   -0.003558    0.004278
  22 H :    0.012737    0.005016
  23 H :    0.018734   -0.005660
  24 H :   -0.005625   -0.003093
  25 H :    0.002126    0.000055
  26 H :   -0.029161    0.000040
  27 H :   -0.029069   -0.000465
  28 H :   -0.008518   -0.000014
  29 H :   -0.006061   -0.000294

  Mayer bond orders larger than 0.100000
B(  0-O , 14-C ) :   1.3066 B(  1-O , 15-C ) :   1.4175 B(  2-O , 16-C ) :   1.5349
B(  3-O , 17-C ) :   1.5617 B(  4-N ,  8-C ) :   0.2334 B(  4-N , 10-C ) :   0.3696
B(  4-N , 16-C ) :   1.0356 B(  4-N , 26-H ) :   1.1024 B(  5-N ,  9-C ) :   0.2645
B(  5-N , 10-C ) :   0.1106 B(  5-N , 17-C ) :   1.1791 B(  5-N , 27-H ) :   1.0252
B(  6-N ,  8-C ) :  -0.1206 B(  6-N , 10-C ) :   0.1336 B(  6-N , 14-C ) :   1.0873
B(  6-N , 16-C ) :   0.9225 B(  6-N , 28-H ) :   1.1038 B(  7-N , 11-C ) :   0.1351
B(  7-N , 15-C ) :   0.9388 B(  7-N , 17-C ) :   0.9969 B(  7-N , 29-H ) :   1.0853
B(  8-C ,  9-C ) :   0.1313 B(  8-C , 10-C ) :   0.3803 B(  8-C , 12-C ) :   0.4900
B(  8-C , 14-C ) :   0.8073 B(  8-C , 18-H ) :  -0.1597 B(  8-C , 20-H ) :  -0.1157
B(  9-C , 11-C ) :   0.3120 B(  9-C , 13-C ) :   0.4140 B(  9-C , 15-C ) :   0.4447
B( 10-C , 11-C ) :   0.6801 B( 10-C , 16-C ) :  -0.1340 B( 10-C , 18-H ) :   0.6830
B( 11-C , 13-C ) :  -0.1601 B( 11-C , 17-C ) :  -0.2098 B( 11-C , 19-H ) :   0.9197
B( 12-C , 20-H ) :   1.0781 B( 12-C , 21-H ) :   0.8505 B( 12-C , 22-H ) :   0.9021
B( 13-C , 23-H ) :   0.8640 B( 13-C , 24-H ) :   0.9918 B( 13-C , 25-H ) :   0.9485
B( 15-C , 17-C ) :  -0.1193

Dispersion correction           -0.058784232
FINAL SINGLE POINT ENERGY      -908.802092260876

DIPOLE MOMENT
-------------

Method             : TDA/CIS
Type of density    : Electron Density
Level              : Relaxed density
State              :   2
Multiplicity       :   3
Irrep              :   0
Energy             :     0.0000000000000000 Eh
Relativity type    :
Basis              : AO
                                X                 Y                 Z
Electronic contribution:     -2.288073390     -10.051754684      -7.191562738
Nuclear contribution   :      2.090293949      11.676545410       9.983502940
                        -----------------------------------------
Total Dipole Moment    :     -0.197779441       1.624790727       2.791940201
                        -----------------------------------------
Magnitude (a.u.)       :      3.236354693
Magnitude (Debye)      :      8.226159886

Rotational constants in cm-1:             0.019317             0.014796             0.012324
Rotational constants in MHz :           579.119629           443.558485           369.465351

                             ****ORCA TERMINATED NORMALLY****
TOTAL RUN TIME: 0 days 0 hours 4 minutes 37 seconds 900 msec
