                         Program Version 6.0.0  -   RELEASE  -
|  1> ! EnGrad wB97M-D3BJ def2-TZVPPD
|  2> %pal nprocs 8 end%pal nprocs 16 end
|  3> %tddft
|  4>  sf true
|  5>  nroots 2 Iroot 2 end
|  6> *xyz 0 3
|  7> O   0.2693470726941 0.96736229908698 -0.0018660401712
|  8> C   0.64200301958544 -0.32203521038668 -0.00043342514688
|  9> C   -0.73613291055595 -0.67336616741649 0.00038564263604
| 10> H   1.19922290101557 -0.64073941703812 0.88877939729654
| 11> H   1.19984998002432 -0.64227864277951 -0.88862605181138
| 12> H   -1.2867860352131 -0.70527062640848 -0.92637869175678
| 13> H   -1.28530402755038 -0.70207223505769 0.92813916895367
| 14> *
| 15>
| 16>                          ****END OF INPUT****

CARTESIAN COORDINATES (ANGSTROEM)
---------------------------------
  O      0.269347    0.967362   -0.001866
  C      0.642003   -0.322035   -0.000433
  C     -0.736133   -0.673366    0.000386
  H      1.199223   -0.640739    0.888779
  H      1.199850   -0.642279   -0.888626
  H     -1.286786   -0.705271   -0.926379
  H     -1.285304   -0.702072    0.928139

 Total Charge           Charge          ....    0
 Multiplicity           Mult            ....    3
 Number of Electrons    NEL             ....   24
 Basis Dimension        Dim             ....  182

ORBITAL ENERGIES
----------------
                 SPIN UP ORBITALS
  NO   OCC          E(Eh)            E(eV)
   0   1.0000     -19.410269      -528.1803
   1   1.0000     -10.407122      -283.1922
   2   1.0000     -10.338076      -281.3134
   3   1.0000      -1.216632       -33.1063
   4   1.0000      -0.865806       -23.5598
   5   1.0000      -0.741598       -20.1799
   6   1.0000      -0.646340       -17.5878
   7   1.0000      -0.609167       -16.5763
   8   1.0000      -0.550501       -14.9799
   9   1.0000      -0.505670       -13.7600
  10   1.0000      -0.454264       -12.3612
  11   1.0000      -0.439899       -11.9703
  12   1.0000      -0.266659        -7.2562
  13   0.0000       0.040832         1.1111
  14   0.0000       0.063717         1.7338
  15   0.0000       0.072742         1.9794
  16   0.0000       0.085852         2.3362
  17   0.0000       0.116543         3.1713

                 SPIN DOWN ORBITALS
  NO   OCC          E(Eh)            E(eV)
   0   1.0000     -19.381563      -527.3991
   1   1.0000     -10.408270      -283.2234
   2   1.0000     -10.325509      -280.9714
   3   1.0000      -1.155858       -31.4525
   4   1.0000      -0.831515       -22.6267
   5   1.0000      -0.720434       -19.6040
   6   1.0000      -0.602974       -16.4077
   7   1.0000      -0.572604       -15.5814
   8   1.0000      -0.526387       -14.3237
   9   1.0000      -0.473061       -12.8727
  10   1.0000      -0.391651       -10.6574
  11   0.0000      -0.076567        -2.0835
  12   0.0000       0.034684         0.9438
  13   0.0000       0.039316         1.0699
  14   0.0000       0.064063         1.7432
  15   0.0000       0.071319         1.9407

----------------------------------------------------------------------------------------------------
          SPIN FLIP ABSORPTION SPECTRUM VIA TRANSITION ELECTRIC DIPOLE MOMENTS
----------------------------------------------------------------------------------------------------
     Transition      Energy     Energy  Wavelength fosc(D2)      D2        DX        DY        DZ
                      (eV)      (cm-1)    (nm)                 (au**2)    (au)      (au)      (au)
----------------------------------------------------------------------------------------------------
  1-3A  ->  2-3A    2.637169   21270.2   470.1   0.000897098   0.01388   0.00051   0.00075   0.11783

Dispersion correction             ... done (  0.0 sec)

MULLIKEN ATOMIC CHARGES AND SPIN DENSITIES
------------------------------------------
   0 O :   -0.300583    0.722229
   1 C :    0.112935    0.234090
   2 C :   -0.461200   -0.745422
   3 H :    0.207502    0.022672
   4 H :    0.207712    0.023166
   5 H :    0.116506   -0.128552
   6 H :    0.117127   -0.128184
Sum of atomic charges       :    0.0000000

LOEWDIN ATOMIC CHARGES AND SPIN DENSITIES
-----------------------------------------
   0 O :    0.108779    0.662781
   1 C :   -0.238044    0.046968
   2 C :    0.186655   -0.588845
   3 H :    0.040167    0.028140
   4 H :    0.040371    0.028504
   5 H :   -0.068975   -0.088824
   6 H :   -0.068953   -0.088725

  Mayer bond orders larger than 0.100000
B(  0-O ,  1-C ) :   0.8453 B(  0-O ,  2-C ) :   0.2639 B(  1-C ,  2-C ) :   0.6107
B(  1-C ,  3-H ) :   0.9841 B(  1-C ,  4-H ) :   0.9832 B(  2-C ,  5-H ) :   1.1209
B(  2-C ,  6-H ) :   1.1205

Dispersion correction           -0.005624568
FINAL SINGLE POINT ENERGY      -153.715464162451

DIPOLE MOMENT
-------------

Method             : TDA/CIS
Type of density    : Electron Density
Level              : Relaxed density
State              :   2
Multiplicity       :   3
Irrep              :   0
Energy             :     0.0000000000000000 Eh
Relativity type    :
Basis              : AO
                                X                 Y                 Z
Electronic contribution:      0.882171841       2.411941501      -0.004827128
Nuclear contribution   :     -0.415269547      -2.578929117       0.004205241
                        -----------------------------------------
Total Dipole Moment    :      0.466902294      -0.166987616      -0.000621887
                        -----------------------------------------
Magnitude (a.u.)       :      0.495865912
Magnitude (Debye)      :      1.260390984

Rotational constants in cm-1:             1.042547             0.516978             0.400167
Rotational constants in MHz :         31254.779517         15498.599273         11996.700834

                             ****ORCA TERMINATED NORMALLY****
TOTAL RUN TIME: 0 days 0 hours 0 minutes 17 seconds 9 msec
