                         Program Version 6.0.0  -   RELEASE  -
|  1> ! Engrad def2-TZVPPD wB97M-D3BJ
|  2> %pal nprocs 8 end%pal nprocs 32 end
|  3>  %tddft nroots 2 Iroot 2
|  4> sf true
|  5> end
|  6> *xyz 0 3
|  7> O   2.51092377777242 1.24296568256428 -0.36287123765061
|  8> O   -0.78460112034268 0.83688868578527 -2.39783095077543
|  9> O   0.5734383102035 -2.6883531994186 -1.56165822356716
| 10> O   -2.47755313628878 -1.56986345659769 1.06699137011824
| 11> N   0.59808129549871 -2.11082974199689 0.64048337391152
| 12> N   -1.85369070793643 0.58849599737366 1.43044378828067
| 13> N   1.6211974875431 -0.76394016416098 -0.92319857642978
| 14> N   -1.68486583196333 -0.31960553034804 -0.67226996638005
| 15> C   1.4366255812133 0.00481645827631 1.35158332634477
| 16> C   -0.85371434707979 1.91419125249085 -0.28201117458564
| 17> C   0.81718815452003 -1.1545958122921 1.60376306656267
| 18> C   -1.24317467087153 1.73923478189171 0.98544108379704
| 19> C   1.71236308335726 1.04866465635135 2.38364223871398
| 20> C   -0.1840263895519 3.14926550125698 -0.78967340390534
| 21> C   1.91426612321617 0.24698591472893 -0.01029408522203
| 22> C   -1.08649784756856 0.81903407649122 -1.2259419058629
| 23> C   0.90669652607623 -1.91916206315819 -0.68893079145195
| 24> C   -2.04700816368273 -0.51869920015871 0.63855028539866
| 25> H   0.44199598332105 -1.40521124142303 2.58453350965809
| 26> H   -1.10822893325617 2.5034227153899 1.73535689618652
| 27> H   1.35705795958272 2.02032072277534 2.04594206576113
| 28> H   1.23208251388974 0.79878770585596 3.32756072892052
| 29> H   2.78245728169068 1.15233681939223 2.55467394202849
| 30> H   -0.73851857483099 3.56601549183313 -1.62794078742942
| 31> H   -0.11369711544317 3.89833626741243 -0.00417495116782
| 32> H   0.81907952721988 2.91576722430002 -1.1398515301053
| 33> H   -0.02695728912013 -2.87602621597755 0.82728523304966
| 34> H   -2.10771408208103 0.47823966974773 2.39487153679208
| 35> H   1.83264381097881 -0.57097462676639 -1.89040377881437
| 36> H   -1.7932492060664 -1.11150837161913 -1.28947108217629
| 37> *
| 38>
| 39>                          ****END OF INPUT****

CARTESIAN COORDINATES (ANGSTROEM)
---------------------------------
  O      2.510924    1.242966   -0.362871
  O     -0.784601    0.836889   -2.397831
  O      0.573438   -2.688353   -1.561658
  O     -2.477553   -1.569863    1.066991
  N      0.598081   -2.110830    0.640483
  N     -1.853691    0.588496    1.430444
  N      1.621197   -0.763940   -0.923199
  N     -1.684866   -0.319606   -0.672270
  C      1.436626    0.004816    1.351583
  C     -0.853714    1.914191   -0.282011
  C      0.817188   -1.154596    1.603763
  C     -1.243175    1.739235    0.985441
  C      1.712363    1.048665    2.383642
  C     -0.184026    3.149266   -0.789673
  C      1.914266    0.246986   -0.010294
  C     -1.086498    0.819034   -1.225942
  C      0.906697   -1.919162   -0.688931
  C     -2.047008   -0.518699    0.638550
  H      0.441996   -1.405211    2.584534
  H     -1.108229    2.503423    1.735357
  H      1.357058    2.020321    2.045942
  H      1.232083    0.798788    3.327561
  H      2.782457    1.152337    2.554674
  H     -0.738519    3.566015   -1.627941
  H     -0.113697    3.898336   -0.004175
  H      0.819080    2.915767   -1.139852
  H     -0.026957   -2.876026    0.827285
  H     -2.107714    0.478240    2.394872
  H      1.832644   -0.570975   -1.890404
  H     -1.793249   -1.111508   -1.289471

 Total Charge           Charge          ....    0
 Multiplicity           Mult            ....    3
 Number of Electrons    NEL             ....  132
 Basis Dimension        Dim             ....  882

ORBITAL ENERGIES
----------------
                 SPIN UP ORBITALS
  NO   OCC          E(Eh)            E(eV)
   0   1.0000     -19.339483      -526.2541
   1   1.0000     -19.321966      -525.7774
   2   1.0000     -19.320167      -525.7285
   3   1.0000     -19.318739      -525.6896
   4   1.0000     -14.599613      -397.2757
   5   1.0000     -14.575872      -396.6296
   6   1.0000     -14.564111      -396.3096
   7   1.0000     -14.555467      -396.0744
   8   1.0000     -10.517186      -286.1872
   9   1.0000     -10.505910      -285.8803
  10   1.0000     -10.477180      -285.0986
  11   1.0000     -10.458288      -284.5845
  12   1.0000     -10.430654      -283.8325
  13   1.0000     -10.408650      -283.2338
  14   1.0000     -10.402591      -283.0689
  15   1.0000     -10.378804      -282.4216
  16   1.0000     -10.361107      -281.9401
  17   1.0000     -10.360807      -281.9319
  18   1.0000      -1.232645       -33.5420
  19   1.0000      -1.219569       -33.1861
  20   1.0000      -1.192514       -32.4499
  21   1.0000      -1.190593       -32.3977
  22   1.0000      -1.131057       -30.7776
  23   1.0000      -1.117096       -30.3977
  24   1.0000      -1.065466       -28.9928
  25   1.0000      -1.064439       -28.9648
  26   1.0000      -0.976993       -26.5853
  27   1.0000      -0.956344       -26.0234
  28   1.0000      -0.856399       -23.3038
  29   1.0000      -0.848252       -23.0821
  30   1.0000      -0.812941       -22.1212
  31   1.0000      -0.808010       -21.9871
  32   1.0000      -0.794748       -21.6262
  33   1.0000      -0.788457       -21.4550
  34   1.0000      -0.705363       -19.1939
  35   1.0000      -0.694824       -18.9071
  36   1.0000      -0.691935       -18.8285
  37   1.0000      -0.688289       -18.7293
  38   1.0000      -0.644531       -17.5386
  39   1.0000      -0.636024       -17.3071
  40   1.0000      -0.635011       -17.2795
  41   1.0000      -0.599455       -16.3120
  42   1.0000      -0.599005       -16.2998
  43   1.0000      -0.593212       -16.1421
  44   1.0000      -0.575648       -15.6642
  45   1.0000      -0.573824       -15.6145
  46   1.0000      -0.560497       -15.2519
  47   1.0000      -0.553468       -15.0606
  48   1.0000      -0.550657       -14.9841
  49   1.0000      -0.548821       -14.9342
  50   1.0000      -0.528293       -14.3756
  51   1.0000      -0.524809       -14.2808
  52   1.0000      -0.519952       -14.1486
  53   1.0000      -0.516921       -14.0661
  54   1.0000      -0.505634       -13.7590
  55   1.0000      -0.504059       -13.7161
  56   1.0000      -0.497299       -13.5322
  57   1.0000      -0.472382       -12.8542
  58   1.0000      -0.426884       -11.6161
  59   1.0000      -0.412971       -11.2375
  60   1.0000      -0.410353       -11.1663
  61   1.0000      -0.397132       -10.8065
  62   1.0000      -0.391433       -10.6514
  63   1.0000      -0.388189       -10.5632
  64   1.0000      -0.384870       -10.4728
  65   1.0000      -0.344574        -9.3763
  66   1.0000      -0.211857        -5.7649
  67   0.0000       0.011853         0.3225
  68   0.0000       0.021981         0.5981
  69   0.0000       0.033335         0.9071
  70   0.0000       0.039653         1.0790
  71   0.0000       0.040314         1.0970

                 SPIN DOWN ORBITALS
  NO   OCC          E(Eh)            E(eV)
   0   1.0000     -19.337650      -526.2042
   1   1.0000     -19.321900      -525.7756
   2   1.0000     -19.318698      -525.6885
   3   1.0000     -19.313806      -525.5554
   4   1.0000     -14.594973      -397.1494
   5   1.0000     -14.575837      -396.6287
   6   1.0000     -14.564112      -396.3096
   7   1.0000     -14.554513      -396.0484
   8   1.0000     -10.517508      -286.1959
   9   1.0000     -10.505919      -285.8806
  10   1.0000     -10.477187      -285.0987
  11   1.0000     -10.457847      -284.5725
  12   1.0000     -10.430616      -283.8315
  13   1.0000     -10.399279      -282.9788
  14   1.0000     -10.392063      -282.7824
  15   1.0000     -10.378793      -282.4213
  16   1.0000     -10.361206      -281.9428
  17   1.0000     -10.360978      -281.9365
  18   1.0000      -1.228582       -33.4314
  19   1.0000      -1.219391       -33.1813
  20   1.0000      -1.190699       -32.4006
  21   1.0000      -1.182832       -32.1865
  22   1.0000      -1.120563       -30.4921
  23   1.0000      -1.116955       -30.3939
  24   1.0000      -1.064400       -28.9638
  25   1.0000      -1.060068       -28.8459
  26   1.0000      -0.956905       -26.0387
  27   1.0000      -0.951284       -25.8858
  28   1.0000      -0.848692       -23.0941
  29   1.0000      -0.844436       -22.9783
  30   1.0000      -0.808541       -22.0015
  31   1.0000      -0.802450       -21.8358
  32   1.0000      -0.788480       -21.4556
  33   1.0000      -0.787238       -21.4218
  34   1.0000      -0.693708       -18.8768
  35   1.0000      -0.691946       -18.8288
  36   1.0000      -0.688326       -18.7303
  37   1.0000      -0.686351       -18.6766
  38   1.0000      -0.637226       -17.3398
  39   1.0000      -0.632608       -17.2141
  40   1.0000      -0.628120       -17.0920
  41   1.0000      -0.594130       -16.1671
  42   1.0000      -0.591285       -16.0897
  43   1.0000      -0.588986       -16.0271
  44   1.0000      -0.568769       -15.4770
  45   1.0000      -0.561097       -15.2682
  46   1.0000      -0.558307       -15.1923
  47   1.0000      -0.550125       -14.9697
  48   1.0000      -0.543001       -14.7758
  49   1.0000      -0.539471       -14.6798
  50   1.0000      -0.519760       -14.1434
  51   1.0000      -0.519156       -14.1270
  52   1.0000      -0.514291       -13.9946
  53   1.0000      -0.505662       -13.7598
  54   1.0000      -0.505176       -13.7465
  55   1.0000      -0.500065       -13.6075
  56   1.0000      -0.471114       -12.8197
  57   1.0000      -0.454419       -12.3654
  58   1.0000      -0.422856       -11.5065
  59   1.0000      -0.412251       -11.2179
  60   1.0000      -0.397261       -10.8100
  61   1.0000      -0.386106       -10.5065
  62   1.0000      -0.384762       -10.4699
  63   1.0000      -0.379653       -10.3309
  64   1.0000      -0.343439        -9.3455
  65   0.0000      -0.109184        -2.9710
  66   0.0000       0.011584         0.3152
  67   0.0000       0.023334         0.6350
  68   0.0000       0.032144         0.8747
  69   0.0000       0.038488         1.0473

----------------------------------------------------------------------------------------------------
          SPIN FLIP ABSORPTION SPECTRUM VIA TRANSITION ELECTRIC DIPOLE MOMENTS
----------------------------------------------------------------------------------------------------
     Transition      Energy     Energy  Wavelength fosc(D2)      D2        DX        DY        DZ
                      (eV)      (cm-1)    (nm)                 (au**2)    (au)      (au)      (au)
----------------------------------------------------------------------------------------------------
  1-3A  ->  2-3A    4.264217   34393.2   290.8   0.001331154   0.01274   0.01760  -0.03790  -0.10486

Dispersion correction             ... done (  0.1 sec)

MULLIKEN ATOMIC CHARGES AND SPIN DENSITIES
------------------------------------------
   0 O :   -0.684103   -0.000697
   1 O :   -0.684016    0.007374
   2 O :   -0.645181   -0.000077
   3 O :   -0.645186    0.002513
   4 N :   -0.046827   -0.001281
   5 N :    0.107759    0.031705
   6 N :    0.060767   -0.004182
   7 N :    0.023241   -0.011419
   8 C :    0.768394   -0.037630
   9 C :    1.294673    0.069940
  10 C :    0.091678    0.016744
  11 C :   -0.598614    0.030426
  12 C :   -1.460050   -0.002642
  13 C :   -1.299588   -0.020616
  14 C :    0.319822    0.022367
  15 C :    0.216462   -0.133220
  16 C :    0.353982    0.000096
  17 C :    0.454504   -0.004404
  18 H :    0.165767    0.002025
  19 H :    0.145239    0.007873
  20 H :    0.240080   -0.001768
  21 H :    0.335284    0.000892
  22 H :    0.369547   -0.000647
  23 H :    0.354095    0.008502
  24 H :    0.335785   -0.001970
  25 H :    0.254208    0.018460
  26 H :    0.058722    0.000184
  27 H :    0.041040   -0.000661
  28 H :    0.040959   -0.000200
  29 H :    0.031558    0.002310
Sum of atomic charges       :   -0.0000000

LOEWDIN ATOMIC CHARGES AND SPIN DENSITIES
-----------------------------------------
   0 O :    0.085460   -0.000312
   1 O :    0.080920    0.005827
   2 O :    0.088122   -0.000170
   3 O :    0.092731    0.001816
   4 N :    0.279133   -0.000135
   5 N :    0.314604    0.020723
   6 N :    0.345976   -0.000189
   7 N :    0.320270   -0.007052
   8 C :   -0.144211   -0.000545
   9 C :   -0.094449    0.006369
  10 C :    0.043792   -0.000029
  11 C :    0.001281   -0.012930
  12 C :    0.170721   -0.000867
  13 C :    0.219431    0.001872
  14 C :   -0.395356    0.000071
  15 C :   -0.433622   -0.007871
  16 C :   -0.483836   -0.000042
  17 C :   -0.481835   -0.003020
  18 H :    0.040963    0.000018
  19 H :    0.004521   -0.006068
  20 H :   -0.017004   -0.000251
  21 H :   -0.005123   -0.000035
  22 H :    0.001695   -0.000198
  23 H :    0.013380    0.000884
  24 H :   -0.002377   -0.000322
  25 H :   -0.001333    0.001126
  26 H :   -0.020281   -0.000018
  27 H :   -0.007932    0.002191
  28 H :   -0.002267   -0.000052
  29 H :   -0.013376   -0.000793

  Mayer bond orders larger than 0.100000
B(  0-O , 14-C ) :   1.4623 B(  1-O , 15-C ) :   1.2688 B(  2-O , 16-C ) :   1.5587
B(  3-O , 17-C ) :   1.5332 B(  4-N , 10-C ) :   0.8382 B(  4-N , 16-C ) :   1.0199
B(  4-N , 26-H ) :   1.1096 B(  5-N , 11-C ) :   0.9223 B(  5-N , 17-C ) :   0.9824
B(  5-N , 27-H ) :   1.0958 B(  6-N , 14-C ) :   1.0314 B(  6-N , 16-C ) :   0.9067
B(  6-N , 28-H ) :   1.1030 B(  7-N , 15-C ) :   0.8219 B(  7-N , 16-C ) :   0.1136
B(  7-N , 17-C ) :   0.9582 B(  7-N , 29-H ) :   1.1245 B(  8-C , 10-C ) :   1.0995
B(  8-C , 12-C ) :   0.3643 B(  8-C , 14-C ) :   0.7368 B(  9-C , 11-C ) :   0.4715
B(  9-C , 13-C ) :   0.3866 B(  9-C , 15-C ) :   0.8430 B(  9-C , 19-H ) :  -0.1400
B(  9-C , 24-H ) :  -0.1135 B( 10-C , 12-C ) :  -0.1720 B( 10-C , 18-H ) :   1.1301
B( 11-C , 13-C ) :  -0.1497 B( 11-C , 19-H ) :   1.2010 B( 12-C , 20-H ) :   1.0133
B( 12-C , 21-H ) :   1.0067 B( 12-C , 22-H ) :   0.9014 B( 13-C , 23-H ) :   0.8809
B( 13-C , 24-H ) :   1.0275 B( 13-C , 25-H ) :   0.9374

Dispersion correction           -0.059657299
FINAL SINGLE POINT ENERGY      -908.770926434053

DIPOLE MOMENT
-------------

Method             : TDA/CIS
Type of density    : Electron Density
Level              : Relaxed density
State              :   2
Multiplicity       :   3
Irrep              :   0
Energy             :     0.0000000000000000 Eh
Relativity type    :
Basis              : AO
                                X                 Y                 Z
Electronic contribution:     -2.871648284      -9.603810158      -5.801802890
Nuclear contribution   :      2.508368337      10.434648562       8.353516192
                        -----------------------------------------
Total Dipole Moment    :     -0.363279947       0.830838404       2.551713303
                        -----------------------------------------
Magnitude (a.u.)       :      2.708044599
Magnitude (Debye)      :      6.883302346

Rotational constants in cm-1:             0.016937             0.016160             0.014083
Rotational constants in MHz :           507.769516           484.464440           422.209944

                             ****ORCA TERMINATED NORMALLY****
TOTAL RUN TIME: 0 days 0 hours 7 minutes 50 seconds 240 msec
