                         Program Version 6.0.0  -   RELEASE  -
|  1> ! Opt wB97M-D3BJ def2-TZVPPD
|  2> %pal nprocs 8 end %pal nprocs 64 end
|  3> %geom
|  4> Constraints
|  5>     {A 2 1 0 92.72727272727272 C }
|  6> end
|  7> MaxIter 500
|  8> end
|  9> *xyz 0 1
| 10> O   -0.0007 0.8141 0.0
| 11> C   0.7509 -0.4065 0.0
| 12> C   -0.7502 -0.4076 0.0
| 13> H   1.2625 -0.6786 0.9136
| 14> H   1.2625 -0.6787 -0.9136
| 15> H   -1.2614 -0.6806 -0.9136
| 16> H   -1.2614 -0.6805 0.9136
| 17> *
| 18>
| 19>                          ****END OF INPUT****
 Total Charge           Charge          ....    0
 Multiplicity           Mult            ....    1
 Number of Electrons    NEL             ....   24
Dispersion correction           -0.005685064
FINAL SINGLE POINT ENERGY      -153.781997845538
Dispersion correction             ... done (  0.2 sec)
Dispersion correction           -0.005670195
FINAL SINGLE POINT ENERGY      -153.806376090770
Dispersion correction             ... done (  0.2 sec)
Dispersion correction           -0.005650387
FINAL SINGLE POINT ENERGY      -153.814169036690
Dispersion correction             ... done (  0.2 sec)
FINAL SINGLE POINT ENERGY      -153.816956582103
FINAL SINGLE POINT ENERGY      -153.817611684323
FINAL SINGLE POINT ENERGY      -153.817817256564
FINAL SINGLE POINT ENERGY      -153.817931296954
FINAL SINGLE POINT ENERGY      -153.817989653574
FINAL SINGLE POINT ENERGY      -153.818023441232
FINAL SINGLE POINT ENERGY      -153.818040842729
Dispersion correction             ... done (  0.2 sec)
Dispersion correction           -0.005671375
FINAL SINGLE POINT ENERGY      -153.818046384002
Dispersion correction             ... done (  0.2 sec)
Dispersion correction           -0.005670719
FINAL SINGLE POINT ENERGY      -153.818047809698
Dispersion correction             ... done (  0.1 sec)
                    ***********************HURRAY********************

CARTESIAN COORDINATES (ANGSTROEM)
---------------------------------
  O      0.321109    0.999910   -0.002331
  C      0.632304   -0.303015   -0.000460
  C     -0.739079   -0.700407    0.000629
  H      1.188627   -0.636343    0.885906
  H      1.188696   -0.638805   -0.885802
  H     -1.295332   -0.721603   -0.924608
  H     -1.294124   -0.718137    0.926667

 Multiplicity           Mult            ....    1
 Number of Electrons    NEL             ....   24
 Basis Dimension        Dim             ....  182

ORBITAL ENERGIES
----------------

  NO   OCC          E(Eh)            E(eV)
   0   2.0000     -19.335255      -526.1390
   1   2.0000     -10.435264      -283.9580
   2   2.0000     -10.396980      -282.9162
   3   2.0000      -1.139758       -31.0144
   4   2.0000      -0.872121       -23.7316
   5   2.0000      -0.734295       -19.9812
   6   2.0000      -0.625040       -17.0082
   7   2.0000      -0.578089       -15.7306
   8   2.0000      -0.516398       -14.0519
   9   2.0000      -0.508761       -13.8441
  10   2.0000      -0.380797       -10.3620
  11   2.0000      -0.360344        -9.8054
  12   0.0000      -0.031027        -0.8443
  13   0.0000       0.039090         1.0637
  14   0.0000       0.060939         1.6582
  15   0.0000       0.076585         2.0840
  16   0.0000       0.098013         2.6671

MULLIKEN ATOMIC CHARGES
-----------------------
   0 O :   -0.494150
   1 C :   -0.087912
   2 C :   -0.290797
   3 H :    0.217889
   4 H :    0.217973
   5 H :    0.218464
   6 H :    0.218532
Sum of atomic charges:    0.0000000

LOEWDIN ATOMIC CHARGES
----------------------
   0 O :   -0.015982
   1 C :   -0.368357
   2 C :    0.351061
   3 H :    0.023983
   4 H :    0.023983
   5 H :   -0.007341
   6 H :   -0.007347

  Mayer bond orders larger than 0.100000
B(  0-O ,  1-C ) :   0.6809 B(  0-O ,  2-C ) :   0.9378 B(  1-C ,  2-C ) :   0.7692
B(  1-C ,  3-H ) :   1.0462 B(  1-C ,  4-H ) :   1.0461 B(  2-C ,  5-H ) :   0.9645
B(  2-C ,  6-H ) :   0.9645

Dispersion correction           -0.005670601
FINAL SINGLE POINT ENERGY      -153.818048125508

DIPOLE MOMENT
-------------

Method             : SCF
Type of density    : Electron Density
Multiplicity       :   1
Irrep              :   0
Energy             :  -153.8123775242995919 Eh
Relativity type    :
Basis              : AO
                                X                 Y                 Z
Electronic contribution:      0.071767118       1.422926483      -0.002818131
Nuclear contribution   :     -0.505664876      -2.635638634       0.004823049
                        -----------------------------------------
Total Dipole Moment    :     -0.433897758      -1.212712151       0.002004918
                        -----------------------------------------
Magnitude (a.u.)       :      1.287999241
Magnitude (Debye)      :      3.273833895

Rotational constants in cm-1:             1.092385             0.482355             0.385213
Rotational constants in MHz :         32748.887902         14460.626564         11548.389817

                             ****ORCA TERMINATED NORMALLY****
TOTAL RUN TIME: 0 days 0 hours 3 minutes 1 seconds 53 msec
