                         Program Version 6.0.0  -   RELEASE  -
|  1> ! Engrad def2-TZVPPD wB97M-D3BJ
|  2> %pal nprocs 8 end%pal nprocs 64 end
|  3> %tddft
|  4>  Iroot 2 Nroots 3
|  5> sf true
|  6> end
|  7> *xyz 0 3
|  8> O   3.38970657 0.87717523 -0.14164703
|  9> O   -0.77401827 0.69051952 -2.62789143
| 10> O   0.5475401 -2.52736778 -0.91161909
| 11> O   -3.2782861 -1.83183782 0.31169762
| 12> N   0.45435374 -1.33459747 0.95013507
| 13> N   -2.12969632 -0.08433999 1.08454853
| 14> N   1.85227268 -0.61297202 -0.79338409
| 15> N   -2.11939436 -0.57647884 -1.1946996
| 16> C   1.60532991 0.68823908 1.34448787
| 17> C   -0.84062598 1.25710807 -0.396577
| 18> C   0.31605737 -0.07354759 1.53861933
| 19> C   -1.00049096 0.74241664 1.00290308
| 20> C   2.26391039 1.56894742 2.2556197
| 21> C   0.01800534 2.40962963 -0.76666269
| 22> C   2.34522216 0.3161425 0.11386535
| 23> C   -1.24792641 0.49482234 -1.5013764
| 24> C   0.94357574 -1.5262903 -0.38435584
| 25> C   -2.54341679 -0.92617714 0.0624852
| 26> H   0.16247243 -0.16897063 2.59913736
| 27> H   -1.20504126 1.71627661 1.58917747
| 28> H   1.58715363 2.0061829 2.95903747
| 29> H   3.16445966 1.14841479 2.71919611
| 30> H   2.60695245 2.40085493 1.6996463
| 31> H   -0.43458046 3.0612544 -1.43868932
| 32> H   0.12501676 3.06866118 0.19360097
| 33> H   0.97337668 2.27101489 -1.3189851
| 34> H   -0.33336596 -1.93269067 1.19177247
| 35> H   -2.3382496 -0.59053558 1.92470455
| 36> H   2.45893106 -0.92840276 -1.6222306
| 37> H   -2.26799366 -1.23005519 -1.90743407
| 38> *
| 39>
| 40>                          ****END OF INPUT****

CARTESIAN COORDINATES (ANGSTROEM)
---------------------------------
  O      3.389707    0.877175   -0.141647
  O     -0.774018    0.690520   -2.627891
  O      0.547540   -2.527368   -0.911619
  O     -3.278286   -1.831838    0.311698
  N      0.454354   -1.334597    0.950135
  N     -2.129696   -0.084340    1.084549
  N      1.852273   -0.612972   -0.793384
  N     -2.119394   -0.576479   -1.194700
  C      1.605330    0.688239    1.344488
  C     -0.840626    1.257108   -0.396577
  C      0.316057   -0.073548    1.538619
  C     -1.000491    0.742417    1.002903
  C      2.263910    1.568947    2.255620
  C      0.018005    2.409630   -0.766663
  C      2.345222    0.316142    0.113865
  C     -1.247926    0.494822   -1.501376
  C      0.943576   -1.526290   -0.384356
  C     -2.543417   -0.926177    0.062485
  H      0.162472   -0.168971    2.599137
  H     -1.205041    1.716277    1.589177
  H      1.587154    2.006183    2.959037
  H      3.164460    1.148415    2.719196
  H      2.606952    2.400855    1.699646
  H     -0.434580    3.061254   -1.438689
  H      0.125017    3.068661    0.193601
  H      0.973377    2.271015   -1.318985
  H     -0.333366   -1.932691    1.191772
  H     -2.338250   -0.590536    1.924705
  H      2.458931   -0.928403   -1.622231
  H     -2.267994   -1.230055   -1.907434

 Total Charge           Charge          ....    0
 Multiplicity           Mult            ....    3
 Number of Electrons    NEL             ....  132
 Basis Dimension        Dim             ....  882

ORBITAL ENERGIES
----------------
                 SPIN UP ORBITALS
  NO   OCC          E(Eh)            E(eV)
   0   1.0000     -19.335587      -526.1481
   1   1.0000     -19.335369      -526.1421
   2   1.0000     -19.324980      -525.8594
   3   1.0000     -19.320252      -525.7308
   4   1.0000     -14.579847      -396.7378
   5   1.0000     -14.559995      -396.1976
   6   1.0000     -14.553943      -396.0329
   7   1.0000     -14.550699      -395.9447
   8   1.0000     -10.507329      -285.9190
   9   1.0000     -10.501294      -285.7547
  10   1.0000     -10.483646      -285.2745
  11   1.0000     -10.476831      -285.0891
  12   1.0000     -10.444345      -284.2051
  13   1.0000     -10.436207      -283.9836
  14   1.0000     -10.417050      -283.4623
  15   1.0000     -10.413681      -283.3707
  16   1.0000     -10.371055      -282.2108
  17   1.0000     -10.365770      -282.0669
  18   1.0000      -1.229576       -33.4585
  19   1.0000      -1.225221       -33.3400
  20   1.0000      -1.205043       -32.7909
  21   1.0000      -1.191414       -32.4200
  22   1.0000      -1.121937       -30.5294
  23   1.0000      -1.104719       -30.0609
  24   1.0000      -1.075164       -29.2567
  25   1.0000      -1.060814       -28.8662
  26   1.0000      -0.973447       -26.4888
  27   1.0000      -0.957252       -26.0481
  28   1.0000      -0.880320       -23.9547
  29   1.0000      -0.843730       -22.9591
  30   1.0000      -0.824687       -22.4409
  31   1.0000      -0.802601       -21.8399
  32   1.0000      -0.783581       -21.3223
  33   1.0000      -0.780252       -21.2317
  34   1.0000      -0.699765       -19.0416
  35   1.0000      -0.693379       -18.8678
  36   1.0000      -0.688836       -18.7442
  37   1.0000      -0.673340       -18.3225
  38   1.0000      -0.660228       -17.9657
  39   1.0000      -0.640110       -17.4183
  40   1.0000      -0.616871       -16.7859
  41   1.0000      -0.606252       -16.4969
  42   1.0000      -0.596845       -16.2410
  43   1.0000      -0.586841       -15.9688
  44   1.0000      -0.576309       -15.6822
  45   1.0000      -0.571821       -15.5601
  46   1.0000      -0.567372       -15.4390
  47   1.0000      -0.566314       -15.4102
  48   1.0000      -0.561997       -15.2927
  49   1.0000      -0.556336       -15.1387
  50   1.0000      -0.549697       -14.9580
  51   1.0000      -0.538662       -14.6577
  52   1.0000      -0.528026       -14.3683
  53   1.0000      -0.519514       -14.1367
  54   1.0000      -0.505194       -13.7470
  55   1.0000      -0.497475       -13.5370
  56   1.0000      -0.487837       -13.2747
  57   1.0000      -0.425698       -11.5838
  58   1.0000      -0.422539       -11.4979
  59   1.0000      -0.413689       -11.2570
  60   1.0000      -0.407421       -11.0865
  61   1.0000      -0.400280       -10.8922
  62   1.0000      -0.396775       -10.7968
  63   1.0000      -0.393351       -10.7036
  64   1.0000      -0.380082       -10.3426
  65   1.0000      -0.344433        -9.3725
  66   1.0000      -0.322215        -8.7679
  67   0.0000       0.011719         0.3189
  68   0.0000       0.031272         0.8509
  69   0.0000       0.034021         0.9258
  70   0.0000       0.036803         1.0014
  71   0.0000       0.055482         1.5097

                 SPIN DOWN ORBITALS
  NO   OCC          E(Eh)            E(eV)
   0   1.0000     -19.331307      -526.0316
   1   1.0000     -19.330359      -526.0058
   2   1.0000     -19.324828      -525.8553
   3   1.0000     -19.320170      -525.7285
   4   1.0000     -14.579577      -396.7304
   5   1.0000     -14.559292      -396.1785
   6   1.0000     -14.553710      -396.0266
   7   1.0000     -14.550385      -395.9361
   8   1.0000     -10.507371      -285.9201
   9   1.0000     -10.501354      -285.7564
  10   1.0000     -10.484561      -285.2994
  11   1.0000     -10.477758      -285.1143
  12   1.0000     -10.444063      -284.1974
  13   1.0000     -10.435676      -283.9692
  14   1.0000     -10.405668      -283.1526
  15   1.0000     -10.402910      -283.0776
  16   1.0000     -10.371579      -282.2250
  17   1.0000     -10.366341      -282.0825
  18   1.0000      -1.228190       -33.4207
  19   1.0000      -1.224183       -33.3117
  20   1.0000      -1.200358       -32.6634
  21   1.0000      -1.184411       -32.2295
  22   1.0000      -1.119388       -30.4601
  23   1.0000      -1.102566       -30.0024
  24   1.0000      -1.073079       -29.2000
  25   1.0000      -1.059171       -28.8215
  26   1.0000      -0.958827       -26.0910
  27   1.0000      -0.940667       -25.5969
  28   1.0000      -0.875872       -23.8337
  29   1.0000      -0.838312       -22.8116
  30   1.0000      -0.816648       -22.2221
  31   1.0000      -0.797750       -21.7079
  32   1.0000      -0.782193       -21.2845
  33   1.0000      -0.778657       -21.1883
  34   1.0000      -0.694089       -18.8871
  35   1.0000      -0.687744       -18.7145
  36   1.0000      -0.682909       -18.5829
  37   1.0000      -0.667284       -18.1577
  38   1.0000      -0.649107       -17.6631
  39   1.0000      -0.635833       -17.3019
  40   1.0000      -0.613782       -16.7019
  41   1.0000      -0.598860       -16.2958
  42   1.0000      -0.591310       -16.0904
  43   1.0000      -0.582554       -15.8521
  44   1.0000      -0.568012       -15.4564
  45   1.0000      -0.563286       -15.3278
  46   1.0000      -0.562163       -15.2972
  47   1.0000      -0.559752       -15.2316
  48   1.0000      -0.553264       -15.0551
  49   1.0000      -0.545686       -14.8489
  50   1.0000      -0.540614       -14.7108
  51   1.0000      -0.533140       -14.5075
  52   1.0000      -0.517603       -14.0847
  53   1.0000      -0.512782       -13.9535
  54   1.0000      -0.493989       -13.4421
  55   1.0000      -0.492390       -13.3986
  56   1.0000      -0.483722       -13.1628
  57   1.0000      -0.421364       -11.4659
  58   1.0000      -0.415247       -11.2994
  59   1.0000      -0.407644       -11.0926
  60   1.0000      -0.396771       -10.7967
  61   1.0000      -0.391518       -10.6537
  62   1.0000      -0.389075       -10.5873
  63   1.0000      -0.387822       -10.5532
  64   1.0000      -0.369154       -10.0452
  65   0.0000      -0.064435        -1.7534
  66   0.0000      -0.048582        -1.3220
  67   0.0000       0.011357         0.3090
  68   0.0000       0.030930         0.8416
  69   0.0000       0.033954         0.9239

----------------------------------------------------------------------------------------------------
          SPIN FLIP ABSORPTION SPECTRUM VIA TRANSITION ELECTRIC DIPOLE MOMENTS
----------------------------------------------------------------------------------------------------
     Transition      Energy     Energy  Wavelength fosc(D2)      D2        DX        DY        DZ
                      (eV)      (cm-1)    (nm)                 (au**2)    (au)      (au)      (au)
----------------------------------------------------------------------------------------------------
  1-3A  ->  2-3A    0.076421     616.4  16223.7   0.000007501   0.00401  -0.06226   0.00804  -0.00805
  1-3A  ->  3-3A    2.094402   16892.5   592.0   0.002260766   0.04406   0.06890   0.02886   0.19616

Dispersion correction             ... done (  0.2 sec)

MULLIKEN ATOMIC CHARGES AND SPIN DENSITIES
------------------------------------------
   0 O :   -0.681596   -0.117517
   1 O :   -0.675846    0.138384
   2 O :   -0.642565   -0.002598
   3 O :   -0.623751   -0.000068
   4 N :   -0.346190   -0.008592
   5 N :   -0.315627    0.012040
   6 N :    0.082798    0.002944
   7 N :    0.038524    0.021862
   8 C :    0.875657    0.339482
   9 C :    0.347937    0.376891
  10 C :   -0.025387   -0.415879
  11 C :    0.354167   -0.027308
  12 C :   -1.431643    0.062918
  13 C :   -1.439159   -0.028608
  14 C :   -0.084967   -0.470285
  15 C :    0.374559    0.054683
  16 C :    0.304372    0.033453
  17 C :    0.423226   -0.003012
  18 H :    0.578971   -0.019221
  19 H :    0.460392    0.013096
  20 H :    0.356561   -0.000342
  21 H :    0.324859   -0.021254
  22 H :    0.363220   -0.001092
  23 H :    0.428066    0.014289
  24 H :    0.346186    0.003030
  25 H :    0.199866    0.033866
  26 H :    0.137286    0.004132
  27 H :    0.098970   -0.000728
  28 H :    0.178406    0.005665
  29 H :   -0.007291   -0.000230
Sum of atomic charges       :    0.0000000

LOEWDIN ATOMIC CHARGES AND SPIN DENSITIES
-----------------------------------------
   0 O :    0.079228   -0.100400
   1 O :    0.088618    0.118610
   2 O :    0.104379   -0.001958
   3 O :    0.110641   -0.000231
   4 N :    0.262528   -0.006867
   5 N :    0.255714   -0.005177
   6 N :    0.313637   -0.001261
   7 N :    0.360954    0.019290
   8 C :   -0.011204   -0.345935
   9 C :   -0.046444    0.339471
  10 C :   -0.123466   -0.013975
  11 C :   -0.114823    0.020199
  12 C :    0.179581   -0.064602
  13 C :    0.177980    0.043848
  14 C :   -0.417322   -0.063044
  15 C :   -0.388534    0.060376
  16 C :   -0.483125    0.001395
  17 C :   -0.502463    0.000262
  18 H :    0.041069   -0.000754
  19 H :    0.091576    0.010303
  20 H :   -0.003230   -0.000468
  21 H :    0.036652   -0.020415
  22 H :   -0.014267   -0.012086
  23 H :   -0.044696    0.009934
  24 H :    0.054996   -0.001995
  25 H :    0.027180    0.015064
  26 H :   -0.029497   -0.000829
  27 H :   -0.037088   -0.000877
  28 H :    0.074341    0.000081
  29 H :   -0.042915    0.002042

  Mayer bond orders larger than 0.100000
B(  0-O , 14-C ) :   1.4058 B(  1-O , 15-C ) :   1.3528 B(  2-O , 16-C ) :   1.5216
B(  3-O , 17-C ) :   1.5592 B(  4-N ,  8-C ) :   0.3690 B(  4-N , 10-C ) :   0.1123
B(  4-N , 16-C ) :   0.9849 B(  4-N , 18-H ) :  -0.1610 B(  4-N , 26-H ) :   0.9512
B(  5-N ,  9-C ) :   0.2570 B(  5-N , 17-C ) :   1.1289 B(  5-N , 27-H ) :   1.0116
B(  6-N , 14-C ) :   1.0285 B(  6-N , 16-C ) :   1.0280 B(  6-N , 28-H ) :   0.9874
B(  7-N ,  9-C ) :  -0.1469 B(  7-N , 11-C ) :   0.1373 B(  7-N , 15-C ) :   1.0015
B(  7-N , 17-C ) :   0.8993 B(  7-N , 29-H ) :   1.1411 B(  8-C , 10-C ) :   0.5947
B(  8-C , 11-C ) :   0.3057 B(  8-C , 12-C ) :   0.2946 B(  8-C , 14-C ) :   0.3888
B(  8-C , 16-C ) :   0.1471 B(  8-C , 20-H ) :  -0.1076 B(  9-C , 10-C ) :   0.1455
B(  9-C , 11-C ) :   0.2881 B(  9-C , 13-C ) :   0.2082 B(  9-C , 15-C ) :   0.8620
B(  9-C , 19-H ) :  -0.1915 B(  9-C , 24-H ) :  -0.1537 B( 10-C , 11-C ) :   0.4952
B( 10-C , 14-C ) :   0.2741 B( 10-C , 16-C ) :  -0.1674 B( 10-C , 18-H ) :   0.7538
B( 11-C , 17-C ) :  -0.1462 B( 11-C , 19-H ) :   0.9509 B( 12-C , 20-H ) :   0.9572
B( 12-C , 21-H ) :   0.8838 B( 12-C , 22-H ) :   0.9070 B( 13-C , 23-H ) :   0.8970
B( 13-C , 24-H ) :   0.9925 B( 13-C , 25-H ) :   0.9862 B( 14-C , 16-C ) :  -0.1670

Dispersion correction           -0.060153930
FINAL SINGLE POINT ENERGY      -908.759983067018

DIPOLE MOMENT
-------------

Method             : TDA/CIS
Type of density    : Electron Density
Level              : Relaxed density
State              :   2
Multiplicity       :   3
Irrep              :   0
Energy             :     0.0000000000000000 Eh
Relativity type    :
Basis              : AO
                                X                 Y                 Z
Electronic contribution:     -4.085588102      -9.169181872      -6.247277488
Nuclear contribution   :      4.306479363      10.583662350       8.248136045
                        -----------------------------------------
Total Dipole Moment    :      0.220891261       1.414480478       2.000858557
                        -----------------------------------------
Magnitude (a.u.)       :      2.460281069
Magnitude (Debye)      :      6.253537500

Rotational constants in cm-1:             0.022839             0.012774             0.012732
Rotational constants in MHz :           684.693173           382.954015           381.689232

                             ****ORCA TERMINATED NORMALLY****
TOTAL RUN TIME: 0 days 0 hours 9 minutes 43 seconds 33 msec
