                         Program Version 6.0.0  -   RELEASE  -
|  1> ! Engrad def2-TZVPPD wB97M-D3BJ
|  2> %pal nprocs 8 end%pal nprocs 32 end
|  3> %tddft Nroots 2 Iroot 1
|  4> sf true
|  5> end
|  6> *xyz 0 3
|  7> O   -0.06720622 1.13490808 0.34774549
|  8> C   0.59307372 -0.11826416 0.08164231
|  9> C   -0.32136745 -1.02768568 -0.51061203
| 10> H   0.78993859 -0.49071885 1.14444368
| 11> H   1.55720498 0.07582186 -0.336263
| 12> H   -1.29790766 -1.23874378 0.04012401
| 13> H   -0.13984974 -1.71510509 -1.29651031
| 14> *
| 15>
| 16>                          ****END OF INPUT****

CARTESIAN COORDINATES (ANGSTROEM)
---------------------------------
  O     -0.067206    1.134908    0.347745
  C      0.593074   -0.118264    0.081642
  C     -0.321367   -1.027686   -0.510612
  H      0.789939   -0.490719    1.144444
  H      1.557205    0.075822   -0.336263
  H     -1.297908   -1.238744    0.040124
  H     -0.139850   -1.715105   -1.296510

 Total Charge           Charge          ....    0
 Multiplicity           Mult            ....    3
 Number of Electrons    NEL             ....   24
 Basis Dimension        Dim             ....  182

ORBITAL ENERGIES
----------------
                 SPIN UP ORBITALS
  NO   OCC          E(Eh)            E(eV)
   0   1.0000     -19.387795      -527.5687
   1   1.0000     -10.413554      -283.3672
   2   1.0000     -10.370227      -282.1882
   3   1.0000      -1.146098       -31.1869
   4   1.0000      -0.890186       -24.2232
   5   1.0000      -0.734490       -19.9865
   6   1.0000      -0.612735       -16.6734
   7   1.0000      -0.590940       -16.0803
   8   1.0000      -0.547548       -14.8995
   9   1.0000      -0.501889       -13.6571
  10   1.0000      -0.444319       -12.0905
  11   1.0000      -0.421410       -11.4672
  12   1.0000      -0.323403        -8.8002
  13   0.0000       0.040621         1.1053
  14   0.0000       0.061066         1.6617
  15   0.0000       0.077853         2.1185
  16   0.0000       0.087547         2.3823
  17   0.0000       0.111795         3.0421

                 SPIN DOWN ORBITALS
  NO   OCC          E(Eh)            E(eV)
   0   1.0000     -19.362566      -526.8822
   1   1.0000     -10.415010      -283.4068
   2   1.0000     -10.357017      -281.8288
   3   1.0000      -1.088291       -29.6139
   4   1.0000      -0.856864       -23.3165
   5   1.0000      -0.709456       -19.3053
   6   1.0000      -0.595372       -16.2009
   7   1.0000      -0.546532       -14.8719
   8   1.0000      -0.517721       -14.0879
   9   1.0000      -0.477429       -12.9915
  10   1.0000      -0.388945       -10.5837
  11   0.0000      -0.047043        -1.2801
  12   0.0000      -0.004361        -0.1187
  13   0.0000       0.040196         1.0938
  14   0.0000       0.061062         1.6616
  15   0.0000       0.077973         2.1218

----------------------------------------------------------------------------------------------------
          SPIN FLIP ABSORPTION SPECTRUM VIA TRANSITION ELECTRIC DIPOLE MOMENTS
----------------------------------------------------------------------------------------------------
     Transition      Energy     Energy  Wavelength fosc(D2)      D2        DX        DY        DZ
                      (eV)      (cm-1)    (nm)                 (au**2)    (au)      (au)      (au)
----------------------------------------------------------------------------------------------------
  1-3A  ->  2-3A    0.069509     560.6  17837.1   0.000016105   0.00946  -0.03857  -0.08184  -0.03565

Dispersion correction             ... done (  0.1 sec)

MULLIKEN ATOMIC CHARGES AND SPIN DENSITIES
------------------------------------------
   0 O :   -0.444139   -0.592767
   1 C :    0.008183   -0.034172
   2 C :   -0.499424    0.526140
   3 H :    0.215146    0.077046
   4 H :    0.241513   -0.044198
   5 H :    0.224699    0.032191
   6 H :    0.254022    0.035760
Sum of atomic charges       :   -0.0000000

LOEWDIN ATOMIC CHARGES AND SPIN DENSITIES
-----------------------------------------
   0 O :   -0.090115   -0.594081
   1 C :   -0.260134    0.041264
   2 C :    0.308350    0.455809
   3 H :    0.059797    0.024065
   4 H :    0.012946   -0.028144
   5 H :    0.020407    0.044023
   6 H :   -0.051252    0.057066

  Mayer bond orders larger than 0.100000
B(  0-O ,  1-C ) :   0.8052 B(  0-O ,  2-C ) :   0.4264 B(  1-C ,  2-C ) :   0.8451
B(  1-C ,  3-H ) :   0.9697 B(  1-C ,  4-H ) :   0.9251 B(  2-C ,  5-H ) :   0.9894
B(  2-C ,  6-H ) :   0.9320

Dispersion correction           -0.005518740
FINAL SINGLE POINT ENERGY      -153.746010522279

DIPOLE MOMENT
-------------

Method             : TDA/CIS
Type of density    : Electron Density
Level              : Relaxed density
State              :   1
Multiplicity       :   3
Irrep              :   0
Energy             :     0.0000000000000000 Eh
Relativity type    :
Basis              : AO
                                X                 Y                 Z
Electronic contribution:     -0.236222431       1.827133918       0.064166169
Nuclear contribution   :      0.586634472      -3.229018169      -0.411883710
                        -----------------------------------------
Total Dipole Moment    :      0.350412041      -1.401884251      -0.347717541
                        -----------------------------------------
Magnitude (a.u.)       :      1.486262271
Magnitude (Debye)      :      3.777778469

Rotational constants in cm-1:             1.373102             0.360422             0.311490
Rotational constants in MHz :         41164.559619         10805.171981          9338.243983

                             ****ORCA TERMINATED NORMALLY****
TOTAL RUN TIME: 0 days 0 hours 0 minutes 17 seconds 294 msec
