                         Program Version 6.0.0  -   RELEASE  -
|  1> ! EnGrad wB97M-D3BJ def2-TZVPPD
|  2> %pal nprocs 8 end%pal nprocs 16 end
|  3> %tddft
|  4>  sf true
|  5>  nroots 2 Iroot 1 end
|  6> *xyz 0 3
|  7> O   0.49498487141749 1.30542896296359 0.09562086685502
|  8> C   0.59397277051502 0.1665663550522 -0.28776243360354
|  9> C   -0.43415360249252 -0.81954265599299 0.20413960236378
| 10> H   0.04854596293068 -1.64293201136086 0.73313473613117
| 11> H   1.39455015109016 -0.16293880487806 -0.96977155286261
| 12> H   -0.97139978721258 -1.26162590359523 -0.63670230846615
| 13> H   -1.12430036624826 -0.30335594218865 0.86134108958231
| 14> *
| 15>
| 16>                          ****END OF INPUT****

CARTESIAN COORDINATES (ANGSTROEM)
---------------------------------
  O      0.494985    1.305429    0.095621
  C      0.593973    0.166566   -0.287762
  C     -0.434154   -0.819543    0.204140
  H      0.048546   -1.642932    0.733135
  H      1.394550   -0.162939   -0.969772
  H     -0.971400   -1.261626   -0.636702
  H     -1.124300   -0.303356    0.861341

 Total Charge           Charge          ....    0
 Multiplicity           Mult            ....    3
 Number of Electrons    NEL             ....   24
 Basis Dimension        Dim             ....  182

ORBITAL ENERGIES
----------------
                 SPIN UP ORBITALS
  NO   OCC          E(Eh)            E(eV)
   0   1.0000     -19.410937      -528.1985
   1   1.0000     -10.380070      -282.4561
   2   1.0000     -10.366208      -282.0789
   3   1.0000      -1.247007       -33.9328
   4   1.0000      -0.878056       -23.8931
   5   1.0000      -0.720184       -19.5972
   6   1.0000      -0.637946       -17.3594
   7   1.0000      -0.583912       -15.8890
   8   1.0000      -0.582342       -15.8463
   9   1.0000      -0.514143       -13.9905
  10   1.0000      -0.511302       -13.9132
  11   1.0000      -0.436356       -11.8739
  12   1.0000      -0.223280        -6.0757
  13   0.0000       0.042291         1.1508
  14   0.0000       0.060456         1.6451
  15   0.0000       0.079276         2.1572
  16   0.0000       0.088325         2.4035
  17   0.0000       0.108540         2.9535

                 SPIN DOWN ORBITALS
  NO   OCC          E(Eh)            E(eV)
   0   1.0000     -19.382965      -527.4373
   1   1.0000     -10.369717      -282.1743
   2   1.0000     -10.363878      -282.0155
   3   1.0000      -1.188472       -32.3400
   4   1.0000      -0.858480       -23.3604
   5   1.0000      -0.676568       -18.4103
   6   1.0000      -0.585746       -15.9390
   7   1.0000      -0.540216       -14.7000
   8   1.0000      -0.533693       -14.5225
   9   1.0000      -0.501215       -13.6387
  10   1.0000      -0.470197       -12.7947
  11   0.0000      -0.081057        -2.2057
  12   0.0000       0.042235         1.1493
  13   0.0000       0.060110         1.6357
  14   0.0000       0.079515         2.1637
  15   0.0000       0.082720         2.2509

----------------------------------------------------------------------------------------------------
          SPIN FLIP ABSORPTION SPECTRUM VIA TRANSITION ELECTRIC DIPOLE MOMENTS
----------------------------------------------------------------------------------------------------
     Transition      Energy     Energy  Wavelength fosc(D2)      D2        DX        DY        DZ
                      (eV)      (cm-1)    (nm)                 (au**2)    (au)      (au)      (au)
----------------------------------------------------------------------------------------------------
  1-3A  ->  2-3A    4.453972   35923.7   278.4   0.000009507   0.00009  -0.00542   0.00190  -0.00736

Dispersion correction             ... done (  0.0 sec)

MULLIKEN ATOMIC CHARGES AND SPIN DENSITIES
------------------------------------------
   0 O :   -0.511871    0.055841
   1 C :    0.210062   -0.171319
   2 C :   -0.678003    0.047861
   3 H :    0.222639   -0.005622
   4 H :    0.295767    0.074435
   5 H :    0.221350   -0.005562
   6 H :    0.240056    0.004366
Sum of atomic charges       :   -0.0000000

LOEWDIN ATOMIC CHARGES AND SPIN DENSITIES
-----------------------------------------
   0 O :    0.028905    0.021807
   1 C :   -0.199690   -0.014350
   2 C :    0.173371   -0.001382
   3 H :   -0.012080   -0.001238
   4 H :    0.030048   -0.004080
   5 H :   -0.011877   -0.001236
   6 H :   -0.008678    0.000479

  Mayer bond orders larger than 0.100000
B(  0-O ,  1-C ) :   1.7866 B(  1-C ,  2-C ) :   0.7535 B(  1-C ,  4-H ) :   0.9307
B(  2-C ,  3-H ) :   0.9942 B(  2-C ,  5-H ) :   0.9937 B(  2-C ,  6-H ) :   0.9588

Dispersion correction           -0.005550799
FINAL SINGLE POINT ENERGY      -153.921616909662

DIPOLE MOMENT
-------------

Method             : TDA/CIS
Type of density    : Electron Density
Level              : Relaxed density
State              :   1
Multiplicity       :   3
Irrep              :   0
Energy             :     0.0000000000000000 Eh
Relativity type    :
Basis              : AO
                                X                 Y                 Z
Electronic contribution:      1.324449219       2.783081673      -0.221370454
Nuclear contribution   :     -1.390115767      -3.967992863      -0.053744795
                        -----------------------------------------
Total Dipole Moment    :     -0.065666548      -1.184911190      -0.275115249
                        -----------------------------------------
Magnitude (a.u.)       :      1.218201553
Magnitude (Debye)      :      3.096422271

Rotational constants in cm-1:             1.727020             0.360529             0.315494
Rotational constants in MHz :         51774.755020         10808.385233          9458.265370

                             ****ORCA TERMINATED NORMALLY****
TOTAL RUN TIME: 0 days 0 hours 0 minutes 16 seconds 518 msec
