                         Program Version 6.0.0  -   RELEASE  -
|  1> ! Engrad def2-TZVPPD wB97M-D3BJ
|  2> %pal nprocs 8 end%pal nprocs 64 end
|  3> %tddft
|  4> Iroot 3 Nroots 3
|  5> sf true
|  6> end
|  7> *xyz 0 3
|  8> O   2.6535313542634547 1.090663708189626 -0.5136069834598929
|  9> O   -0.6211889621360276 0.9305891410999889 -2.3458870316297213
| 10> O   0.5186296275057886 -2.7962903878756875 -1.3435530441611403
| 11> O   -2.66367907358415 -1.545636196670849 0.7847748069589976
| 12> N   0.5412140381171581 -1.9989417830505922 0.7391570989955737
| 13> N   -1.982869519584127 0.46513366741682705 1.3622377065013043
| 14> N   1.6285549931923775 -0.874525967852658 -0.8935008234811402
| 15> N   -1.6223132064601467 -0.30154419710137964 -0.7610877674302002
| 16> C   1.4932915824213535 0.12036480603351554 1.22383598727961
| 17> C   -0.7966298980846355 1.8166219814125202 -0.1770303078222448
| 18> C   0.7546346862971048 -0.9538454569767287 1.5909865385293707
| 19> C   -1.2008051263620851 1.5241234759408886 1.0796723748707657
| 20> C   1.9003005610156103 1.1181861369330077 2.1748633781574753
| 21> C   -0.35607805013502225 3.130511378736762 -0.5315648333004119
| 22> C   1.990127820389679 0.17875026322621732 -0.10948483738262244
| 23> C   -0.9833749963363988 0.8282732250170348 -1.20547870801327
| 24> C   0.8705499039645789 -1.9521624635305501 -0.5689948340455845
| 25> C   -2.1214895035923824 -0.5256208021237635 0.4767127520970142
| 26> H   0.5792277763617626 -1.1856924735829555 2.6255903546921617
| 27> H   -1.199284474066457 2.2790893380853596 1.8410168833113256
| 28> H   1.7015547137295768 2.1131056910675423 1.7847801540542667
| 29> H   1.4056147654482873 1.0634224788346986 3.143686342896289
| 30> H   2.9576298698871284 1.1436493838045132 2.4264864000099777
| 31> H   -1.0883624360984478 3.538973307359117 -1.22703237386124
| 32> H   -0.19409016031551518 3.8549437546994145 0.2563720056018788
| 33> H   0.5815060027912821 3.1014250294813905 -1.0831027262445958
| 34> H   -0.09775924373957537 -2.73110687661059 0.9811052082020488
| 35> H   -2.3308643264242725 0.3213892015536261 2.286623150305166
| 36> H   1.8649611472908092 -0.804796483385751 -1.8695825236837855
| 37> H   -1.7299398657567313 -1.0340528801306093 -1.4433943479473772
| 38> *
| 39>
| 40>                          ****END OF INPUT****

CARTESIAN COORDINATES (ANGSTROEM)
---------------------------------
  O      2.653531    1.090664   -0.513607
  O     -0.621189    0.930589   -2.345887
  O      0.518630   -2.796290   -1.343553
  O     -2.663679   -1.545636    0.784775
  N      0.541214   -1.998942    0.739157
  N     -1.982870    0.465134    1.362238
  N      1.628555   -0.874526   -0.893501
  N     -1.622313   -0.301544   -0.761088
  C      1.493292    0.120365    1.223836
  C     -0.796630    1.816622   -0.177030
  C      0.754635   -0.953845    1.590987
  C     -1.200805    1.524123    1.079672
  C      1.900301    1.118186    2.174863
  C     -0.356078    3.130511   -0.531565
  C      1.990128    0.178750   -0.109485
  C     -0.983375    0.828273   -1.205479
  C      0.870550   -1.952162   -0.568995
  C     -2.121490   -0.525621    0.476713
  H      0.579228   -1.185692    2.625590
  H     -1.199284    2.279089    1.841017
  H      1.701555    2.113106    1.784780
  H      1.405615    1.063422    3.143686
  H      2.957630    1.143649    2.426486
  H     -1.088362    3.538973   -1.227032
  H     -0.194090    3.854944    0.256372
  H      0.581506    3.101425   -1.083103
  H     -0.097759   -2.731107    0.981105
  H     -2.330864    0.321389    2.286623
  H      1.864961   -0.804796   -1.869583
  H     -1.729940   -1.034053   -1.443394

 Total Charge           Charge          ....    0
 Multiplicity           Mult            ....    3
 Number of Electrons    NEL             ....  132
 Basis Dimension        Dim             ....  882

ORBITAL ENERGIES
----------------
                 SPIN UP ORBITALS
  NO   OCC          E(Eh)            E(eV)
   0   1.0000     -19.328265      -525.9488
   1   1.0000     -19.317853      -525.6655
   2   1.0000     -19.314838      -525.5835
   3   1.0000     -19.313913      -525.5583
   4   1.0000     -14.590224      -397.0202
   5   1.0000     -14.574735      -396.5987
   6   1.0000     -14.561890      -396.2492
   7   1.0000     -14.554270      -396.0418
   8   1.0000     -10.504951      -285.8543
   9   1.0000     -10.499385      -285.7028
  10   1.0000     -10.465815      -284.7893
  11   1.0000     -10.455597      -284.5113
  12   1.0000     -10.429424      -283.7991
  13   1.0000     -10.399714      -282.9906
  14   1.0000     -10.395221      -282.8684
  15   1.0000     -10.372444      -282.2486
  16   1.0000     -10.358222      -281.8615
  17   1.0000     -10.352049      -281.6936
  18   1.0000      -1.244509       -33.8648
  19   1.0000      -1.230418       -33.4814
  20   1.0000      -1.199053       -32.6279
  21   1.0000      -1.196111       -32.5478
  22   1.0000      -1.138870       -30.9902
  23   1.0000      -1.125102       -30.6156
  24   1.0000      -1.077324       -29.3155
  25   1.0000      -1.074424       -29.2366
  26   1.0000      -0.983669       -26.7670
  27   1.0000      -0.962882       -26.2014
  28   1.0000      -0.861165       -23.4335
  29   1.0000      -0.852476       -23.1971
  30   1.0000      -0.822616       -22.3845
  31   1.0000      -0.815708       -22.1965
  32   1.0000      -0.804325       -21.8868
  33   1.0000      -0.797246       -21.6942
  34   1.0000      -0.708401       -19.2766
  35   1.0000      -0.705304       -19.1923
  36   1.0000      -0.697961       -18.9925
  37   1.0000      -0.694783       -18.9060
  38   1.0000      -0.655773       -17.8445
  39   1.0000      -0.640461       -17.4278
  40   1.0000      -0.637228       -17.3399
  41   1.0000      -0.608781       -16.5658
  42   1.0000      -0.597945       -16.2709
  43   1.0000      -0.592392       -16.1198
  44   1.0000      -0.581254       -15.8167
  45   1.0000      -0.573122       -15.5955
  46   1.0000      -0.562797       -15.3145
  47   1.0000      -0.555245       -15.1090
  48   1.0000      -0.550843       -14.9892
  49   1.0000      -0.548288       -14.9197
  50   1.0000      -0.538029       -14.6405
  51   1.0000      -0.534122       -14.5342
  52   1.0000      -0.531686       -14.4679
  53   1.0000      -0.514457       -13.9991
  54   1.0000      -0.504134       -13.7182
  55   1.0000      -0.495093       -13.4722
  56   1.0000      -0.493875       -13.4390
  57   1.0000      -0.471554       -12.8316
  58   1.0000      -0.421272       -11.4634
  59   1.0000      -0.412112       -11.2141
  60   1.0000      -0.410288       -11.1645
  61   1.0000      -0.398877       -10.8540
  62   1.0000      -0.387761       -10.5515
  63   1.0000      -0.383670       -10.4402
  64   1.0000      -0.381045       -10.3687
  65   1.0000      -0.338710        -9.2168
  66   1.0000      -0.215515        -5.8645
  67   0.0000       0.009839         0.2677
  68   0.0000       0.018968         0.5161
  69   0.0000       0.031896         0.8679
  70   0.0000       0.037913         1.0317
  71   0.0000       0.039923         1.0864

                 SPIN DOWN ORBITALS
  NO   OCC          E(Eh)            E(eV)
   0   1.0000     -19.326193      -525.8924
   1   1.0000     -19.314703      -525.5798
   2   1.0000     -19.313853      -525.5567
   3   1.0000     -19.312430      -525.5179
   4   1.0000     -14.586174      -396.9100
   5   1.0000     -14.574546      -396.5935
   6   1.0000     -14.561914      -396.2498
   7   1.0000     -14.553289      -396.0151
   8   1.0000     -10.505174      -285.8603
   9   1.0000     -10.499395      -285.7031
  10   1.0000     -10.465796      -284.7888
  11   1.0000     -10.455374      -284.5052
  12   1.0000     -10.429035      -283.7885
  13   1.0000     -10.390112      -282.7293
  14   1.0000     -10.384409      -282.5741
  15   1.0000     -10.372511      -282.2504
  16   1.0000     -10.358557      -281.8707
  17   1.0000     -10.351954      -281.6910
  18   1.0000      -1.240178       -33.7470
  19   1.0000      -1.230118       -33.4732
  20   1.0000      -1.196252       -32.5517
  21   1.0000      -1.190780       -32.4028
  22   1.0000      -1.129144       -30.7256
  23   1.0000      -1.124620       -30.6025
  24   1.0000      -1.074300       -29.2332
  25   1.0000      -1.072258       -29.1776
  26   1.0000      -0.964862       -26.2552
  27   1.0000      -0.958370       -26.0786
  28   1.0000      -0.852119       -23.1873
  29   1.0000      -0.847963       -23.0742
  30   1.0000      -0.816416       -22.2158
  31   1.0000      -0.811866       -22.0920
  32   1.0000      -0.797958       -21.7135
  33   1.0000      -0.796866       -21.6838
  34   1.0000      -0.698768       -19.0144
  35   1.0000      -0.697926       -18.9915
  36   1.0000      -0.694956       -18.9107
  37   1.0000      -0.694208       -18.8904
  38   1.0000      -0.645022       -17.5519
  39   1.0000      -0.636633       -17.3237
  40   1.0000      -0.634133       -17.2556
  41   1.0000      -0.600301       -16.3350
  42   1.0000      -0.591924       -16.1071
  43   1.0000      -0.588958       -16.0264
  44   1.0000      -0.566921       -15.4267
  45   1.0000      -0.564191       -15.3524
  46   1.0000      -0.560235       -15.2448
  47   1.0000      -0.548985       -14.9386
  48   1.0000      -0.547041       -14.8857
  49   1.0000      -0.540700       -14.7132
  50   1.0000      -0.532168       -14.4810
  51   1.0000      -0.529590       -14.4109
  52   1.0000      -0.520683       -14.1685
  53   1.0000      -0.507007       -13.7964
  54   1.0000      -0.497260       -13.5311
  55   1.0000      -0.494386       -13.4529
  56   1.0000      -0.470254       -12.7963
  57   1.0000      -0.454788       -12.3754
  58   1.0000      -0.416889       -11.3441
  59   1.0000      -0.410142       -11.1605
  60   1.0000      -0.398756       -10.8507
  61   1.0000      -0.387844       -10.5538
  62   1.0000      -0.382556       -10.4099
  63   1.0000      -0.379849       -10.3362
  64   1.0000      -0.338467        -9.2102
  65   0.0000      -0.100057        -2.7227
  66   0.0000       0.009630         0.2621
  67   0.0000       0.021253         0.5783
  68   0.0000       0.030253         0.8232
  69   0.0000       0.037134         1.0105

----------------------------------------------------------------------------------------------------
          SPIN FLIP ABSORPTION SPECTRUM VIA TRANSITION ELECTRIC DIPOLE MOMENTS
----------------------------------------------------------------------------------------------------
     Transition      Energy     Energy  Wavelength fosc(D2)      D2        DX        DY        DZ
                      (eV)      (cm-1)    (nm)                 (au**2)    (au)      (au)      (au)
----------------------------------------------------------------------------------------------------
  1-3A  ->  2-3A    3.887659   31356.1   318.9   0.000732471   0.00769   0.00810  -0.04336  -0.07579
  1-3A  ->  3-1A    5.092863   41076.7   243.4   0.374154337   2.99868   0.58448   0.33653  -1.59493

Dispersion correction             ... done (  0.1 sec)

MULLIKEN ATOMIC CHARGES AND SPIN DENSITIES
------------------------------------------
   0 O :   -0.685721   -0.023110
   1 O :   -0.703220    0.049857
   2 O :   -0.649570   -0.005360
   3 O :   -0.631125    0.006732
   4 N :   -0.025997   -0.018889
   5 N :    0.041799    0.070989
   6 N :    0.043483   -0.006635
   7 N :    0.078277    0.030304
   8 C :    1.035723    0.017788
   9 C :    1.008609    0.329459
  10 C :   -0.147680   -0.127489
  11 C :   -0.280866   -0.111547
  12 C :   -1.452181    0.025842
  13 C :   -1.419706    0.014168
  14 C :    0.325460    0.006685
  15 C :    0.324254   -0.227615
  16 C :    0.396104    0.005507
  17 C :    0.285680   -0.064575
  18 H :    0.157032   -0.033331
  19 H :    0.103672   -0.055192
  20 H :    0.249703    0.004895
  21 H :    0.344569   -0.003366
  22 H :    0.343147   -0.008214
  23 H :    0.364012    0.002154
  24 H :    0.349072    0.000465
  25 H :    0.277731    0.012621
  26 H :    0.051530    0.005007
  27 H :    0.201484    0.107044
  28 H :    0.009970   -0.002191
  29 H :    0.004756   -0.002006
Sum of atomic charges       :   -0.0000000

LOEWDIN ATOMIC CHARGES AND SPIN DENSITIES
-----------------------------------------
   0 O :    0.109284   -0.021662
   1 O :    0.096340    0.041057
   2 O :    0.107564   -0.005064
   3 O :    0.121830   -0.002980
   4 N :    0.292216   -0.024666
   5 N :    0.310641    0.025289
   6 N :    0.353268   -0.004728
   7 N :    0.334864   -0.004430
   8 C :   -0.164032   -0.030501
   9 C :   -0.129816    0.055803
  10 C :    0.069546   -0.040803
  11 C :    0.029196    0.040323
  12 C :    0.148385   -0.005713
  13 C :    0.195482    0.005238
  14 C :   -0.448673   -0.013188
  15 C :   -0.459153    0.012983
  16 C :   -0.517829   -0.002350
  17 C :   -0.530208   -0.003902
  18 H :    0.038324   -0.008463
  19 H :    0.014064    0.000603
  20 H :   -0.005370   -0.001594
  21 H :   -0.001865   -0.004568
  22 H :    0.009287   -0.000246
  23 H :    0.024051    0.002946
  24 H :    0.003367   -0.000611
  25 H :    0.019797    0.001190
  26 H :   -0.015510   -0.002061
  27 H :   -0.006728   -0.006701
  28 H :    0.004932   -0.001044
  29 H :   -0.003254   -0.000154

  Mayer bond orders larger than 0.100000
B(  0-O , 14-C ) :   1.4075 B(  1-O , 15-C ) :   1.2759 B(  2-O , 16-C ) :   1.5436
B(  3-O , 17-C ) :   1.5134 B(  4-N , 10-C ) :   0.7750 B(  4-N , 16-C ) :   0.9903
B(  4-N , 26-H ) :   1.1213 B(  5-N , 11-C ) :   0.8696 B(  5-N , 17-C ) :   1.0590
B(  5-N , 27-H ) :   1.0834 B(  6-N ,  8-C ) :  -0.1263 B(  6-N , 14-C ) :   1.0508
B(  6-N , 15-C ) :   0.1186 B(  6-N , 16-C ) :   0.9263 B(  6-N , 28-H ) :   1.1208
B(  7-N , 15-C ) :   0.8795 B(  7-N , 16-C ) :   0.1031 B(  7-N , 17-C ) :   0.9249
B(  7-N , 29-H ) :   1.1373 B(  8-C ,  9-C ) :   0.1415 B(  8-C , 10-C ) :   0.9523
B(  8-C , 11-C ) :  -0.1300 B(  8-C , 12-C ) :   0.2173 B(  8-C , 14-C ) :   0.7524
B(  8-C , 21-H ) :  -0.1049 B(  9-C , 11-C ) :   0.9095 B(  9-C , 13-C ) :   0.3374
B(  9-C , 15-C ) :   0.7239 B(  9-C , 17-C ) :   0.1316 B(  9-C , 25-H ) :  -0.1148
B( 10-C , 11-C ) :   0.1167 B( 10-C , 18-H ) :   1.1089 B( 11-C , 13-C ) :  -0.1002
B( 11-C , 17-C ) :  -0.1552 B( 11-C , 19-H ) :   1.1131 B( 12-C , 20-H ) :   0.9821
B( 12-C , 21-H ) :   1.0220 B( 12-C , 22-H ) :   0.8755 B( 13-C , 15-C ) :  -0.1057
B( 13-C , 23-H ) :   0.8217 B( 13-C , 24-H ) :   0.9659 B( 13-C , 25-H ) :   0.9976

Dispersion correction           -0.060417483
FINAL SINGLE POINT ENERGY      -908.706565918817

DIPOLE MOMENT
-------------

Method             : TDA/CIS
Type of density    : Electron Density
Level              : Relaxed density
State              :   3
Multiplicity       :   3
Irrep              :   0
Energy             :     0.0000000000000000 Eh
Relativity type    :
Basis              : AO
                                X                 Y                 Z
Electronic contribution:     -2.923683635     -10.080631771      -6.068111084
Nuclear contribution   :      2.325821007      10.883546475       8.675262512
                        -----------------------------------------
Total Dipole Moment    :     -0.597862628       0.802914704       2.607151428
                        -----------------------------------------
Magnitude (a.u.)       :      2.792731694
Magnitude (Debye)      :      7.098559834

Rotational constants in cm-1:             0.017373             0.016854             0.013797
Rotational constants in MHz :           520.839818           505.264201           413.613304

                             ****ORCA TERMINATED NORMALLY****
TOTAL RUN TIME: 0 days 0 hours 8 minutes 25 seconds 477 msec
