                         Program Version 6.0.0  -   RELEASE  -
|  1> ! Engrad def2-TZVPPD wB97M-D3BJ
|  2> %pal nprocs 8 end%pal nprocs 64 end
|  3> %tddft
|  4>  Iroot 1 Nroots 3
|  5> sf true
|  6> end
|  7> *xyz 0 3
|  8> O   2.6307623 -0.53245083 -2.2982035
|  9> O   -2.14107168 1.01052215 -1.68207414
| 10> O   -0.97366483 -2.81450086 -0.84517785
| 11> O   -2.52540895 0.38266747 2.90677458
| 12> N   0.1174104 -1.47593275 0.67560236
| 13> N   -0.64675134 1.21084267 1.97774445
| 14> N   0.73856084 -1.5626767 -1.57239651
| 15> N   -2.33607808 0.53993205 0.63057082
| 16> C   2.08710663 -0.38373423 0.03420019
| 17> C   -0.250711 1.28853651 -0.35038878
| 18> C   0.99854809 -0.46708721 1.03144964
| 19> C   0.32568328 0.99495836 0.96571257
| 20> C   3.33191572 0.3519039 0.20114096
| 21> C   0.5898212 1.9862995 -1.36657917
| 22> C   1.89215433 -0.83330683 -1.31101929
| 23> C   -1.67028029 0.96614102 -0.55844193
| 24> C   -0.13479785 -2.00625074 -0.58984522
| 25> C   -1.88572043 0.67018999 1.9037015
| 26> H   1.4119048 -0.72895997 1.98180696
| 27> H   1.19027448 1.62592437 1.1203903
| 28> H   4.06699595 -0.03712233 -0.45348453
| 29> H   3.26096474 1.51013652 -0.07060553
| 30> H   3.68845009 0.33846474 1.17316736
| 31> H   0.03725055 2.15997605 -2.28731406
| 32> H   1.00072373 2.96095888 -1.00092008
| 33> H   1.39456604 1.40257815 -1.7030459
| 34> H   -0.56318243 -1.7340961 1.37877657
| 35> H   -0.2357568 1.24228242 2.90481757
| 36> H   0.53415457 -1.6863249 -2.53021376
| 37> H   -3.23896193 0.06993076 0.54741296
| 38> *
| 39>
| 40>                          ****END OF INPUT****

CARTESIAN COORDINATES (ANGSTROEM)
---------------------------------
  O      2.630762   -0.532451   -2.298204
  O     -2.141072    1.010522   -1.682074
  O     -0.973665   -2.814501   -0.845178
  O     -2.525409    0.382667    2.906775
  N      0.117410   -1.475933    0.675602
  N     -0.646751    1.210843    1.977744
  N      0.738561   -1.562677   -1.572397
  N     -2.336078    0.539932    0.630571
  C      2.087107   -0.383734    0.034200
  C     -0.250711    1.288537   -0.350389
  C      0.998548   -0.467087    1.031450
  C      0.325683    0.994958    0.965713
  C      3.331916    0.351904    0.201141
  C      0.589821    1.986300   -1.366579
  C      1.892154   -0.833307   -1.311019
  C     -1.670280    0.966141   -0.558442
  C     -0.134798   -2.006251   -0.589845
  C     -1.885720    0.670190    1.903701
  H      1.411905   -0.728960    1.981807
  H      1.190274    1.625924    1.120390
  H      4.066996   -0.037122   -0.453485
  H      3.260965    1.510137   -0.070606
  H      3.688450    0.338465    1.173167
  H      0.037251    2.159976   -2.287314
  H      1.000724    2.960959   -1.000920
  H      1.394566    1.402578   -1.703046
  H     -0.563182   -1.734096    1.378777
  H     -0.235757    1.242282    2.904818
  H      0.534155   -1.686325   -2.530214
  H     -3.238962    0.069931    0.547413

 Total Charge           Charge          ....    0
 Multiplicity           Mult            ....    3
 Number of Electrons    NEL             ....  132
 Basis Dimension        Dim             ....  882

ORBITAL ENERGIES
----------------
                 SPIN UP ORBITALS
  NO   OCC          E(Eh)            E(eV)
   0   1.0000     -19.346462      -526.4440
   1   1.0000     -19.334447      -526.1170
   2   1.0000     -19.324308      -525.8412
   3   1.0000     -19.322482      -525.7915
   4   1.0000     -14.571629      -396.5142
   5   1.0000     -14.563662      -396.2974
   6   1.0000     -14.561893      -396.2493
   7   1.0000     -14.560705      -396.2169
   8   1.0000     -10.509847      -285.9875
   9   1.0000     -10.507302      -285.9182
  10   1.0000     -10.493426      -285.5407
  11   1.0000     -10.483921      -285.2820
  12   1.0000     -10.442846      -284.1643
  13   1.0000     -10.437853      -284.0284
  14   1.0000     -10.420240      -283.5492
  15   1.0000     -10.418128      -283.4917
  16   1.0000     -10.374591      -282.3070
  17   1.0000     -10.365057      -282.0475
  18   1.0000      -1.226870       -33.3848
  19   1.0000      -1.222047       -33.2536
  20   1.0000      -1.200785       -32.6750
  21   1.0000      -1.182453       -32.1762
  22   1.0000      -1.130231       -30.7552
  23   1.0000      -1.108808       -30.1722
  24   1.0000      -1.072294       -29.1786
  25   1.0000      -1.064359       -28.9627
  26   1.0000      -0.989795       -26.9337
  27   1.0000      -0.958592       -26.0846
  28   1.0000      -0.890474       -24.2310
  29   1.0000      -0.849203       -23.1080
  30   1.0000      -0.831348       -22.6221
  31   1.0000      -0.814769       -22.1710
  32   1.0000      -0.792329       -21.5604
  33   1.0000      -0.786154       -21.3923
  34   1.0000      -0.707260       -19.2455
  35   1.0000      -0.700512       -19.0619
  36   1.0000      -0.695623       -18.9289
  37   1.0000      -0.684746       -18.6329
  38   1.0000      -0.663017       -18.0416
  39   1.0000      -0.651201       -17.7201
  40   1.0000      -0.633348       -17.2343
  41   1.0000      -0.602007       -16.3815
  42   1.0000      -0.597200       -16.2506
  43   1.0000      -0.591980       -16.1086
  44   1.0000      -0.576601       -15.6901
  45   1.0000      -0.572954       -15.5909
  46   1.0000      -0.569395       -15.4940
  47   1.0000      -0.564387       -15.3578
  48   1.0000      -0.563674       -15.3384
  49   1.0000      -0.556440       -15.1415
  50   1.0000      -0.552763       -15.0415
  51   1.0000      -0.542736       -14.7686
  52   1.0000      -0.536203       -14.5908
  53   1.0000      -0.519532       -14.1372
  54   1.0000      -0.511144       -13.9089
  55   1.0000      -0.506387       -13.7795
  56   1.0000      -0.491134       -13.3644
  57   1.0000      -0.432460       -11.7678
  58   1.0000      -0.419946       -11.4273
  59   1.0000      -0.417451       -11.3594
  60   1.0000      -0.409062       -11.1312
  61   1.0000      -0.408173       -11.1070
  62   1.0000      -0.398273       -10.8375
  63   1.0000      -0.393013       -10.6944
  64   1.0000      -0.379692       -10.3319
  65   1.0000      -0.348296        -9.4776
  66   1.0000      -0.327467        -8.9108
  67   0.0000       0.008458         0.2302
  68   0.0000       0.028586         0.7779
  69   0.0000       0.033828         0.9205
  70   0.0000       0.035040         0.9535
  71   0.0000       0.053881         1.4662

                 SPIN DOWN ORBITALS
  NO   OCC          E(Eh)            E(eV)
   0   1.0000     -19.341577      -526.3111
   1   1.0000     -19.329910      -525.9936
   2   1.0000     -19.324282      -525.8404
   3   1.0000     -19.322239      -525.7849
   4   1.0000     -14.571357      -396.5068
   5   1.0000     -14.562615      -396.2689
   6   1.0000     -14.561296      -396.2330
   7   1.0000     -14.560698      -396.2167
   8   1.0000     -10.509901      -285.9889
   9   1.0000     -10.507343      -285.9193
  10   1.0000     -10.494576      -285.5719
  11   1.0000     -10.484771      -285.3051
  12   1.0000     -10.442330      -284.1502
  13   1.0000     -10.437402      -284.0161
  14   1.0000     -10.409566      -283.2587
  15   1.0000     -10.406855      -283.1849
  16   1.0000     -10.375292      -282.3260
  17   1.0000     -10.365575      -282.0616
  18   1.0000      -1.225886       -33.3580
  19   1.0000      -1.220332       -33.2069
  20   1.0000      -1.194777       -32.5115
  21   1.0000      -1.176538       -32.0152
  22   1.0000      -1.127360       -30.6770
  23   1.0000      -1.106641       -30.1132
  24   1.0000      -1.070363       -29.1261
  25   1.0000      -1.062031       -28.8993
  26   1.0000      -0.976544       -26.5731
  27   1.0000      -0.941610       -25.6225
  28   1.0000      -0.885273       -24.0895
  29   1.0000      -0.844961       -22.9926
  30   1.0000      -0.822998       -22.3949
  31   1.0000      -0.809396       -22.0248
  32   1.0000      -0.790697       -21.5159
  33   1.0000      -0.784153       -21.3379
  34   1.0000      -0.702900       -19.1269
  35   1.0000      -0.694120       -18.8880
  36   1.0000      -0.688861       -18.7449
  37   1.0000      -0.677712       -18.4415
  38   1.0000      -0.650233       -17.6937
  39   1.0000      -0.648020       -17.6335
  40   1.0000      -0.629262       -17.1231
  41   1.0000      -0.596793       -16.2396
  42   1.0000      -0.591578       -16.0977
  43   1.0000      -0.585659       -15.9366
  44   1.0000      -0.569590       -15.4993
  45   1.0000      -0.567208       -15.4345
  46   1.0000      -0.562682       -15.3114
  47   1.0000      -0.560967       -15.2647
  48   1.0000      -0.558134       -15.1876
  49   1.0000      -0.547737       -14.9047
  50   1.0000      -0.537440       -14.6245
  51   1.0000      -0.534998       -14.5580
  52   1.0000      -0.530254       -14.4289
  53   1.0000      -0.508766       -13.8442
  54   1.0000      -0.506825       -13.7914
  55   1.0000      -0.494181       -13.4473
  56   1.0000      -0.486754       -13.2452
  57   1.0000      -0.427429       -11.6309
  58   1.0000      -0.416716       -11.3394
  59   1.0000      -0.412674       -11.2294
  60   1.0000      -0.398811       -10.8522
  61   1.0000      -0.393470       -10.7069
  62   1.0000      -0.389472       -10.5981
  63   1.0000      -0.387652       -10.5485
  64   1.0000      -0.367202        -9.9921
  65   0.0000      -0.070854        -1.9280
  66   0.0000      -0.055785        -1.5180
  67   0.0000       0.007967         0.2168
  68   0.0000       0.028226         0.7681
  69   0.0000       0.033826         0.9204

----------------------------------------------------------------------------------------------------
          SPIN FLIP ABSORPTION SPECTRUM VIA TRANSITION ELECTRIC DIPOLE MOMENTS
----------------------------------------------------------------------------------------------------
     Transition      Energy     Energy  Wavelength fosc(D2)      D2        DX        DY        DZ
                      (eV)      (cm-1)    (nm)                 (au**2)    (au)      (au)      (au)
----------------------------------------------------------------------------------------------------
  1-3A  ->  2-3A    0.088616     714.7  13991.1   0.000005452   0.00251  -0.03905   0.02869   0.01277
  1-3A  ->  3-3A    2.044179   16487.4   606.5   0.018979182   0.37897  -0.53400   0.09179   0.29220

Dispersion correction             ... done (  0.1 sec)

MULLIKEN ATOMIC CHARGES AND SPIN DENSITIES
------------------------------------------
   0 O :   -0.753148   -0.144992
   1 O :   -0.629871    0.156382
   2 O :   -0.628638   -0.001926
   3 O :   -0.663277    0.001306
   4 N :   -0.221941   -0.011898
   5 N :   -0.348835    0.011896
   6 N :    0.082786   -0.023574
   7 N :    0.033237    0.011083
   8 C :    1.011164    0.163725
   9 C :   -0.345504    0.343040
  10 C :    0.178377   -0.224682
  11 C :    0.688684    0.048381
  12 C :   -1.618843   -0.034000
  13 C :   -1.182249    0.045384
  14 C :   -0.094706   -0.439439
  15 C :    0.358563    0.063049
  16 C :    0.422674    0.029453
  17 C :    0.401163   -0.000876
  18 H :    0.576140   -0.038518
  19 H :    0.656378    0.024042
  20 H :    0.394589   -0.011250
  21 H :    0.298589   -0.009656
  22 H :    0.410182   -0.000071
  23 H :    0.321075    0.005762
  24 H :    0.302043    0.008433
  25 H :    0.158594    0.017885
  26 H :    0.042635    0.005803
  27 H :    0.099563   -0.000641
  28 H :    0.005463    0.006516
  29 H :    0.045112   -0.000616
Sum of atomic charges       :    0.0000000

LOEWDIN ATOMIC CHARGES AND SPIN DENSITIES
-----------------------------------------
   0 O :    0.019282   -0.122096
   1 O :    0.103575    0.139968
   2 O :    0.116204   -0.001543
   3 O :    0.075551    0.001102
   4 N :    0.274748    0.000568
   5 N :    0.277103    0.001065
   6 N :    0.354845   -0.019891
   7 N :    0.326560    0.009603
   8 C :   -0.043988   -0.398298
   9 C :   -0.014890    0.438620
  10 C :   -0.104504   -0.025027
  11 C :   -0.118118    0.021049
  12 C :    0.184670   -0.069234
  13 C :    0.218991    0.058075
  14 C :   -0.393676   -0.080187
  15 C :   -0.348439    0.062408
  16 C :   -0.463662    0.001158
  17 C :   -0.522536   -0.000611
  18 H :    0.055154   -0.005860
  19 H :    0.039532    0.003795
  20 H :   -0.017436   -0.005661
  21 H :    0.088512   -0.032667
  22 H :   -0.041309   -0.003920
  23 H :    0.006633   -0.001424
  24 H :    0.038356    0.017310
  25 H :   -0.064185    0.013252
  26 H :   -0.016642   -0.000021
  27 H :   -0.011703    0.000175
  28 H :   -0.025981   -0.002376
  29 H :    0.007353    0.000665

  Mayer bond orders larger than 0.100000
B(  0-O , 14-C ) :   1.2929 B(  1-O , 15-C ) :   1.4029 B(  2-O , 16-C ) :   1.5780
B(  3-O , 17-C ) :   1.5746 B(  4-N ,  8-C ) :   0.2158 B(  4-N ,  9-C ) :   0.1787
B(  4-N , 10-C ) :   0.3956 B(  4-N , 16-C ) :   0.9679 B(  4-N , 26-H ) :   1.1083
B(  5-N ,  9-C ) :   0.3736 B(  5-N , 11-C ) :  -0.2507 B(  5-N , 17-C ) :   1.2280
B(  5-N , 19-H ) :  -0.1488 B(  5-N , 27-H ) :   1.0379 B(  6-N ,  8-C ) :  -0.1839
B(  6-N , 10-C ) :   0.1356 B(  6-N , 14-C ) :   1.0662 B(  6-N , 16-C ) :   0.9308
B(  6-N , 28-H ) :   1.1432 B(  7-N ,  9-C ) :  -0.1317 B(  7-N , 11-C ) :   0.1199
B(  7-N , 15-C ) :   1.0578 B(  7-N , 17-C ) :   0.9611 B(  7-N , 29-H ) :   1.1114
B(  8-C , 10-C ) :   0.4722 B(  8-C , 11-C ) :   0.3834 B(  8-C , 12-C ) :   0.2407
B(  8-C , 14-C ) :   0.5584 B(  8-C , 18-H ) :  -0.2103 B(  8-C , 20-H ) :  -0.1021
B(  8-C , 22-H ) :  -0.1468 B(  9-C , 10-C ) :   0.2917 B(  9-C , 11-C ) :  -0.4037
B(  9-C , 13-C ) :   0.5703 B(  9-C , 14-C ) :   0.1027 B(  9-C , 15-C ) :   0.6751
B(  9-C , 19-H ) :  -0.2848 B( 10-C , 11-C ) :   0.5802 B( 10-C , 12-C ) :  -0.1633
B( 10-C , 18-H ) :   0.8096 B( 11-C , 13-C ) :  -0.2380 B( 11-C , 15-C ) :  -0.1419
B( 11-C , 17-C ) :  -0.1993 B( 11-C , 18-H ) :  -0.1685 B( 11-C , 19-H ) :   0.8027
B( 12-C , 20-H ) :   0.8952 B( 12-C , 21-H ) :   0.8220 B( 12-C , 22-H ) :   1.0334
B( 13-C , 15-C ) :  -0.1061 B( 13-C , 23-H ) :   0.9846 B( 13-C , 24-H ) :   0.9984
B( 13-C , 25-H ) :   0.9131

Dispersion correction           -0.060792589
FINAL SINGLE POINT ENERGY      -908.779404891671

DIPOLE MOMENT
-------------

Method             : TDA/CIS
Type of density    : Electron Density
Level              : Relaxed density
State              :   1
Multiplicity       :   3
Irrep              :   0
Energy             :     0.0000000000000000 Eh
Relativity type    :
Basis              : AO
                                X                 Y                 Z
Electronic contribution:    -10.119577299      -6.068894274       0.224697419
Nuclear contribution   :     11.797598637       7.154279481       1.252092706
                        -----------------------------------------
Total Dipole Moment    :      1.678021338       1.085385207       1.476790124
                        -----------------------------------------
Magnitude (a.u.)       :      2.484899541
Magnitude (Debye)      :      6.316112684

Rotational constants in cm-1:             0.021942             0.012870             0.012190
Rotational constants in MHz :           657.801367           385.831797           365.455420

                             ****ORCA TERMINATED NORMALLY****
TOTAL RUN TIME: 0 days 0 hours 4 minutes 54 seconds 406 msec
