                         Program Version 6.0.0  -   RELEASE  -
|  1> ! Opt wB97M-D3BJ def2-TZVPPD
|  2> %pal nprocs 8 end %pal nprocs 64 end
|  3> %geom
|  4> Constraints
|  5>     {A 2 1 0 76.77966101694915 C }
|  6> end
|  7> MaxIter 200
|  8> end
|  9> *xyz 0 1
| 10> O   0.42205352037754507 0.9887157226894768 0.0
| 11> C   0.7509 -0.4065 0.0
| 12> C   -0.7502 -0.4076 0.0
| 13> H   1.2625 -0.6786 0.9136
| 14> H   1.2625 -0.6787 -0.9136
| 15> H   -1.2614 -0.6806 -0.9136
| 16> H   -1.2614 -0.6805 0.9136
| 17> *
| 18>
| 19>                          ****END OF INPUT****
 Total Charge           Charge          ....    0
 Multiplicity           Mult            ....    1
 Number of Electrons    NEL             ....   24
Dispersion correction           -0.005344848
FINAL SINGLE POINT ENERGY      -153.839697080087
Dispersion correction             ... done (  0.1 sec)
Dispersion correction           -0.005284613
FINAL SINGLE POINT ENERGY      -153.853857364321
Dispersion correction             ... done (  0.1 sec)
Dispersion correction           -0.005277085
FINAL SINGLE POINT ENERGY      -153.858868762380
Dispersion correction             ... done (  0.1 sec)
FINAL SINGLE POINT ENERGY      -153.859888846179
FINAL SINGLE POINT ENERGY      -153.860129203223
FINAL SINGLE POINT ENERGY      -153.860163219251
Dispersion correction             ... done (  0.1 sec)
Dispersion correction           -0.005273547
FINAL SINGLE POINT ENERGY      -153.860177616882
Dispersion correction             ... done (  0.1 sec)
Dispersion correction           -0.005274127
FINAL SINGLE POINT ENERGY      -153.860179157539
Dispersion correction             ... done (  0.1 sec)
                    ***********************HURRAY********************

CARTESIAN COORDINATES (ANGSTROEM)
---------------------------------
  O      0.285401    0.902790   -0.000294
  C      0.729252   -0.376863   -0.000040
  C     -0.679693   -0.522685   -0.000057
  H      1.267526   -0.692106    0.896795
  H      1.267671   -0.692350   -0.896701
  H     -1.222885   -0.581832   -0.927823
  H     -1.222318   -0.580738    0.928121

 Multiplicity           Mult            ....    1
 Number of Electrons    NEL             ....   24
 Basis Dimension        Dim             ....  182

ORBITAL ENERGIES
----------------

  NO   OCC          E(Eh)            E(eV)
   0   2.0000     -19.345189      -526.4094
   1   2.0000     -10.413645      -283.3697
   2   2.0000     -10.396570      -282.9051
   3   2.0000      -1.169637       -31.8274
   4   2.0000      -0.842145       -22.9159
   5   2.0000      -0.740567       -20.1518
   6   2.0000      -0.627712       -17.0809
   7   2.0000      -0.588042       -16.0014
   8   2.0000      -0.503864       -13.7108
   9   2.0000      -0.498258       -13.5583
  10   2.0000      -0.410680       -11.1752
  11   2.0000      -0.374322       -10.1858
  12   0.0000       0.034087         0.9275
  13   0.0000       0.049069         1.3352
  14   0.0000       0.061156         1.6641
  15   0.0000       0.076916         2.0930
  16   0.0000       0.104155         2.8342

MULLIKEN ATOMIC CHARGES
-----------------------
   0 O :   -0.430355
   1 C :   -0.099606
   2 C :   -0.284325
   3 H :    0.204671
   4 H :    0.204730
   5 H :    0.202404
   6 H :    0.202481
Sum of atomic charges:   -0.0000000

LOEWDIN ATOMIC CHARGES
----------------------
   0 O :   -0.025478
   1 C :   -0.241882
   2 C :    0.221953
   3 H :    0.024158
   4 H :    0.024160
   5 H :   -0.001450
   6 H :   -0.001461

  Mayer bond orders larger than 0.100000
B(  0-O ,  1-C ) :   0.7004 B(  0-O ,  2-C ) :   0.9228 B(  1-C ,  2-C ) :   0.7839
B(  1-C ,  3-H ) :   1.0497 B(  1-C ,  4-H ) :   1.0495 B(  2-C ,  5-H ) :   0.9764
B(  2-C ,  6-H ) :   0.9764

Dispersion correction           -0.005274281
FINAL SINGLE POINT ENERGY      -153.860179353231

DIPOLE MOMENT
-------------

Method             : SCF
Type of density    : Electron Density
Multiplicity       :   1
Irrep              :   0
Energy             :  -153.8549050717657849 Eh
Relativity type    :
Basis              : AO
                                X                 Y                 Z
Electronic contribution:      0.107717407       1.509495549      -0.000658091
Nuclear contribution   :     -0.360517748      -2.467876736       0.000831577
                        -----------------------------------------
Total Dipole Moment    :     -0.252800341      -0.958381187       0.000173486
                        -----------------------------------------
Magnitude (a.u.)       :      0.991162218
Magnitude (Debye)      :      2.519334142

Rotational constants in cm-1:             0.937916             0.618511             0.437699
Rotational constants in MHz :         28118.010551         18542.492745         13121.874905

                             ****ORCA TERMINATED NORMALLY****
TOTAL RUN TIME: 0 days 0 hours 1 minutes 56 seconds 341 msec
