                         Program Version 6.0.0  -   RELEASE  -
|  1> ! opt def2-TZVPPD wB97M-D3BJ
|  2> %pal nprocs 24 end%geom Constraints
|  3> {B 9 8 2.8000000000000003 C}
|  4> {A 8 9 11 70.57142857142857 C}
|  5>  end
|  6>  end
|  7> *xyz 0 1
|  8> O   2.98579685529314 0.88758230159078 -0.86184571092411
|  9> O   -0.03983205397054 0.68929041702508 -2.10362336723772
| 10> O   0.93431434349854 -3.13274393337945 -0.68767288184107
| 11> O   -3.75829998830163 -0.84727300865116 -0.0472717177755
| 12> N   0.21184538946282 -1.54604804365365 0.7617588924445
| 13> N   -2.13631993928911 0.03188773433438 1.27350571071531
| 14> N   2.02598672506387 -1.14318467211666 -0.64531219127023
| 15> N   -1.91814233924584 0.03137116037665 -1.04498946748291
| 16> C   1.18097737274226 0.71693507080484 0.70173889017321
| 17> C   -0.20686880480777 1.27024627933494 0.21345042231937
| 18> C   0.41441080275909 -0.34173258966541 1.52336266615173
| 19> C   -0.82922175114212 0.58960593673968 1.44434972027296
| 20> C   1.92822011286806 1.69488653817281 1.5963734975385
| 21> C   -0.37809776891576 2.77134929626422 0.04819649358288
| 22> C   2.1403947470937 0.1972384729179 -0.35038567829864
| 23> C   -0.67361678962426 0.6214190571346 -1.0793014500539
| 24> C   1.04142578622994 -2.02697492875068 -0.21027082435993
| 25> C   -2.68467002550422 -0.30396816036989 0.07167054343891
| 26> H   0.80817443950001 -0.54572267081061 2.51895215321335
| 27> H   -0.83785272399001 1.27240685039143 2.28901317073582
| 28> H   2.31167340578204 2.52284411740894 1.00913016264629
| 29> H   1.28982602448342 2.08257620823614 2.38710022492991
| 30> H   2.77390820759972 1.19140411795486 2.06045858523949
| 31> H   -1.41857211141493 3.00964947214868 -0.16882755561625
| 32> H   -0.09065531563179 3.29799318042223 0.95389844358819
| 33> H   0.23426221611057 3.12492645074476 -0.77764887675592
| 34> H   -0.46772570547622 -2.21560145172536 1.0787081584806
| 35> H   -2.71769301149571 -0.17090724573546 2.06627440900372
| 36> H   2.60065167263658 -1.49057255715425 -1.3966820077142
| 37> H   -2.27169977231386 -0.32388339999036 -1.91951041514436
| 38> *
| 39>
| 40>                          ****END OF INPUT****
 Total Charge           Charge          ....    0
 Multiplicity           Mult            ....    1
 Number of Electrons    NEL             ....  132
Dispersion correction           -0.053384206
FINAL SINGLE POINT ENERGY      -908.724668284928
Dispersion correction             ... done (  0.1 sec)
Dispersion correction           -0.054393293
FINAL SINGLE POINT ENERGY      -908.749548896385
Dispersion correction             ... done (  0.1 sec)
Dispersion correction           -0.055425165
FINAL SINGLE POINT ENERGY      -908.765973580966
Dispersion correction             ... done (  0.0 sec)
FINAL SINGLE POINT ENERGY      -908.778430131448
FINAL SINGLE POINT ENERGY      -908.782818126528
FINAL SINGLE POINT ENERGY      -908.785828935755
FINAL SINGLE POINT ENERGY      -908.788358198184
FINAL SINGLE POINT ENERGY      -908.789886473859
FINAL SINGLE POINT ENERGY      -908.791287009153
FINAL SINGLE POINT ENERGY      -908.793052463250
FINAL SINGLE POINT ENERGY      -908.795670817120
FINAL SINGLE POINT ENERGY      -908.795751634591
FINAL SINGLE POINT ENERGY      -908.795781271353
FINAL SINGLE POINT ENERGY      -908.795818045409
FINAL SINGLE POINT ENERGY      -908.795834758202
FINAL SINGLE POINT ENERGY      -908.795845125107
FINAL SINGLE POINT ENERGY      -908.795850882159
Dispersion correction             ... done (  0.0 sec)
Dispersion correction           -0.059166639
FINAL SINGLE POINT ENERGY      -908.795853286228
Dispersion correction             ... done (  0.0 sec)
Dispersion correction           -0.059169669
FINAL SINGLE POINT ENERGY      -908.795854155185
Dispersion correction             ... done (  0.1 sec)
                    ***********************HURRAY********************

CARTESIAN COORDINATES (ANGSTROEM)
---------------------------------
  O      3.141425    0.481542   -0.901143
  O     -0.533948    1.438803   -2.308724
  O      0.414090   -3.071506   -0.456466
  O     -3.075260   -1.689935   -0.332055
  N      0.315879   -1.478489    1.155689
  N     -2.142809   -0.106207    1.010640
  N      1.558390   -1.139421   -0.787420
  N     -1.485612   -0.308808   -1.207322
  C      1.683868    0.522340    0.945802
  C     -0.742194    1.593500    0.047561
  C      0.377072   -0.096725    1.568221
  C     -0.995403    0.718119    1.261189
  C      2.410132    1.569918    1.677868
  C     -0.654067    3.057315    0.152236
  C      2.201697   -0.008690   -0.303899
  C     -0.885906    0.948454   -1.256045
  C      0.726436   -1.973700   -0.057070
  C     -2.295860   -0.782873   -0.175372
  H      0.504831   -0.097506    2.653861
  H     -1.204441    1.349248    2.121654
  H      3.311681    1.852610    1.144323
  H      1.788593    2.463332    1.816877
  H      2.666694    1.223601    2.684058
  H     -1.600837    3.467162    0.522336
  H      0.108563    3.354652    0.880172
  H     -0.428585    3.498069   -0.813487
  H     -0.315432   -2.101618    1.628754
  H     -2.699047   -0.463300    1.766933
  H      1.917323   -1.529077   -1.643460
  H     -1.614672   -0.775809   -2.091110

 Multiplicity           Mult            ....    1
 Number of Electrons    NEL             ....  132
 Basis Dimension        Dim             ....  882

ORBITAL ENERGIES
----------------

  NO   OCC          E(Eh)            E(eV)
   0   2.0000     -19.331935      -526.0487
   1   2.0000     -19.324494      -525.8462
   2   2.0000     -19.322763      -525.7991
   3   2.0000     -19.314781      -525.5819
   4   2.0000     -14.565231      -396.3401
   5   2.0000     -14.562887      -396.2763
   6   2.0000     -14.555812      -396.0838
   7   2.0000     -14.554268      -396.0418
   8   2.0000     -10.507520      -285.9242
   9   2.0000     -10.499647      -285.7099
  10   2.0000     -10.483956      -285.2830
  11   2.0000     -10.476973      -285.0929
  12   2.0000     -10.443991      -284.1954
  13   2.0000     -10.441941      -284.1397
  14   2.0000     -10.433300      -283.9045
  15   2.0000     -10.428995      -283.7874
  16   2.0000     -10.379358      -282.4367
  17   2.0000     -10.375247      -282.3248
  18   2.0000      -1.222661       -33.2703
  19   2.0000      -1.212605       -32.9966
  20   2.0000      -1.196724       -32.5645
  21   2.0000      -1.187828       -32.3225
  22   2.0000      -1.117154       -30.3993
  23   2.0000      -1.093719       -29.7616
  24   2.0000      -1.064808       -28.9749
  25   2.0000      -1.052790       -28.6479
  26   2.0000      -0.972710       -26.4688
  27   2.0000      -0.944477       -25.7005
  28   2.0000      -0.884815       -24.0771
  29   2.0000      -0.835731       -22.7414
  30   2.0000      -0.825915       -22.4743
  31   2.0000      -0.800414       -21.7804
  32   2.0000      -0.785896       -21.3853
  33   2.0000      -0.774645       -21.0792
  34   2.0000      -0.697899       -18.9908
  35   2.0000      -0.689790       -18.7701
  36   2.0000      -0.683644       -18.6029
  37   2.0000      -0.658364       -17.9150
  38   2.0000      -0.648206       -17.6386
  39   2.0000      -0.643312       -17.5054
  40   2.0000      -0.616085       -16.7645
  41   2.0000      -0.600286       -16.3346
  42   2.0000      -0.584640       -15.9089
  43   2.0000      -0.578447       -15.7404
  44   2.0000      -0.576732       -15.6937
  45   2.0000      -0.569687       -15.5020
  46   2.0000      -0.564977       -15.3738
  47   2.0000      -0.558150       -15.1880
  48   2.0000      -0.554365       -15.0850
  49   2.0000      -0.547031       -14.8855
  50   2.0000      -0.544736       -14.8230
  51   2.0000      -0.538871       -14.6634
  52   2.0000      -0.530223       -14.4281
  53   2.0000      -0.520935       -14.1754
  54   2.0000      -0.507440       -13.8081
  55   2.0000      -0.506061       -13.7706
  56   2.0000      -0.484261       -13.1774
  57   2.0000      -0.420875       -11.4526
  58   2.0000      -0.413247       -11.2450
  59   2.0000      -0.404604       -11.0098
  60   2.0000      -0.400077       -10.8866
  61   2.0000      -0.390904       -10.6370
  62   2.0000      -0.387837       -10.5536
  63   2.0000      -0.383096       -10.4246
  64   2.0000      -0.375449       -10.2165
  65   2.0000      -0.295047        -8.0286
  66   0.0000      -0.098385        -2.6772
  67   0.0000       0.006365         0.1732
  68   0.0000       0.028359         0.7717
  69   0.0000       0.031011         0.8439
  70   0.0000       0.039377         1.0715

MULLIKEN ATOMIC CHARGES
-----------------------
   0 O :   -0.680652
   1 O :   -0.667133
   2 O :   -0.654494
   3 O :   -0.633162
   4 N :   -0.293267
   5 N :   -0.305297
   6 N :    0.075803
   7 N :    0.052202
   8 C :    0.270505
   9 C :    0.361624
  10 C :   -0.012365
  11 C :    0.665430
  12 C :   -1.271590
  13 C :   -1.294351
  14 C :    0.417144
  15 C :    0.094117
  16 C :    0.428857
  17 C :    0.351617
  18 H :    0.656397
  19 H :    0.481992
  20 H :    0.311856
  21 H :    0.241496
  22 H :    0.319458
  23 H :    0.331994
  24 H :    0.231351
  25 H :    0.335428
  26 H :    0.059101
  27 H :    0.070220
  28 H :    0.022714
  29 H :    0.033007
Sum of atomic charges:   -0.0000000

LOEWDIN ATOMIC CHARGES
----------------------
   0 O :    0.093015
   1 O :    0.104731
   2 O :    0.093884
   3 O :    0.104931
   4 N :    0.269391
   5 N :    0.274750
   6 N :    0.322632
   7 N :    0.329821
   8 C :    0.014422
   9 C :   -0.004707
  10 C :   -0.079896
  11 C :   -0.102569
  12 C :    0.181554
  13 C :    0.189913
  14 C :   -0.418290
  15 C :   -0.408036
  16 C :   -0.496349
  17 C :   -0.484759
  18 H :    0.032938
  19 H :    0.046235
  20 H :   -0.001436
  21 H :   -0.010124
  22 H :    0.010893
  23 H :    0.017639
  24 H :   -0.011856
  25 H :    0.003385
  26 H :   -0.028702
  27 H :   -0.028420
  28 H :   -0.009495
  29 H :   -0.005494

  Mayer bond orders larger than 0.100000
B(  0-O , 14-C ) :   1.3159 B(  1-O , 15-C ) :   1.4253 B(  2-O , 16-C ) :   1.5207
B(  3-O , 17-C ) :   1.5439 B(  4-N ,  5-N ) :   0.1106 B(  4-N ,  8-C ) :   0.2909
B(  4-N , 10-C ) :   0.3237 B(  4-N , 16-C ) :   1.0357 B(  4-N , 26-H ) :   1.0980
B(  5-N ,  9-C ) :   0.3682 B(  5-N , 17-C ) :   1.1536 B(  5-N , 27-H ) :   1.0611
B(  6-N ,  8-C ) :  -0.1447 B(  6-N , 10-C ) :   0.1120 B(  6-N , 14-C ) :   1.0949
B(  6-N , 16-C ) :   0.9509 B(  6-N , 28-H ) :   1.1043 B(  7-N , 11-C ) :   0.1363
B(  7-N , 15-C ) :   1.0013 B(  7-N , 17-C ) :   0.9526 B(  7-N , 29-H ) :   1.0856
B(  8-C ,  9-C ) :   0.6394 B(  8-C , 11-C ) :  -0.1372 B(  8-C , 12-C ) :   0.6388
B(  8-C , 14-C ) :   0.7450 B(  8-C , 15-C ) :   0.1345 B(  8-C , 16-C ) :   0.1079
B(  8-C , 18-H ) :  -0.1520 B(  8-C , 20-H ) :  -0.1101 B(  9-C , 10-C ) :   0.2505
B(  9-C , 13-C ) :   0.5424 B(  9-C , 14-C ) :   0.1445 B(  9-C , 15-C ) :   0.7779
B(  9-C , 25-H ) :  -0.1000 B( 10-C , 11-C ) :   0.6829 B( 10-C , 16-C ) :  -0.1219
B( 10-C , 18-H ) :   0.6353 B( 11-C , 13-C ) :  -0.1209 B( 11-C , 15-C ) :  -0.2260
B( 11-C , 17-C ) :  -0.2090 B( 11-C , 19-H ) :   0.8843 B( 12-C , 20-H ) :   1.0108
B( 12-C , 21-H ) :   0.8838 B( 12-C , 22-H ) :   0.9231 B( 13-C , 23-H ) :   0.8993
B( 13-C , 24-H ) :   0.9415 B( 13-C , 25-H ) :   0.9687

Dispersion correction           -0.059167993
FINAL SINGLE POINT ENERGY      -908.795854637147

DIPOLE MOMENT
-------------

Method             : SCF
Type of density    : Electron Density
Multiplicity       :   1
Irrep              :   0
Energy             :  -908.7366866443805975 Eh
Relativity type    :
Basis              : AO
                                X                 Y                 Z
Electronic contribution:     -2.721310601     -10.228160832      -7.411553056
Nuclear contribution   :      2.320716483      11.828855447      10.152710567
                        -----------------------------------------
Total Dipole Moment    :     -0.400594118       1.600694615       2.741157511
                        -----------------------------------------
Magnitude (a.u.)       :      3.199475488
Magnitude (Debye)      :      8.132420397

Rotational constants in cm-1:             0.019183             0.015451             0.012529
Rotational constants in MHz :           575.099625           463.203773           375.612240

                             ****ORCA TERMINATED NORMALLY****
TOTAL RUN TIME: 0 days 1 hours 55 minutes 58 seconds 710 msec
