                         Program Version 6.0.0  -   RELEASE  -
|  1> ! Engrad wB97M-D3BJ def2-TZVPPD
|  2> %pal nprocs 8 end%pal nprocs 16 end
|  3> %tddft nroots 2 Iroot 1
|  4>  sf true
|  5> end
|  6> *xyz 0 3
|  7> O   0.01728044631025 0.78982862134916 -4.41194598e-05
|  8> C   0.73135626736377 -0.4337571234959 0.00012083972935
|  9> C   -0.7251280408678 -0.44055772897444 -0.00012167336236
| 10> H   1.26436274732754 -0.65744895633716 0.91616795559148
| 11> H   1.26416077677975 -0.65751627260747 -0.91605575218966
| 12> H   -1.25804466217685 -0.64937611552597 -0.91827071736467
| 13> H   -1.25781994550703 -0.64929747381411 0.91820346705567
| 14> *
| 15>
| 16>                          ****END OF INPUT****

CARTESIAN COORDINATES (ANGSTROEM)
---------------------------------
  O      0.017280    0.789829   -0.000044
  C      0.731356   -0.433757    0.000121
  C     -0.725128   -0.440558   -0.000122
  H      1.264363   -0.657449    0.916168
  H      1.264161   -0.657516   -0.916056
  H     -1.258045   -0.649376   -0.918271
  H     -1.257820   -0.649297    0.918203

 Total Charge           Charge          ....    0
 Multiplicity           Mult            ....    3
 Number of Electrons    NEL             ....   24
 Basis Dimension        Dim             ....  182

ORBITAL ENERGIES
----------------
                 SPIN UP ORBITALS
  NO   OCC          E(Eh)            E(eV)
   0   1.0000     -19.517218      -531.0905
   1   1.0000     -10.444816      -284.2179
   2   1.0000     -10.430749      -283.8351
   3   1.0000      -1.343107       -36.5478
   4   1.0000      -0.884742       -24.0750
   5   1.0000      -0.817375       -22.2419
   6   1.0000      -0.722039       -19.6477
   7   1.0000      -0.684338       -18.6218
   8   1.0000      -0.608112       -16.5476
   9   1.0000      -0.536089       -14.5877
  10   1.0000      -0.530189       -14.4272
  11   1.0000      -0.492425       -13.3996
  12   1.0000      -0.117984        -3.2105
  13   0.0000       0.029619         0.8060
  14   0.0000       0.052515         1.4290
  15   0.0000       0.065241         1.7753
  16   0.0000       0.085275         2.3205
  17   0.0000       0.094413         2.5691

                 SPIN DOWN ORBITALS
  NO   OCC          E(Eh)            E(eV)
   0   1.0000     -19.485962      -530.2400
   1   1.0000     -10.443819      -284.1908
   2   1.0000     -10.427822      -283.7555
   3   1.0000      -1.279061       -34.8050
   4   1.0000      -0.853520       -23.2255
   5   1.0000      -0.802549       -21.8385
   6   1.0000      -0.661232       -17.9930
   7   1.0000      -0.654753       -17.8167
   8   1.0000      -0.577828       -15.7235
   9   1.0000      -0.517792       -14.0898
  10   1.0000      -0.475455       -12.9378
  11   0.0000      -0.151766        -4.1298
  12   0.0000       0.035637         0.9697
  13   0.0000       0.050815         1.3827
  14   0.0000       0.064695         1.7604
  15   0.0000       0.075539         2.0555

----------------------------------------------------------------------------------------------------
          SPIN FLIP ABSORPTION SPECTRUM VIA TRANSITION ELECTRIC DIPOLE MOMENTS
----------------------------------------------------------------------------------------------------
     Transition      Energy     Energy  Wavelength fosc(D2)      D2        DX        DY        DZ
                      (eV)      (cm-1)    (nm)                 (au**2)    (au)      (au)      (au)
----------------------------------------------------------------------------------------------------
  1-3A  ->  2-3A    6.983282   56324.0   177.5   0.005450383   0.03186   0.00000  -0.00006  -0.17849

Dispersion correction             ... done (  0.0 sec)

MULLIKEN ATOMIC CHARGES AND SPIN DENSITIES
------------------------------------------
   0 O :   -0.357963    0.113528
   1 C :   -0.010625   -0.184860
   2 C :   -0.209688   -0.226014
   3 H :    0.140909    0.042138
   4 H :    0.140768    0.042137
   5 H :    0.148326    0.106578
   6 H :    0.148274    0.106493
Sum of atomic charges       :    0.0000000

LOEWDIN ATOMIC CHARGES AND SPIN DENSITIES
-----------------------------------------
   0 O :   -0.149494    0.133128
   1 C :    0.007670   -0.043131
   2 C :    0.033681   -0.030627
   3 H :    0.028778   -0.017677
   4 H :    0.028774   -0.017679
   5 H :    0.025294   -0.012007
   6 H :    0.025297   -0.012007

  Mayer bond orders larger than 0.100000
B(  0-O ,  1-C ) :   1.2164 B(  0-O ,  2-C ) :   1.2793 B(  0-O ,  3-H ) :  -0.1025
B(  0-O ,  4-H ) :  -0.1027 B(  0-O ,  5-H ) :  -0.1569 B(  0-O ,  6-H ) :  -0.1571
B(  1-C ,  2-C ) :   0.7134 B(  1-C ,  3-H ) :   1.0681 B(  1-C ,  4-H ) :   1.0683
B(  2-C ,  5-H ) :   1.1370 B(  2-C ,  6-H ) :   1.1372

Dispersion correction           -0.005227466
FINAL SINGLE POINT ENERGY      -153.878805916831

DIPOLE MOMENT
-------------

Method             : TDA/CIS
Type of density    : Electron Density
Level              : Relaxed density
State              :   1
Multiplicity       :   3
Irrep              :   0
Energy             :     0.0000000000000000 Eh
Relativity type    :
Basis              : AO
                                X                 Y                 Z
Electronic contribution:      0.034522709      -0.108275053       0.000003521
Nuclear contribution   :     -0.019001286      -2.397657210       0.000098870
                        -----------------------------------------
Total Dipole Moment    :      0.015521423      -2.505932263       0.000102391
                        -----------------------------------------
Magnitude (a.u.)       :      2.505980333
Magnitude (Debye)      :      6.369695799

Rotational constants in cm-1:             0.857351             0.747146             0.475645
Rotational constants in MHz :         25702.749968         22398.868589         14259.470421

                             ****ORCA TERMINATED NORMALLY****
TOTAL RUN TIME: 0 days 0 hours 0 minutes 26 seconds 229 msec
