                         Program Version 6.0.0  -   RELEASE  -
|  1> ! opt def2-TZVPPD wB97M-D3BJ
|  2> %pal nprocs 8 end%pal nprocs 32 end
|  3> %geom Constraints
|  4> {B 9 8 3.1 C}
|  5> {A 8 9 11 52.285714285714285 C}
|  6> end
|  7> MaxIter 300
|  8> end
|  9> *xyz 0 1
| 10> O   2.98579685529314 0.88758230159078 -0.86184571092411
| 11> O   -0.03983205397054 0.68929041702508 -2.10362336723772
| 12> O   0.93431434349854 -3.13274393337945 -0.68767288184107
| 13> O   -3.75829998830163 -0.84727300865116 -0.0472717177755
| 14> N   0.21184538946282 -1.54604804365365 0.7617588924445
| 15> N   -2.13631993928911 0.03188773433438 1.27350571071531
| 16> N   2.02598672506387 -1.14318467211666 -0.64531219127023
| 17> N   -1.91814233924584 0.03137116037665 -1.04498946748291
| 18> C   1.18097737274226 0.71693507080484 0.70173889017321
| 19> C   -0.20686880480777 1.27024627933494 0.21345042231937
| 20> C   0.41441080275909 -0.34173258966541 1.52336266615173
| 21> C   -0.82922175114212 0.58960593673968 1.44434972027296
| 22> C   1.92822011286806 1.69488653817281 1.5963734975385
| 23> C   -0.37809776891576 2.77134929626422 0.04819649358288
| 24> C   2.1403947470937 0.1972384729179 -0.35038567829864
| 25> C   -0.67361678962426 0.6214190571346 -1.0793014500539
| 26> C   1.04142578622994 -2.02697492875068 -0.21027082435993
| 27> C   -2.68467002550422 -0.30396816036989 0.07167054343891
| 28> H   0.80817443950001 -0.54572267081061 2.51895215321335
| 29> H   -0.83785272399001 1.27240685039143 2.28901317073582
| 30> H   2.31167340578204 2.52284411740894 1.00913016264629
| 31> H   1.28982602448342 2.08257620823614 2.38710022492991
| 32> H   2.77390820759972 1.19140411795486 2.06045858523949
| 33> H   -1.41857211141493 3.00964947214868 -0.16882755561625
| 34> H   -0.09065531563179 3.29799318042223 0.95389844358819
| 35> H   0.23426221611057 3.12492645074476 -0.77764887675592
| 36> H   -0.46772570547622 -2.21560145172536 1.0787081584806
| 37> H   -2.71769301149571 -0.17090724573546 2.06627440900372
| 38> H   2.60065167263658 -1.49057255715425 -1.3966820077142
| 39> H   -2.27169977231386 -0.32388339999036 -1.91951041514436
| 40> *
| 41>
| 42>                          ****END OF INPUT****
 Total Charge           Charge          ....    0
 Multiplicity           Mult            ....    1
 Number of Electrons    NEL             ....  132
Dispersion correction           -0.052476463
FINAL SINGLE POINT ENERGY      -908.654002746359
Dispersion correction             ... done (  0.0 sec)
Dispersion correction           -0.053269227
FINAL SINGLE POINT ENERGY      -908.687836574536
Dispersion correction             ... done (  0.0 sec)
Dispersion correction           -0.054061396
FINAL SINGLE POINT ENERGY      -908.712783577791
Dispersion correction             ... done (  0.0 sec)
FINAL SINGLE POINT ENERGY      -908.738751062449
FINAL SINGLE POINT ENERGY      -908.757810455630
FINAL SINGLE POINT ENERGY      -908.764841670500
FINAL SINGLE POINT ENERGY      -908.767905294076
FINAL SINGLE POINT ENERGY      -908.769045312975
FINAL SINGLE POINT ENERGY      -908.769852507603
FINAL SINGLE POINT ENERGY      -908.770305748789
FINAL SINGLE POINT ENERGY      -908.772074316573
FINAL SINGLE POINT ENERGY      -908.772153977353
FINAL SINGLE POINT ENERGY      -908.772227854734
FINAL SINGLE POINT ENERGY      -908.772305985451
FINAL SINGLE POINT ENERGY      -908.772376238882
FINAL SINGLE POINT ENERGY      -908.772400870871
FINAL SINGLE POINT ENERGY      -908.772415308182
Dispersion correction             ... done (  0.0 sec)
Dispersion correction           -0.056868770
FINAL SINGLE POINT ENERGY      -908.772420390032
Dispersion correction             ... done (  0.0 sec)
Dispersion correction           -0.056859718
FINAL SINGLE POINT ENERGY      -908.772421606830
Dispersion correction             ... done (  0.0 sec)
                    ***********************HURRAY********************

CARTESIAN COORDINATES (ANGSTROEM)
---------------------------------
  O      3.919187    0.316377    0.109629
  O     -1.471241    1.310211   -2.462087
  O      1.044717   -2.955771   -1.145084
  O     -3.599410   -1.282897    0.544449
  N      0.266315   -1.369091    0.272217
  N     -2.000141    0.129877    1.329276
  N      2.473478   -1.332443   -0.461528
  N     -2.295465   -0.186732   -0.961771
  C      1.768497    0.386520    1.064449
  C     -0.818320    1.534880   -0.200323
  C      0.440497   -0.296412    1.223513
  C     -0.683939    0.730663    1.115154
  C      2.098717    1.560296    1.886317
  C     -0.636256    2.990629   -0.175296
  C      2.811517   -0.178085    0.217515
  C     -1.510589    0.905363   -1.318562
  C      1.235057   -1.960204   -0.484445
  C     -2.696086   -0.506253    0.330761
  H      0.395564   -0.716057    2.246698
  H     -0.537004    1.456747    1.913404
  H      3.176231    1.662837    1.974906
  H      1.732205    2.491682    1.426234
  H      1.636497    1.504001    2.873784
  H     -1.365434    3.457938    0.499509
  H      0.347334    3.261978    0.230310
  H     -0.758876    3.412911   -1.167538
  H     -0.567262   -1.926741    0.337319
  H     -2.297208   -0.136727    2.252182
  H      3.172354   -1.728494   -1.068638
  H     -2.828335   -0.622006   -1.697753

 Multiplicity           Mult            ....    1
 Number of Electrons    NEL             ....  132
 Basis Dimension        Dim             ....  882

ORBITAL ENERGIES
----------------

  NO   OCC          E(Eh)            E(eV)
   0   2.0000     -19.335126      -526.1355
   1   2.0000     -19.330957      -526.0221
   2   2.0000     -19.328877      -525.9655
   3   2.0000     -19.315532      -525.6023
   4   2.0000     -14.566562      -396.3763
   5   2.0000     -14.565977      -396.3604
   6   2.0000     -14.564014      -396.3070
   7   2.0000     -14.557803      -396.1380
   8   2.0000     -10.512054      -286.0475
   9   2.0000     -10.503616      -285.8179
  10   2.0000     -10.486673      -285.3569
  11   2.0000     -10.484888      -285.3083
  12   2.0000     -10.448115      -284.3077
  13   2.0000     -10.444848      -284.2188
  14   2.0000     -10.432935      -283.8946
  15   2.0000     -10.432591      -283.8852
  16   2.0000     -10.383234      -282.5422
  17   2.0000     -10.382032      -282.5095
  18   2.0000      -1.225671       -33.3522
  19   2.0000      -1.217581       -33.1321
  20   2.0000      -1.199749       -32.6468
  21   2.0000      -1.194522       -32.5046
  22   2.0000      -1.120506       -30.4905
  23   2.0000      -1.098598       -29.8944
  24   2.0000      -1.069416       -29.1003
  25   2.0000      -1.059092       -28.8194
  26   2.0000      -0.982130       -26.7251
  27   2.0000      -0.953973       -25.9589
  28   2.0000      -0.896631       -24.3986
  29   2.0000      -0.843346       -22.9486
  30   2.0000      -0.830269       -22.5928
  31   2.0000      -0.801273       -21.8037
  32   2.0000      -0.787340       -21.4246
  33   2.0000      -0.785683       -21.3795
  34   2.0000      -0.704186       -19.1619
  35   2.0000      -0.698542       -19.0083
  36   2.0000      -0.690498       -18.7894
  37   2.0000      -0.676727       -18.4147
  38   2.0000      -0.646291       -17.5865
  39   2.0000      -0.638519       -17.3750
  40   2.0000      -0.626753       -17.0548
  41   2.0000      -0.604415       -16.4470
  42   2.0000      -0.595457       -16.2032
  43   2.0000      -0.586183       -15.9509
  44   2.0000      -0.576068       -15.6756
  45   2.0000      -0.575250       -15.6534
  46   2.0000      -0.568216       -15.4619
  47   2.0000      -0.563843       -15.3429
  48   2.0000      -0.559390       -15.2218
  49   2.0000      -0.554661       -15.0931
  50   2.0000      -0.551118       -14.9967
  51   2.0000      -0.546561       -14.8727
  52   2.0000      -0.532478       -14.4895
  53   2.0000      -0.523119       -14.2348
  54   2.0000      -0.514239       -13.9932
  55   2.0000      -0.509182       -13.8556
  56   2.0000      -0.492398       -13.3988
  57   2.0000      -0.424244       -11.5443
  58   2.0000      -0.420554       -11.4439
  59   2.0000      -0.409614       -11.1462
  60   2.0000      -0.398505       -10.8439
  61   2.0000      -0.397889       -10.8271
  62   2.0000      -0.393832       -10.7167
  63   2.0000      -0.388481       -10.5711
  64   2.0000      -0.379363       -10.3230
  65   2.0000      -0.283014        -7.7012
  66   0.0000      -0.121893        -3.3169
  67   0.0000       0.007127         0.1939
  68   0.0000       0.027933         0.7601
  69   0.0000       0.031950         0.8694
  70   0.0000       0.033603         0.9144

MULLIKEN ATOMIC CHARGES
-----------------------
   0 O :   -0.658418
   1 O :   -0.639835
   2 O :   -0.662312
   3 O :   -0.634778
   4 N :   -0.118264
   5 N :   -0.297572
   6 N :   -0.044389
   7 N :    0.044694
   8 C :    0.487225
   9 C :    0.271452
  10 C :    0.075778
  11 C :    0.671206
  12 C :   -1.620376
  13 C :   -1.455524
  14 C :    0.594640
  15 C :    0.160422
  16 C :    0.463314
  17 C :    0.372072
  18 H :    0.433578
  19 H :    0.574338
  20 H :    0.343720
  21 H :    0.230417
  22 H :    0.348768
  23 H :    0.345781
  24 H :    0.190240
  25 H :    0.370287
  26 H :    0.008133
  27 H :    0.072227
  28 H :    0.040587
  29 H :    0.032590
Sum of atomic charges:   -0.0000000

LOEWDIN ATOMIC CHARGES
----------------------
   0 O :    0.088878
   1 O :    0.104081
   2 O :    0.090879
   3 O :    0.092031
   4 N :    0.290613
   5 N :    0.282630
   6 N :    0.329393
   7 N :    0.321976
   8 C :    0.017250
   9 C :    0.024929
  10 C :   -0.152568
  11 C :   -0.126170
  12 C :    0.182561
  13 C :    0.180876
  14 C :   -0.396088
  15 C :   -0.402661
  16 C :   -0.471100
  17 C :   -0.498495
  18 H :    0.066003
  19 H :    0.040421
  20 H :    0.002166
  21 H :   -0.005684
  22 H :    0.009597
  23 H :    0.021517
  24 H :   -0.014293
  25 H :    0.002961
  26 H :   -0.033465
  27 H :   -0.029651
  28 H :   -0.009786
  29 H :   -0.008800

  Mayer bond orders larger than 0.100000
B(  0-O , 14-C ) :   1.2592 B(  1-O , 15-C ) :   1.4182 B(  2-O , 16-C ) :   1.5749
B(  3-O , 17-C ) :   1.5949 B(  4-N , 10-C ) :   0.6653 B(  4-N , 16-C ) :   1.0960
B(  4-N , 26-H ) :   1.1271 B(  5-N ,  9-C ) :   0.2465 B(  5-N , 10-C ) :   0.1644
B(  5-N , 17-C ) :   1.1728 B(  5-N , 27-H ) :   1.0709 B(  6-N , 14-C ) :   1.0162
B(  6-N , 16-C ) :   0.9323 B(  6-N , 28-H ) :   1.1262 B(  7-N , 15-C ) :   1.0473
B(  7-N , 17-C ) :   0.9642 B(  7-N , 29-H ) :   1.0925 B(  8-C ,  9-C ) :   0.5499
B(  8-C , 10-C ) :   0.7528 B(  8-C , 12-C ) :   0.1621 B(  8-C , 14-C ) :   0.7486
B(  8-C , 22-H ) :  -0.1409 B(  9-C , 10-C ) :   0.3696 B(  9-C , 11-C ) :  -0.2460
B(  9-C , 13-C ) :   0.3834 B(  9-C , 15-C ) :   0.7884 B(  9-C , 19-H ) :  -0.1393
B(  9-C , 24-H ) :  -0.1247 B(  9-C , 25-H ) :  -0.1167 B( 10-C , 11-C ) :   0.4773
B( 10-C , 12-C ) :  -0.2398 B( 10-C , 14-C ) :   0.2332 B( 10-C , 18-H ) :   0.9067
B( 11-C , 13-C ) :  -0.2219 B( 11-C , 15-C ) :  -0.1610 B( 11-C , 17-C ) :  -0.1721
B( 11-C , 19-H ) :   0.8159 B( 12-C , 14-C ) :  -0.2547 B( 12-C , 20-H ) :   1.0061
B( 12-C , 21-H ) :   0.9221 B( 12-C , 22-H ) :   0.9952 B( 13-C , 23-H ) :   0.8499
B( 13-C , 24-H ) :   1.1078 B( 13-C , 25-H ) :   0.9424

Dispersion correction           -0.056864030
FINAL SINGLE POINT ENERGY      -908.772421835909

DIPOLE MOMENT
-------------

Method             : SCF
Type of density    : Electron Density
Multiplicity       :   1
Irrep              :   0
Energy             :  -908.7155578060175003 Eh
Relativity type    :
Basis              : AO
                                X                 Y                 Z
Electronic contribution:     -1.948014065     -10.098660721      -6.441513957
Nuclear contribution   :      1.841904165      11.591400723       8.761594943
                        -----------------------------------------
Total Dipole Moment    :     -0.106109901       1.492740003       2.320080986
                        -----------------------------------------
Magnitude (a.u.)       :      2.760852732
Magnitude (Debye)      :      7.017529953

Rotational constants in cm-1:             0.020202             0.011927             0.010155
Rotational constants in MHz :           605.646276           357.568902           304.430853

                             ****ORCA TERMINATED NORMALLY****
TOTAL RUN TIME: 0 days 1 hours 21 minutes 11 seconds 992 msec
