                         Program Version 6.0.0  -   RELEASE  -
|  1> ! Engrad def2-TZVPPD wB97M-D3BJ
|  2> %pal nprocs 8 end%pal nprocs 64 end
|  3>  %tddft nroots 2 Iroot 2
|  4> sf true
|  5> end
|  6> *xyz 0 3
|  7> O   2.22650037937725 -0.10794299312477 -1.17881679902125
|  8> O   -0.24410342528677 2.68740738951965 -2.33197666532805
|  9> O   0.28866185563783 -3.75557104406023 0.64119645662306
| 10> O   -2.23764177854401 -1.14272076268699 -1.28483133944912
| 11> N   0.38137024661306 -1.88413780404563 1.92174920063565
| 12> N   -1.403908644635 -0.1402740579211 0.55678587640262
| 13> N   1.08031738444869 -1.84162736553342 -0.29619410358335
| 14> N   -0.8657846228498 0.61702722994591 -1.62948532919554
| 15> C   1.21856682083196 0.25761115459086 0.93932829240771
| 16> C   -0.19984318245284 2.54137266169682 -0.14812108803067
| 17> C   0.56989146442705 -0.4823627953453 2.0606433874091
| 18> C   -0.35588327260646 0.45679930412561 1.30066978338276
| 19> C   2.18018321106523 1.3632317797726 1.26965887798567
| 20> C   -1.34257754640852 3.31171235977283 0.37701936173435
| 21> C   1.55791223027969 -0.54413158135091 -0.27489765966803
| 22> C   -0.46377812609977 1.91448501103829 -1.4074070059925
| 23> C   0.55280605293361 -2.5833430626591 0.75981334698195
| 24> C   -1.54552658179206 -0.27552188803774 -0.80511323433483
| 25> H   0.85000064873191 -0.18613167369461 3.06051261829503
| 26> H   -0.56051146638478 1.39001519977645 1.80093146419093
| 27> H   2.37861270913683 1.96796452952903 0.39459784083819
| 28> H   1.77097102531179 2.00482967326898 2.04666794869651
| 29> H   3.11261276300887 0.9285268823234 1.62933882851713
| 30> H   -2.31305421004438 2.80930107174342 0.33482590791863
| 31> H   -1.16295453779135 3.74729396429475 1.35605346262881
| 32> H   -1.39604082976497 4.13844648783617 -0.34563184044711
| 33> H   -0.03433992571415 -2.41144959110235 2.66809167023442
| 34> H   -1.90539817012097 -0.88079329994741 1.02238080815903
| 35> H   1.28371951268054 -2.37944802537214 -1.12409241245874
| 36> H   -0.96817998398851 0.39443124564692 -2.60909765553236
| 37> *
| 38>
| 39>                          ****END OF INPUT****

CARTESIAN COORDINATES (ANGSTROEM)
---------------------------------
  O      2.226500   -0.107943   -1.178817
  O     -0.244103    2.687407   -2.331977
  O      0.288662   -3.755571    0.641196
  O     -2.237642   -1.142721   -1.284831
  N      0.381370   -1.884138    1.921749
  N     -1.403909   -0.140274    0.556786
  N      1.080317   -1.841627   -0.296194
  N     -0.865785    0.617027   -1.629485
  C      1.218567    0.257611    0.939328
  C     -0.199843    2.541373   -0.148121
  C      0.569891   -0.482363    2.060643
  C     -0.355883    0.456799    1.300670
  C      2.180183    1.363232    1.269659
  C     -1.342578    3.311712    0.377019
  C      1.557912   -0.544132   -0.274898
  C     -0.463778    1.914485   -1.407407
  C      0.552806   -2.583343    0.759813
  C     -1.545527   -0.275522   -0.805113
  H      0.850001   -0.186132    3.060513
  H     -0.560511    1.390015    1.800931
  H      2.378613    1.967965    0.394598
  H      1.770971    2.004830    2.046668
  H      3.112613    0.928527    1.629339
  H     -2.313054    2.809301    0.334826
  H     -1.162955    3.747294    1.356053
  H     -1.396041    4.138446   -0.345632
  H     -0.034340   -2.411450    2.668092
  H     -1.905398   -0.880793    1.022381
  H      1.283720   -2.379448   -1.124092
  H     -0.968180    0.394431   -2.609098

 Total Charge           Charge          ....    0
 Multiplicity           Mult            ....    3
 Number of Electrons    NEL             ....  132
 Basis Dimension        Dim             ....  882

ORBITAL ENERGIES
----------------
                 SPIN UP ORBITALS
  NO   OCC          E(Eh)            E(eV)
   0   1.0000     -19.335725      -526.1518
   1   1.0000     -19.334161      -526.1093
   2   1.0000     -19.323635      -525.8229
   3   1.0000     -19.321418      -525.7625
   4   1.0000     -14.568107      -396.4184
   5   1.0000     -14.568019      -396.4159
   6   1.0000     -14.567164      -396.3927
   7   1.0000     -14.565213      -396.3396
   8   1.0000     -10.510964      -286.0179
   9   1.0000     -10.508956      -285.9632
  10   1.0000     -10.490795      -285.4690
  11   1.0000     -10.481829      -285.2251
  12   1.0000     -10.438911      -284.0572
  13   1.0000     -10.438532      -284.0469
  14   1.0000     -10.417438      -283.4729
  15   1.0000     -10.398785      -282.9653
  16   1.0000     -10.373747      -282.2840
  17   1.0000     -10.367662      -282.1184
  18   1.0000      -1.226815       -33.3833
  19   1.0000      -1.220872       -33.2216
  20   1.0000      -1.203101       -32.7380
  21   1.0000      -1.200018       -32.6542
  22   1.0000      -1.127406       -30.6783
  23   1.0000      -1.092609       -29.7314
  24   1.0000      -1.073642       -29.2153
  25   1.0000      -1.063807       -28.9477
  26   1.0000      -1.004986       -27.3470
  27   1.0000      -0.938153       -25.5284
  28   1.0000      -0.881445       -23.9853
  29   1.0000      -0.823957       -22.4210
  30   1.0000      -0.816212       -22.2102
  31   1.0000      -0.808403       -21.9978
  32   1.0000      -0.791113       -21.5273
  33   1.0000      -0.776870       -21.1397
  34   1.0000      -0.724699       -19.7201
  35   1.0000      -0.701714       -19.0946
  36   1.0000      -0.695152       -18.9160
  37   1.0000      -0.665162       -18.1000
  38   1.0000      -0.642357       -17.4794
  39   1.0000      -0.631203       -17.1759
  40   1.0000      -0.615082       -16.7372
  41   1.0000      -0.608172       -16.5492
  42   1.0000      -0.598865       -16.2959
  43   1.0000      -0.590167       -16.0593
  44   1.0000      -0.579765       -15.7762
  45   1.0000      -0.569362       -15.4931
  46   1.0000      -0.564656       -15.3651
  47   1.0000      -0.561438       -15.2775
  48   1.0000      -0.556577       -15.1452
  49   1.0000      -0.554829       -15.0977
  50   1.0000      -0.543789       -14.7973
  51   1.0000      -0.540698       -14.7131
  52   1.0000      -0.536365       -14.5952
  53   1.0000      -0.512862       -13.9557
  54   1.0000      -0.506757       -13.7896
  55   1.0000      -0.486009       -13.2250
  56   1.0000      -0.442288       -12.0353
  57   1.0000      -0.426480       -11.6051
  58   1.0000      -0.419338       -11.4108
  59   1.0000      -0.410378       -11.1670
  60   1.0000      -0.402531       -10.9534
  61   1.0000      -0.399743       -10.8775
  62   1.0000      -0.395102       -10.7513
  63   1.0000      -0.388463       -10.5706
  64   1.0000      -0.385866       -10.4999
  65   1.0000      -0.375234       -10.2106
  66   1.0000      -0.297200        -8.0872
  67   0.0000       0.009494         0.2584
  68   0.0000       0.029352         0.7987
  69   0.0000       0.032562         0.8861
  70   0.0000       0.036558         0.9948
  71   0.0000       0.044313         1.2058

                 SPIN DOWN ORBITALS
  NO   OCC          E(Eh)            E(eV)
   0   1.0000     -19.335670      -526.1503
   1   1.0000     -19.328774      -525.9627
   2   1.0000     -19.323650      -525.8233
   3   1.0000     -19.321413      -525.7624
   4   1.0000     -14.568021      -396.4160
   5   1.0000     -14.567971      -396.4146
   6   1.0000     -14.567036      -396.3892
   7   1.0000     -14.565207      -396.3394
   8   1.0000     -10.510986      -286.0185
   9   1.0000     -10.508960      -285.9633
  10   1.0000     -10.490825      -285.4699
  11   1.0000     -10.482364      -285.2396
  12   1.0000     -10.438656      -284.0503
  13   1.0000     -10.438148      -284.0365
  14   1.0000     -10.416826      -283.4562
  15   1.0000     -10.374016      -282.2913
  16   1.0000     -10.371136      -282.2130
  17   1.0000     -10.367472      -282.1133
  18   1.0000      -1.226446       -33.3733
  19   1.0000      -1.219865       -33.1942
  20   1.0000      -1.202980       -32.7348
  21   1.0000      -1.192190       -32.4411
  22   1.0000      -1.126937       -30.6655
  23   1.0000      -1.091767       -29.7085
  24   1.0000      -1.072554       -29.1857
  25   1.0000      -1.063174       -28.9304
  26   1.0000      -1.003865       -27.3166
  27   1.0000      -0.909686       -24.7538
  28   1.0000      -0.880631       -23.9632
  29   1.0000      -0.822877       -22.3916
  30   1.0000      -0.812881       -22.1196
  31   1.0000      -0.802730       -21.8434
  32   1.0000      -0.787553       -21.4304
  33   1.0000      -0.771723       -20.9997
  34   1.0000      -0.719354       -19.5746
  35   1.0000      -0.699199       -19.0262
  36   1.0000      -0.687834       -18.7169
  37   1.0000      -0.663564       -18.0565
  38   1.0000      -0.635999       -17.3064
  39   1.0000      -0.627018       -17.0620
  40   1.0000      -0.612390       -16.6640
  41   1.0000      -0.605483       -16.4760
  42   1.0000      -0.588475       -16.0132
  43   1.0000      -0.581219       -15.8158
  44   1.0000      -0.575142       -15.6504
  45   1.0000      -0.563008       -15.3202
  46   1.0000      -0.559791       -15.2327
  47   1.0000      -0.553830       -15.0705
  48   1.0000      -0.553093       -15.0504
  49   1.0000      -0.552035       -15.0216
  50   1.0000      -0.538044       -14.6409
  51   1.0000      -0.533833       -14.5263
  52   1.0000      -0.526611       -14.3298
  53   1.0000      -0.512226       -13.9384
  54   1.0000      -0.494745       -13.4627
  55   1.0000      -0.484490       -13.1836
  56   1.0000      -0.432275       -11.7628
  57   1.0000      -0.422231       -11.4895
  58   1.0000      -0.418493       -11.3878
  59   1.0000      -0.405788       -11.0421
  60   1.0000      -0.396947       -10.8015
  61   1.0000      -0.393323       -10.7029
  62   1.0000      -0.385092       -10.4789
  63   1.0000      -0.381864       -10.3911
  64   1.0000      -0.373445       -10.1619
  65   0.0000      -0.055800        -1.5184
  66   0.0000       0.008760         0.2384
  67   0.0000       0.022664         0.6167
  68   0.0000       0.032296         0.8788
  69   0.0000       0.034833         0.9479

----------------------------------------------------------------------------------------------------
          SPIN FLIP ABSORPTION SPECTRUM VIA TRANSITION ELECTRIC DIPOLE MOMENTS
----------------------------------------------------------------------------------------------------
     Transition      Energy     Energy  Wavelength fosc(D2)      D2        DX        DY        DZ
                      (eV)      (cm-1)    (nm)                 (au**2)    (au)      (au)      (au)
----------------------------------------------------------------------------------------------------
  1-3A  ->  2-3A    2.095117   16898.3   591.8   0.000349882   0.00682   0.03702   0.05910  -0.04420

Dispersion correction             ... done (  0.1 sec)

MULLIKEN ATOMIC CHARGES AND SPIN DENSITIES
------------------------------------------
   0 O :   -0.649117   -0.000637
   1 O :   -0.586457    0.000287
   2 O :   -0.647687   -0.000062
   3 O :   -0.658540   -0.000030
   4 N :   -0.157810   -0.000472
   5 N :   -0.124000   -0.000282
   6 N :    0.012232   -0.000309
   7 N :    0.087729    0.002091
   8 C :    1.904763   -0.011970
   9 C :    0.247602    0.146934
  10 C :   -0.264540    0.005769
  11 C :   -0.784665   -0.030779
  12 C :   -1.608371    0.016508
  13 C :   -1.189691    0.039824
  14 C :   -0.055694    0.002488
  15 C :    0.482199   -0.176212
  16 C :    0.454901    0.000219
  17 C :    0.530861    0.006204
  18 H :    0.267287    0.000814
  19 H :    0.415811    0.011410
  20 H :    0.317535   -0.007625
  21 H :    0.335288   -0.004738
  22 H :    0.445575   -0.005027
  23 H :    0.300401    0.003844
  24 H :    0.325533   -0.006672
  25 H :    0.411299    0.007077
  26 H :    0.030980   -0.000112
  27 H :    0.100238   -0.000356
  28 H :    0.034055   -0.000006
  29 H :    0.022282    0.001821
Sum of atomic charges       :   -0.0000000

LOEWDIN ATOMIC CHARGES AND SPIN DENSITIES
-----------------------------------------
   0 O :    0.116773   -0.000588
   1 O :    0.108142   -0.011124
   2 O :    0.095692   -0.000004
   3 O :    0.097877   -0.000226
   4 N :    0.287155   -0.000441
   5 N :    0.282777   -0.001042
   6 N :    0.343102   -0.000326
   7 N :    0.333004   -0.001865
   8 C :   -0.188695   -0.001730
   9 C :    0.136494    0.042081
  10 C :   -0.066286   -0.001181
  11 C :   -0.052836   -0.002022
  12 C :    0.193333   -0.001464
  13 C :    0.107660   -0.004480
  14 C :   -0.379907   -0.000540
  15 C :   -0.477198   -0.007250
  16 C :   -0.476549   -0.000093
  17 C :   -0.474657   -0.000408
  18 H :    0.054897   -0.000088
  19 H :    0.009495   -0.001319
  20 H :   -0.009257   -0.000804
  21 H :    0.003826   -0.000157
  22 H :    0.012433   -0.000533
  23 H :    0.010592   -0.001259
  24 H :   -0.008074    0.000180
  25 H :    0.001213   -0.002934
  26 H :   -0.025541   -0.000023
  27 H :   -0.025809   -0.000036
  28 H :   -0.004432   -0.000042
  29 H :   -0.005223   -0.000283

  Mayer bond orders larger than 0.100000
B(  0-O ,  8-C ) :  -0.1495 B(  0-O , 14-C ) :   1.5948 B(  1-O , 15-C ) :   1.3833
B(  2-O , 16-C ) :   1.5718 B(  3-O , 17-C ) :   1.4820 B(  4-N , 10-C ) :   0.6323
B(  4-N , 16-C ) :   1.0985 B(  4-N , 26-H ) :   1.1286 B(  5-N , 11-C ) :   0.7191
B(  5-N , 17-C ) :   0.9522 B(  5-N , 19-H ) :  -0.1301 B(  5-N , 27-H ) :   1.0536
B(  6-N , 14-C ) :   1.0754 B(  6-N , 16-C ) :   0.9362 B(  6-N , 28-H ) :   1.1100
B(  7-N , 15-C ) :   0.9430 B(  7-N , 17-C ) :   0.9713 B(  7-N , 29-H ) :   1.1113
B(  8-C , 10-C ) :   0.5019 B(  8-C , 11-C ) :   0.1328 B(  8-C , 14-C ) :   0.1878
B(  8-C , 20-H ) :  -0.1241 B(  8-C , 21-H ) :  -0.1457 B(  9-C , 13-C ) :   0.3465
B(  9-C , 15-C ) :   0.6863 B( 10-C , 11-C ) :   0.7887 B( 10-C , 12-C ) :  -0.1081
B( 10-C , 16-C ) :  -0.1166 B( 10-C , 18-H ) :   1.1170 B( 11-C , 15-C ) :   0.1033
B( 11-C , 19-H ) :   1.0604 B( 12-C , 14-C ) :   0.1044 B( 12-C , 20-H ) :   1.0416
B( 12-C , 21-H ) :   1.0806 B( 12-C , 22-H ) :   0.7477 B( 13-C , 23-H ) :   0.9679
B( 13-C , 24-H ) :   0.9852 B( 13-C , 25-H ) :   0.8695 B( 15-C , 17-C ) :  -0.1097

Dispersion correction           -0.058690277
FINAL SINGLE POINT ENERGY      -908.660422284151

DIPOLE MOMENT
-------------

Method             : TDA/CIS
Type of density    : Electron Density
Level              : Relaxed density
State              :   2
Multiplicity       :   3
Irrep              :   0
Energy             :     0.0000000000000000 Eh
Relativity type    :
Basis              : AO
                                X                 Y                 Z
Electronic contribution:     -0.436065528      -9.768595089      -6.917456567
Nuclear contribution   :      0.250492401      10.731834032       9.521076948
                        -----------------------------------------
Total Dipole Moment    :     -0.185573128       0.963238943       2.603620382
                        -----------------------------------------
Magnitude (a.u.)       :      2.782284267
Magnitude (Debye)      :      7.072004584

Rotational constants in cm-1:             0.022739             0.013107             0.011766
Rotational constants in MHz :           681.700465           392.928776           352.728183

                             ****ORCA TERMINATED NORMALLY****
TOTAL RUN TIME: 0 days 0 hours 4 minutes 45 seconds 682 msec
