                         Program Version 6.0.0  -   RELEASE  -
|  1> ! Engrad def2-TZVPPD wB97M-D3BJ
|  2> %pal nprocs 8 end%pal nprocs 32 end
|  3> %tddft Nroots 2 Iroot 2
|  4> sf true
|  5> end
|  6> *xyz 0 3
|  7> O   0.01052629 0.79389862 0.00039332
|  8> C   0.72487673 -0.44245325 -0.00180894
|  9> C   -0.72889499 -0.45130557 -0.0007313
| 10> H   1.24396678 -0.64606607 0.93654582
| 11> H   1.26259129 -0.64461486 -0.92209685
| 12> H   -1.26822872 -0.64469804 -0.92637326
| 13> H   -1.27349976 -0.64918613 0.93123815
| 14> *
| 15>
| 16>                          ****END OF INPUT****

CARTESIAN COORDINATES (ANGSTROEM)
---------------------------------
  O      0.010526    0.793899    0.000393
  C      0.724877   -0.442453   -0.001809
  C     -0.728895   -0.451306   -0.000731
  H      1.243967   -0.646066    0.936546
  H      1.262591   -0.644615   -0.922097
  H     -1.268229   -0.644698   -0.926373
  H     -1.273500   -0.649186    0.931238

 Total Charge           Charge          ....    0
 Multiplicity           Mult            ....    3
 Number of Electrons    NEL             ....   24
 Basis Dimension        Dim             ....  182

ORBITAL ENERGIES
----------------
                 SPIN UP ORBITALS
  NO   OCC          E(Eh)            E(eV)
   0   1.0000     -19.510037      -530.8951
   1   1.0000     -10.442850      -284.1644
   2   1.0000     -10.428675      -283.7787
   3   1.0000      -1.332335       -36.2547
   4   1.0000      -0.881827       -23.9957
   5   1.0000      -0.809781       -22.0353
   6   1.0000      -0.715603       -19.4726
   7   1.0000      -0.676688       -18.4136
   8   1.0000      -0.598696       -16.2914
   9   1.0000      -0.533760       -14.5243
  10   1.0000      -0.525267       -14.2932
  11   1.0000      -0.492103       -13.3908
  12   1.0000      -0.120628        -3.2825
  13   0.0000       0.031252         0.8504
  14   0.0000       0.052996         1.4421
  15   0.0000       0.066239         1.8024
  16   0.0000       0.086453         2.3525
  17   0.0000       0.094651         2.5756

                 SPIN DOWN ORBITALS
  NO   OCC          E(Eh)            E(eV)
   0   1.0000     -19.478237      -530.0298
   1   1.0000     -10.441854      -284.1373
   2   1.0000     -10.425581      -283.6945
   3   1.0000      -1.266771       -34.4706
   4   1.0000      -0.850241       -23.1362
   5   1.0000      -0.795067       -21.6349
   6   1.0000      -0.656390       -17.8613
   7   1.0000      -0.646155       -17.5828
   8   1.0000      -0.567526       -15.4432
   9   1.0000      -0.514214       -13.9925
  10   1.0000      -0.474348       -12.9077
  11   0.0000      -0.145270        -3.9530
  12   0.0000       0.035439         0.9644
  13   0.0000       0.050487         1.3738
  14   0.0000       0.065085         1.7710
  15   0.0000       0.075348         2.0503

----------------------------------------------------------------------------------------------------
          SPIN FLIP ABSORPTION SPECTRUM VIA TRANSITION ELECTRIC DIPOLE MOMENTS
----------------------------------------------------------------------------------------------------
     Transition      Energy     Energy  Wavelength fosc(D2)      D2        DX        DY        DZ
                      (eV)      (cm-1)    (nm)                 (au**2)    (au)      (au)      (au)
----------------------------------------------------------------------------------------------------
  1-3A  ->  2-3A    6.871522   55422.6   180.4   0.005101932   0.03031   0.00157   0.00924  -0.17383

Dispersion correction             ... done (  0.1 sec)

MULLIKEN ATOMIC CHARGES AND SPIN DENSITIES
------------------------------------------
   0 O :    0.818171    0.997428
   1 C :   -1.819541   -1.966728
   2 C :   -2.132110   -1.877821
   3 H :    0.754807    0.675735
   4 H :    0.715274    0.636170
   5 H :    0.825556    0.757716
   6 H :    0.837842    0.777500
Sum of atomic charges       :   -0.0000000

LOEWDIN ATOMIC CHARGES AND SPIN DENSITIES
-----------------------------------------
   0 O :    0.369252    0.617646
   1 C :   -0.153242   -0.241015
   2 C :   -0.184503   -0.173022
   3 H :    0.002543   -0.061069
   4 H :    0.000515   -0.057601
   5 H :   -0.019686   -0.040691
   6 H :   -0.014879   -0.044248

  Mayer bond orders larger than 0.100000
B(  0-O ,  1-C ) :  -0.9358 B(  0-O ,  2-C ) :  -1.4378 B(  0-O ,  3-H ) :   0.5706
B(  0-O ,  4-H ) :   0.5619 B(  0-O ,  5-H ) :   0.6862 B(  0-O ,  6-H ) :   0.6761
B(  1-C ,  2-C ) :  11.2984 B(  1-C ,  3-H ) :  -0.7151 B(  1-C ,  4-H ) :  -0.6293
B(  1-C ,  5-H ) :  -3.2763 B(  1-C ,  6-H ) :  -3.3514 B(  2-C ,  3-H ) :  -3.2967
B(  2-C ,  4-H ) :  -3.1625 B(  2-C ,  5-H ) :  -1.3504 B(  2-C ,  6-H ) :  -1.3732
B(  3-H ,  4-H ) :   0.6178 B(  3-H ,  5-H ) :   1.0550 B(  3-H ,  6-H ) :   1.0672
B(  4-H ,  5-H ) :   0.9968 B(  4-H ,  6-H ) :   1.0403 B(  5-H ,  6-H ) :   0.8041

Dispersion correction           -0.005219596
FINAL SINGLE POINT ENERGY      -153.624943541862

DIPOLE MOMENT
-------------

Method             : TDA/CIS
Type of density    : Electron Density
Level              : Relaxed density
State              :   2
Multiplicity       :   3
Irrep              :   0
Energy             :     0.0000000000000000 Eh
Relativity type    :
Basis              : AO
                                X                 Y                 Z
Electronic contribution:      0.337622181       3.253771104      -0.070281541
Nuclear contribution   :     -0.040083649      -2.358422999       0.018531830
                        -----------------------------------------
Total Dipole Moment    :      0.297538532       0.895348105      -0.051749711
                        -----------------------------------------
Magnitude (a.u.)       :      0.944910281
Magnitude (Debye)      :      2.401771063

Rotational constants in cm-1:             0.842474             0.745138             0.472568
Rotational constants in MHz :         25256.740184         22338.675285         14167.235647

                             ****ORCA TERMINATED NORMALLY****
TOTAL RUN TIME: 0 days 0 hours 0 minutes 21 seconds 958 msec
