                         Program Version 6.0.0  -   RELEASE  -
|  1> ! Engrad def2-TZVPPD wB97M-D3BJ
|  2> %pal nprocs 8 end%pal nprocs 64 end
|  3> %tddft Nroots 2 Iroot 2
|  4> sf true
|  5> end
|  6> *xyz 0 3
|  7> O   2.53097443 1.23311728 -0.49794143
|  8> O   -0.64186629 0.86292043 -2.3062893
|  9> O   0.57060022 -2.71793346 -1.55189984
| 10> O   -2.44990123 -1.63651776 0.99111499
| 11> N   0.62541076 -2.13241799 0.65071566
| 12> N   -2.10398351 0.59756376 1.420233
| 13> N   1.75865645 -0.88900946 -0.93529425
| 14> N   -1.61774049 -0.34183853 -0.63185308
| 15> C   1.50648042 0.03186416 1.25249645
| 16> C   -0.86269972 1.9075422 -0.19014796
| 17> C   0.82490209 -1.11900237 1.56025904
| 18> C   -1.44986946 1.75061287 1.10042437
| 19> C   1.80891338 1.07966716 2.2842446
| 20> C   -0.24099913 3.1542999 -0.67127608
| 21> C   1.98153071 0.20202056 -0.09425946
| 22> C   -0.99220825 0.82243283 -1.12679796
| 23> C   0.91958596 -1.9617594 -0.68760782
| 24> C   -2.05862771 -0.53967769 0.6261112
| 25> H   0.68830559 -1.37527617 2.63169646
| 26> H   -1.4276806 2.48556264 1.89429809
| 27> H   1.61424834 2.08663001 1.89660261
| 28> H   1.27236279 0.87070584 3.19651539
| 29> H   2.85346891 1.04758741 2.47843312
| 30> H   -0.60194544 3.45311329 -1.67178251
| 31> H   -0.33253671 3.98591725 0.03606265
| 32> H   0.7802796 3.00963556 -0.80171394
| 33> H   -0.00018396 -2.94578139 0.76447192
| 34> H   -2.28329035 0.40702494 2.36406251
| 35> H   1.89810464 -0.72130089 -1.94748121
| 36> H   -1.65987328 -1.1668806 -1.22888164
| 37> *
| 38>
| 39>                          ****END OF INPUT****

CARTESIAN COORDINATES (ANGSTROEM)
---------------------------------
  O      2.530974    1.233117   -0.497941
  O     -0.641866    0.862920   -2.306289
  O      0.570600   -2.717933   -1.551900
  O     -2.449901   -1.636518    0.991115
  N      0.625411   -2.132418    0.650716
  N     -2.103984    0.597564    1.420233
  N      1.758656   -0.889009   -0.935294
  N     -1.617740   -0.341839   -0.631853
  C      1.506480    0.031864    1.252496
  C     -0.862700    1.907542   -0.190148
  C      0.824902   -1.119002    1.560259
  C     -1.449869    1.750613    1.100424
  C      1.808913    1.079667    2.284245
  C     -0.240999    3.154300   -0.671276
  C      1.981531    0.202021   -0.094259
  C     -0.992208    0.822433   -1.126798
  C      0.919586   -1.961759   -0.687608
  C     -2.058628   -0.539678    0.626111
  H      0.688306   -1.375276    2.631696
  H     -1.427681    2.485563    1.894298
  H      1.614248    2.086630    1.896603
  H      1.272363    0.870706    3.196515
  H      2.853469    1.047587    2.478433
  H     -0.601945    3.453113   -1.671783
  H     -0.332537    3.985917    0.036063
  H      0.780280    3.009636   -0.801714
  H     -0.000184   -2.945781    0.764472
  H     -2.283290    0.407025    2.364063
  H      1.898105   -0.721301   -1.947481
  H     -1.659873   -1.166881   -1.228882

 Total Charge           Charge          ....    0
 Multiplicity           Mult            ....    3
 Number of Electrons    NEL             ....  132
 Basis Dimension        Dim             ....  882

ORBITAL ENERGIES
----------------
                 SPIN UP ORBITALS
  NO   OCC          E(Eh)            E(eV)
   0   1.0000     -19.333031      -526.0785
   1   1.0000     -19.325484      -525.8731
   2   1.0000     -19.323851      -525.8287
   3   1.0000     -19.319427      -525.7083
   4   1.0000     -14.590174      -397.0188
   5   1.0000     -14.581047      -396.7705
   6   1.0000     -14.566136      -396.3647
   7   1.0000     -14.557919      -396.1411
   8   1.0000     -10.512063      -286.0478
   9   1.0000     -10.506180      -285.8877
  10   1.0000     -10.476924      -285.0916
  11   1.0000     -10.464573      -284.7555
  12   1.0000     -10.440220      -284.0928
  13   1.0000     -10.416978      -283.4604
  14   1.0000     -10.408633      -283.2333
  15   1.0000     -10.384347      -282.5724
  16   1.0000     -10.359877      -281.9066
  17   1.0000     -10.356278      -281.8087
  18   1.0000      -1.229002       -33.4428
  19   1.0000      -1.224155       -33.3109
  20   1.0000      -1.185624       -32.2625
  21   1.0000      -1.179455       -32.0946
  22   1.0000      -1.126969       -30.6664
  23   1.0000      -1.117422       -30.4066
  24   1.0000      -1.068827       -29.0843
  25   1.0000      -1.061122       -28.8746
  26   1.0000      -0.966848       -26.3093
  27   1.0000      -0.954988       -25.9865
  28   1.0000      -0.855546       -23.2806
  29   1.0000      -0.848321       -23.0840
  30   1.0000      -0.816770       -22.2254
  31   1.0000      -0.808047       -21.9881
  32   1.0000      -0.792646       -21.5690
  33   1.0000      -0.782664       -21.2974
  34   1.0000      -0.701637       -19.0925
  35   1.0000      -0.692558       -18.8455
  36   1.0000      -0.691064       -18.8048
  37   1.0000      -0.685170       -18.6444
  38   1.0000      -0.642066       -17.4715
  39   1.0000      -0.638018       -17.3613
  40   1.0000      -0.625718       -17.0267
  41   1.0000      -0.600172       -16.3315
  42   1.0000      -0.595370       -16.2008
  43   1.0000      -0.589726       -16.0473
  44   1.0000      -0.572430       -15.5766
  45   1.0000      -0.568406       -15.4671
  46   1.0000      -0.562135       -15.2965
  47   1.0000      -0.552148       -15.0247
  48   1.0000      -0.551644       -15.0110
  49   1.0000      -0.545101       -14.8329
  50   1.0000      -0.533703       -14.5228
  51   1.0000      -0.524044       -14.2600
  52   1.0000      -0.518441       -14.1075
  53   1.0000      -0.511826       -13.9275
  54   1.0000      -0.508374       -13.8336
  55   1.0000      -0.501251       -13.6397
  56   1.0000      -0.493931       -13.4405
  57   1.0000      -0.473613       -12.8877
  58   1.0000      -0.423999       -11.5376
  59   1.0000      -0.416912       -11.3448
  60   1.0000      -0.409844       -11.1524
  61   1.0000      -0.396693       -10.7946
  62   1.0000      -0.390267       -10.6197
  63   1.0000      -0.383820       -10.4443
  64   1.0000      -0.381121       -10.3708
  65   1.0000      -0.343147        -9.3375
  66   1.0000      -0.227521        -6.1912
  67   0.0000       0.010038         0.2732
  68   0.0000       0.014498         0.3945
  69   0.0000       0.032878         0.8947
  70   0.0000       0.039636         1.0786
  71   0.0000       0.041346         1.1251

                 SPIN DOWN ORBITALS
  NO   OCC          E(Eh)            E(eV)
   0   1.0000     -19.331413      -526.0345
   1   1.0000     -19.323825      -525.8280
   2   1.0000     -19.319429      -525.7084
   3   1.0000     -19.318838      -525.6923
   4   1.0000     -14.585973      -396.9045
   5   1.0000     -14.580954      -396.7679
   6   1.0000     -14.566148      -396.3650
   7   1.0000     -14.557047      -396.1174
   8   1.0000     -10.512267      -286.0533
   9   1.0000     -10.506183      -285.8878
  10   1.0000     -10.476917      -285.0914
  11   1.0000     -10.464474      -284.7528
  12   1.0000     -10.440030      -284.0876
  13   1.0000     -10.407498      -283.2024
  14   1.0000     -10.397671      -282.9350
  15   1.0000     -10.384397      -282.5738
  16   1.0000     -10.359809      -281.9047
  17   1.0000     -10.356622      -281.8180
  18   1.0000      -1.226591       -33.3772
  19   1.0000      -1.222709       -33.2716
  20   1.0000      -1.179882       -32.1062
  21   1.0000      -1.175487       -31.9866
  22   1.0000      -1.117303       -30.4034
  23   1.0000      -1.117052       -30.3965
  24   1.0000      -1.063731       -28.9456
  25   1.0000      -1.061044       -28.8725
  26   1.0000      -0.955423       -25.9984
  27   1.0000      -0.943452       -25.6726
  28   1.0000      -0.848188       -23.0804
  29   1.0000      -0.842487       -22.9252
  30   1.0000      -0.808285       -21.9946
  31   1.0000      -0.805068       -21.9070
  32   1.0000      -0.786622       -21.4051
  33   1.0000      -0.782538       -21.2939
  34   1.0000      -0.693660       -18.8754
  35   1.0000      -0.692178       -18.8351
  36   1.0000      -0.685105       -18.6426
  37   1.0000      -0.679265       -18.4837
  38   1.0000      -0.633523       -17.2390
  39   1.0000      -0.631948       -17.1962
  40   1.0000      -0.623804       -16.9746
  41   1.0000      -0.590715       -16.0742
  42   1.0000      -0.589647       -16.0451
  43   1.0000      -0.587483       -15.9862
  44   1.0000      -0.562993       -15.3198
  45   1.0000      -0.561907       -15.2903
  46   1.0000      -0.556592       -15.1456
  47   1.0000      -0.549897       -14.9635
  48   1.0000      -0.544183       -14.8080
  49   1.0000      -0.536192       -14.5905
  50   1.0000      -0.524895       -14.2831
  51   1.0000      -0.518923       -14.1206
  52   1.0000      -0.510908       -13.9025
  53   1.0000      -0.508132       -13.8270
  54   1.0000      -0.502845       -13.6831
  55   1.0000      -0.494724       -13.4621
  56   1.0000      -0.473996       -12.8981
  57   1.0000      -0.452615       -12.3163
  58   1.0000      -0.419340       -11.4108
  59   1.0000      -0.416503       -11.3336
  60   1.0000      -0.396951       -10.8016
  61   1.0000      -0.385068       -10.4782
  62   1.0000      -0.383492       -10.4354
  63   1.0000      -0.381247       -10.3743
  64   1.0000      -0.342725        -9.3260
  65   0.0000      -0.098687        -2.6854
  66   0.0000       0.011329         0.3083
  67   0.0000       0.014986         0.4078
  68   0.0000       0.030845         0.8393
  69   0.0000       0.037895         1.0312

----------------------------------------------------------------------------------------------------
          SPIN FLIP ABSORPTION SPECTRUM VIA TRANSITION ELECTRIC DIPOLE MOMENTS
----------------------------------------------------------------------------------------------------
     Transition      Energy     Energy  Wavelength fosc(D2)      D2        DX        DY        DZ
                      (eV)      (cm-1)    (nm)                 (au**2)    (au)      (au)      (au)
----------------------------------------------------------------------------------------------------
  1-3A  ->  2-3A    3.540500   28556.1   350.2   0.000805048   0.00928  -0.01042   0.05810   0.07613

Dispersion correction             ... done (  0.1 sec)

MULLIKEN ATOMIC CHARGES AND SPIN DENSITIES
------------------------------------------
   0 O :   -0.704972   -0.002199
   1 O :   -0.701255    0.008325
   2 O :   -0.625503    0.000022
   3 O :   -0.653106   -0.000035
   4 N :   -0.026260   -0.001115
   5 N :    0.029855    0.015340
   6 N :   -0.010035   -0.003137
   7 N :    0.005229   -0.009424
   8 C :    0.880174   -0.016653
   9 C :    1.066571    0.062292
  10 C :   -0.042087    0.004002
  11 C :   -0.383845    0.076153
  12 C :   -1.529727   -0.000163
  13 C :   -1.242669   -0.022720
  14 C :    0.333648    0.015333
  15 C :    0.302238   -0.141940
  16 C :    0.316197    0.001855
  17 C :    0.462845   -0.005841
  18 H :    0.144095    0.000133
  19 H :    0.132807   -0.004419
  20 H :    0.255926    0.001716
  21 H :    0.359535   -0.003732
  22 H :    0.399990   -0.001991
  23 H :    0.311667    0.006092
  24 H :    0.339474   -0.001396
  25 H :    0.250552    0.017620
  26 H :    0.115800    0.000390
  27 H :    0.048329    0.003557
  28 H :    0.103728   -0.000213
  29 H :    0.060803    0.002146
Sum of atomic charges       :   -0.0000000

LOEWDIN ATOMIC CHARGES AND SPIN DENSITIES
-----------------------------------------
   0 O :    0.063644   -0.000643
   1 O :    0.068898    0.006312
   2 O :    0.098671   -0.000051
   3 O :    0.082571   -0.000649
   4 N :    0.261401   -0.000367
   5 N :    0.301555    0.012535
   6 N :    0.331922   -0.000043
   7 N :    0.313190   -0.004669
   8 C :   -0.138931   -0.000283
   9 C :   -0.067524    0.005103
  10 C :    0.050363   -0.000557
  11 C :    0.045724   -0.005598
  12 C :    0.180692   -0.000620
  13 C :    0.211141    0.000988
  14 C :   -0.397657    0.000043
  15 C :   -0.412950   -0.005955
  16 C :   -0.506743   -0.000051
  17 C :   -0.489899   -0.002505
  18 H :    0.057019   -0.000043
  19 H :   -0.000712   -0.004748
  20 H :   -0.000499   -0.000174
  21 H :   -0.013229   -0.000209
  22 H :   -0.020215   -0.000111
  23 H :    0.031597    0.000501
  24 H :    0.010583   -0.000200
  25 H :   -0.045893    0.000820
  26 H :    0.009288   -0.000033
  27 H :   -0.044823    0.001710
  28 H :    0.023313   -0.000033
  29 H :   -0.002498   -0.000469

  Mayer bond orders larger than 0.100000
B(  0-O , 14-C ) :   1.3822 B(  1-O , 15-C ) :   1.2107 B(  2-O , 16-C ) :   1.5433
B(  3-O , 17-C ) :   1.4977 B(  4-N , 10-C ) :   0.8555 B(  4-N , 16-C ) :   0.9749
B(  4-N , 26-H ) :   1.0480 B(  5-N , 11-C ) :   0.9006 B(  5-N , 17-C ) :   0.9597
B(  5-N , 27-H ) :   1.0750 B(  6-N ,  8-C ) :  -0.1021 B(  6-N , 14-C ) :   1.0386
B(  6-N , 16-C ) :   0.9274 B(  6-N , 28-H ) :   1.0272 B(  7-N , 15-C ) :   0.8569
B(  7-N , 17-C ) :   0.9530 B(  7-N , 29-H ) :   1.1074 B(  8-C , 10-C ) :   1.1454
B(  8-C , 12-C ) :   0.3330 B(  8-C , 14-C ) :   0.6927 B(  9-C , 11-C ) :   0.4529
B(  9-C , 13-C ) :   0.4958 B(  9-C , 15-C ) :   1.0044 B(  9-C , 24-H ) :  -0.1027
B( 10-C , 18-H ) :   1.1355 B( 11-C , 19-H ) :   1.1208 B( 12-C , 20-H ) :   1.0037
B( 12-C , 21-H ) :   0.9635 B( 12-C , 22-H ) :   0.8606 B( 13-C , 23-H ) :   0.8814
B( 13-C , 24-H ) :   0.9710 B( 13-C , 25-H ) :   0.9663

Dispersion correction           -0.058740057
FINAL SINGLE POINT ENERGY      -908.770751179195

DIPOLE MOMENT
-------------

Method             : TDA/CIS
Type of density    : Electron Density
Level              : Relaxed density
State              :   2
Multiplicity       :   3
Irrep              :   0
Energy             :     0.0000000000000000 Eh
Relativity type    :
Basis              : AO
                                X                 Y                 Z
Electronic contribution:     -2.871375831      -9.648720811      -5.924715266
Nuclear contribution   :      2.553244055      10.384088369       8.449759190
                        -----------------------------------------
Total Dipole Moment    :     -0.318131776       0.735367558       2.525043925
                        -----------------------------------------
Magnitude (a.u.)       :      2.649116852
Magnitude (Debye)      :      6.733519915

Rotational constants in cm-1:             0.017077             0.016093             0.013514
Rotational constants in MHz :           511.941745           482.451950           405.124731

                             ****ORCA TERMINATED NORMALLY****
TOTAL RUN TIME: 0 days 0 hours 4 minutes 59 seconds 691 msec
