                         Program Version 6.0.0  -   RELEASE  -
|  1> ! Engrad def2-TZVPPD wB97M-D3BJ
|  2> %pal nprocs 8 end%pal nprocs 64 end
|  3> %tddft Nroots 2 Iroot 1
|  4> sf true
|  5> end
|  6> *xyz 0 3
|  7> O   2.21424053 -0.19761131 -1.1744273
|  8> O   -0.13468138 2.7106204 -2.44827191
|  9> O   0.29634294 -3.79364421 0.70880222
| 10> O   -2.13981754 -1.10640861 -1.28300735
| 11> N   0.37701871 -1.89801825 1.95905714
| 12> N   -1.29281813 -0.18422205 0.56006683
| 13> N   1.06873915 -1.92140097 -0.27714121
| 14> N   -0.81278359 0.71148428 -1.61506675
| 15> C   1.17837183 0.22173202 0.92067753
| 16> C   -0.52377045 2.54227504 -0.12991185
| 17> C   0.58440698 -0.51500342 2.14692175
| 18> C   -0.28650644 0.42831193 1.29632889
| 19> C   2.13700693 1.35655146 1.21334523
| 20> C   -1.47423903 3.46696414 0.45242876
| 21> C   1.52597848 -0.61064358 -0.26800953
| 22> C   -0.31671783 2.01957845 -1.44911007
| 23> C   0.53470895 -2.6052305 0.80027302
| 24> C   -1.46477126 -0.23347842 -0.80224152
| 25> H   0.88683618 -0.1799627 3.11625269
| 26> H   -0.45709315 1.36415185 1.79617467
| 27> H   2.34637281 2.02145281 0.35662198
| 28> H   1.82028162 1.97609209 2.03472386
| 29> H   3.05650071 0.85219892 1.50503878
| 30> H   -2.48165068 3.05618623 0.50322827
| 31> H   -1.18881514 3.7744861 1.47186531
| 32> H   -1.59163167 4.39764945 -0.18032977
| 33> H   -0.05604507 -2.39175258 2.70264225
| 34> H   -1.80407047 -0.92852055 1.04814859
| 35> H   1.26610206 -2.44480473 -1.11528906
| 36> H   -1.06276828 0.51289372 -2.5784889
| 37> *
| 38>
| 39>                          ****END OF INPUT****

CARTESIAN COORDINATES (ANGSTROEM)
---------------------------------
  O      2.214241   -0.197611   -1.174427
  O     -0.134681    2.710620   -2.448272
  O      0.296343   -3.793644    0.708802
  O     -2.139818   -1.106409   -1.283007
  N      0.377019   -1.898018    1.959057
  N     -1.292818   -0.184222    0.560067
  N      1.068739   -1.921401   -0.277141
  N     -0.812784    0.711484   -1.615067
  C      1.178372    0.221732    0.920678
  C     -0.523770    2.542275   -0.129912
  C      0.584407   -0.515003    2.146922
  C     -0.286506    0.428312    1.296329
  C      2.137007    1.356551    1.213345
  C     -1.474239    3.466964    0.452429
  C      1.525978   -0.610644   -0.268010
  C     -0.316718    2.019578   -1.449110
  C      0.534709   -2.605230    0.800273
  C     -1.464771   -0.233478   -0.802242
  H      0.886836   -0.179963    3.116253
  H     -0.457093    1.364152    1.796175
  H      2.346373    2.021453    0.356622
  H      1.820282    1.976092    2.034724
  H      3.056501    0.852199    1.505039
  H     -2.481651    3.056186    0.503228
  H     -1.188815    3.774486    1.471865
  H     -1.591632    4.397649   -0.180330
  H     -0.056045   -2.391753    2.702642
  H     -1.804070   -0.928521    1.048149
  H      1.266102   -2.444805   -1.115289
  H     -1.062768    0.512894   -2.578489

 Total Charge           Charge          ....    0
 Multiplicity           Mult            ....    3
 Number of Electrons    NEL             ....  132
 Basis Dimension        Dim             ....  882

ORBITAL ENERGIES
----------------
                 SPIN UP ORBITALS
  NO   OCC          E(Eh)            E(eV)
   0   1.0000     -19.341035      -526.2963
   1   1.0000     -19.334094      -526.1074
   2   1.0000     -19.319367      -525.7067
   3   1.0000     -19.315741      -525.6080
   4   1.0000     -14.567276      -396.3957
   5   1.0000     -14.567069      -396.3901
   6   1.0000     -14.561354      -396.2346
   7   1.0000     -14.559581      -396.1863
   8   1.0000     -10.507578      -285.9257
   9   1.0000     -10.507334      -285.9191
  10   1.0000     -10.493731      -285.5489
  11   1.0000     -10.489970      -285.4466
  12   1.0000     -10.439955      -284.0856
  13   1.0000     -10.431315      -283.8505
  14   1.0000     -10.414986      -283.4062
  15   1.0000     -10.406995      -283.1887
  16   1.0000     -10.387845      -282.6676
  17   1.0000     -10.367056      -282.1019
  18   1.0000      -1.223905       -33.3041
  19   1.0000      -1.216952       -33.1150
  20   1.0000      -1.198193       -32.6045
  21   1.0000      -1.197088       -32.5744
  22   1.0000      -1.129233       -30.7280
  23   1.0000      -1.088323       -29.6148
  24   1.0000      -1.069514       -29.1030
  25   1.0000      -1.060673       -28.8624
  26   1.0000      -1.002735       -27.2858
  27   1.0000      -0.940987       -25.6055
  28   1.0000      -0.876736       -23.8572
  29   1.0000      -0.834137       -22.6980
  30   1.0000      -0.818686       -22.2776
  31   1.0000      -0.814771       -22.1711
  32   1.0000      -0.786088       -21.3906
  33   1.0000      -0.771979       -21.0066
  34   1.0000      -0.722224       -19.6527
  35   1.0000      -0.703568       -19.1451
  36   1.0000      -0.686473       -18.6799
  37   1.0000      -0.670524       -18.2459
  38   1.0000      -0.636976       -17.3330
  39   1.0000      -0.634470       -17.2648
  40   1.0000      -0.613462       -16.6932
  41   1.0000      -0.609504       -16.5855
  42   1.0000      -0.601894       -16.3784
  43   1.0000      -0.590342       -16.0640
  44   1.0000      -0.575785       -15.6679
  45   1.0000      -0.571139       -15.5415
  46   1.0000      -0.563710       -15.3393
  47   1.0000      -0.557779       -15.1779
  48   1.0000      -0.554050       -15.0765
  49   1.0000      -0.551837       -15.0162
  50   1.0000      -0.547098       -14.8873
  51   1.0000      -0.542833       -14.7712
  52   1.0000      -0.526990       -14.3401
  53   1.0000      -0.525040       -14.2871
  54   1.0000      -0.514071       -13.9886
  55   1.0000      -0.477126       -12.9833
  56   1.0000      -0.445660       -12.1270
  57   1.0000      -0.433940       -11.8081
  58   1.0000      -0.418498       -11.3879
  59   1.0000      -0.408026       -11.1029
  60   1.0000      -0.399119       -10.8606
  61   1.0000      -0.395571       -10.7640
  62   1.0000      -0.391429       -10.6513
  63   1.0000      -0.383431       -10.4337
  64   1.0000      -0.373709       -10.1691
  65   1.0000      -0.353456        -9.6180
  66   1.0000      -0.322949        -8.7879
  67   0.0000       0.008719         0.2372
  68   0.0000       0.026720         0.7271
  69   0.0000       0.032667         0.8889
  70   0.0000       0.037734         1.0268
  71   0.0000       0.044669         1.2155

                 SPIN DOWN ORBITALS
  NO   OCC          E(Eh)            E(eV)
   0   1.0000     -19.335997      -526.1592
   1   1.0000     -19.334086      -526.1072
   2   1.0000     -19.319201      -525.7022
   3   1.0000     -19.315711      -525.6072
   4   1.0000     -14.567131      -396.3918
   5   1.0000     -14.567047      -396.3895
   6   1.0000     -14.560601      -396.2141
   7   1.0000     -14.559535      -396.1851
   8   1.0000     -10.507578      -285.9257
   9   1.0000     -10.507347      -285.9195
  10   1.0000     -10.494654      -285.5740
  11   1.0000     -10.489988      -285.4471
  12   1.0000     -10.439446      -284.0718
  13   1.0000     -10.430925      -283.8399
  14   1.0000     -10.414724      -283.3990
  15   1.0000     -10.388699      -282.6909
  16   1.0000     -10.380673      -282.4725
  17   1.0000     -10.366952      -282.0991
  18   1.0000      -1.223487       -33.2928
  19   1.0000      -1.216005       -33.0892
  20   1.0000      -1.197750       -32.5924
  21   1.0000      -1.189886       -32.3785
  22   1.0000      -1.128681       -30.7130
  23   1.0000      -1.087423       -29.5903
  24   1.0000      -1.068868       -29.0854
  25   1.0000      -1.058048       -28.7909
  26   1.0000      -1.001855       -27.2619
  27   1.0000      -0.910332       -24.7714
  28   1.0000      -0.876152       -23.8413
  29   1.0000      -0.822699       -22.3868
  30   1.0000      -0.817855       -22.2550
  31   1.0000      -0.811151       -22.0725
  32   1.0000      -0.784425       -21.3453
  33   1.0000      -0.767039       -20.8722
  34   1.0000      -0.717713       -19.5300
  35   1.0000      -0.702062       -19.1041
  36   1.0000      -0.678726       -18.4691
  37   1.0000      -0.668337       -18.1864
  38   1.0000      -0.634837       -17.2748
  39   1.0000      -0.623858       -16.9760
  40   1.0000      -0.609266       -16.5790
  41   1.0000      -0.604482       -16.4488
  42   1.0000      -0.588356       -16.0100
  43   1.0000      -0.582600       -15.8533
  44   1.0000      -0.572301       -15.5731
  45   1.0000      -0.564608       -15.3638
  46   1.0000      -0.558292       -15.1919
  47   1.0000      -0.554886       -15.0992
  48   1.0000      -0.547599       -14.9009
  49   1.0000      -0.546828       -14.8799
  50   1.0000      -0.540228       -14.7004
  51   1.0000      -0.531863       -14.4727
  52   1.0000      -0.525118       -14.2892
  53   1.0000      -0.515815       -14.0361
  54   1.0000      -0.511960       -13.9311
  55   1.0000      -0.475534       -12.9399
  56   1.0000      -0.440617       -11.9898
  57   1.0000      -0.424038       -11.5387
  58   1.0000      -0.417818       -11.3694
  59   1.0000      -0.403057       -10.9677
  60   1.0000      -0.390612       -10.6291
  61   1.0000      -0.389182       -10.5902
  62   1.0000      -0.387227       -10.5370
  63   1.0000      -0.381569       -10.3830
  64   1.0000      -0.365077        -9.9342
  65   0.0000      -0.044148        -1.2013
  66   0.0000       0.004743         0.1291
  67   0.0000       0.009293         0.2529
  68   0.0000       0.027168         0.7393
  69   0.0000       0.033503         0.9117

----------------------------------------------------------------------------------------------------
          SPIN FLIP ABSORPTION SPECTRUM VIA TRANSITION ELECTRIC DIPOLE MOMENTS
----------------------------------------------------------------------------------------------------
     Transition      Energy     Energy  Wavelength fosc(D2)      D2        DX        DY        DZ
                      (eV)      (cm-1)    (nm)                 (au**2)    (au)      (au)      (au)
----------------------------------------------------------------------------------------------------
  1-3A  ->  2-3A    0.769847    6209.2  1610.5   0.000024656   0.00131  -0.01952   0.01860   0.02409

Dispersion correction             ... done (  0.1 sec)

MULLIKEN ATOMIC CHARGES AND SPIN DENSITIES
------------------------------------------
   0 O :   -0.647224    0.000353
   1 O :   -0.677803   -0.032059
   2 O :   -0.663097   -0.000014
   3 O :   -0.668963   -0.000831
   4 N :   -0.126799   -0.000128
   5 N :   -0.183761    0.002457
   6 N :    0.014331   -0.000437
   7 N :    0.024096   -0.018731
   8 C :    2.414612    0.081567
   9 C :    0.363960    0.159953
  10 C :   -0.230867   -0.001533
  11 C :   -1.048271   -0.231078
  12 C :   -1.943446   -0.053194
  13 C :   -1.027132    0.067625
  14 C :   -0.059049    0.042002
  15 C :    0.510127   -0.118087
  16 C :    0.479620    0.000536
  17 C :    0.551298    0.028063
  18 H :    0.237481   -0.001781
  19 H :    0.474526    0.069470
  20 H :    0.270558   -0.021570
  21 H :    0.358824    0.002016
  22 H :    0.463991   -0.007570
  23 H :    0.262674   -0.010708
  24 H :    0.308747    0.053218
  25 H :    0.323064   -0.013719
  26 H :    0.011051   -0.000638
  27 H :    0.132186   -0.000654
  28 H :    0.030225   -0.000010
  29 H :    0.045041    0.005486
Sum of atomic charges       :   -0.0000000

LOEWDIN ATOMIC CHARGES AND SPIN DENSITIES
-----------------------------------------
   0 O :    0.114142    0.000007
   1 O :    0.070296   -0.030874
   2 O :    0.084593    0.000088
   3 O :    0.094874   -0.001387
   4 N :    0.284598    0.000385
   5 N :    0.259878    0.000984
   6 N :    0.345123   -0.000071
   7 N :    0.320003   -0.001117
   8 C :   -0.201030   -0.000066
   9 C :    0.176933    0.054225
  10 C :   -0.001425    0.001068
  11 C :   -0.123944    0.001781
  12 C :    0.189984   -0.005690
  13 C :    0.118928    0.000014
  14 C :   -0.365977   -0.000120
  15 C :   -0.473519   -0.014683
  16 C :   -0.471443    0.000067
  17 C :   -0.481452   -0.000735
  18 H :    0.045678    0.000095
  19 H :    0.010815    0.000440
  20 H :    0.010237   -0.002581
  21 H :   -0.008929   -0.000667
  22 H :    0.004148   -0.000982
  23 H :    0.005472   -0.003230
  24 H :   -0.008709    0.001065
  25 H :    0.050993    0.002100
  26 H :   -0.039104    0.000018
  27 H :    0.000041   -0.000034
  28 H :   -0.000777   -0.000004
  29 H :   -0.010426   -0.000096

  Mayer bond orders larger than 0.100000
B(  0-O ,  8-C ) :  -0.1648 B(  0-O , 14-C ) :   1.5924 B(  1-O ,  9-C ) :   0.2291
B(  1-O , 15-C ) :   1.2056 B(  2-O , 16-C ) :   1.5660 B(  3-O , 17-C ) :   1.4899
B(  4-N , 10-C ) :   0.6532 B(  4-N , 16-C ) :   1.0723 B(  4-N , 26-H ) :   1.1589
B(  5-N , 11-C ) :   0.5883 B(  5-N , 17-C ) :   0.9565 B(  5-N , 19-H ) :  -0.1479
B(  5-N , 27-H ) :   1.0365 B(  6-N , 14-C ) :   1.0619 B(  6-N , 16-C ) :   0.9500
B(  6-N , 28-H ) :   1.1171 B(  7-N ,  9-C ) :   0.1028 B(  7-N , 15-C ) :   0.8180
B(  7-N , 17-C ) :   0.9716 B(  7-N , 29-H ) :   1.0858 B(  8-C ,  9-C ) :  -0.1857
B(  8-C , 10-C ) :   0.6161 B(  8-C , 11-C ) :  -0.4989 B(  8-C , 12-C ) :  -0.2543
B(  8-C , 14-C ) :   0.1033 B(  8-C , 20-H ) :  -0.1131 B(  8-C , 21-H ) :  -0.1134
B(  9-C , 11-C ) :   0.1936 B(  9-C , 13-C ) :   0.6135 B(  9-C , 15-C ) :   1.0262
B( 10-C , 11-C ) :   0.6130 B( 10-C , 12-C ) :  -0.1694 B( 10-C , 16-C ) :  -0.1376
B( 10-C , 18-H ) :   1.1813 B( 11-C , 12-C ) :   0.1556 B( 11-C , 17-C ) :  -0.1507
B( 11-C , 19-H ) :   1.0083 B( 12-C , 20-H ) :   1.0856 B( 12-C , 21-H ) :   1.0703
B( 12-C , 22-H ) :   0.7105 B( 13-C , 23-H ) :   0.9491 B( 13-C , 24-H ) :   1.0270
B( 13-C , 25-H ) :   0.8856 B( 15-C , 17-C ) :  -0.1083

Dispersion correction           -0.057895008
FINAL SINGLE POINT ENERGY      -908.703266952172

DIPOLE MOMENT
-------------

Method             : TDA/CIS
Type of density    : Electron Density
Level              : Relaxed density
State              :   1
Multiplicity       :   3
Irrep              :   0
Energy             :     0.0000000000000000 Eh
Relativity type    :
Basis              : AO
                                X                 Y                 Z
Electronic contribution:     -0.509780174      -9.728157877      -6.982157855
Nuclear contribution   :     -0.122019422      11.181672348       9.826224258
                        -----------------------------------------
Total Dipole Moment    :     -0.631799596       1.453514471       2.844066403
                        -----------------------------------------
Magnitude (a.u.)       :      3.255854535
Magnitude (Debye)      :      8.275724545

Rotational constants in cm-1:             0.023115             0.012480             0.011591
Rotational constants in MHz :           692.963665           374.146852           347.480665

                             ****ORCA TERMINATED NORMALLY****
TOTAL RUN TIME: 0 days 0 hours 4 minutes 44 seconds 746 msec
