                         Program Version 6.0.0  -   RELEASE  -
|  1> ! Engrad def2-TZVPPD wB97M-D3BJ
|  2> %pal nprocs 8 end%pal nprocs 64 end
|  3> %tddft Nroots 2 Iroot 1
|  4> sf true
|  5> end
|  6> *xyz 0 3
|  7> O   2.96709334 1.25471353 -0.44316069
|  8> O   -0.55425814 0.44387254 -1.89845957
|  9> O   1.41999079 -2.83520627 -1.75527041
| 10> O   -3.11744324 -1.38602664 1.39265109
| 11> N   0.66245597 -2.03443325 0.22225994
| 12> N   -2.30918321 0.72295881 1.64135969
| 13> N   2.22112171 -0.79312705 -1.08093701
| 14> N   -1.94977166 -0.35959896 -0.32048239
| 15> C   1.46777772 0.14135551 1.00157736
| 16> C   -0.92525762 1.81704748 0.04573882
| 17> C   0.68218103 -1.03695794 1.18788291
| 18> C   -1.60108286 1.81318795 1.19392584
| 19> C   1.60773657 1.21260335 2.00098897
| 20> C   -0.10573459 2.9160034 -0.51605686
| 21> C   2.2664703 0.2860057 -0.18259641
| 22> C   -1.04741298 0.60651517 -0.80216045
| 23> C   1.43896546 -1.94270045 -0.9671952
| 24> C   -2.49788901 -0.4510709 0.93914932
| 25> H   0.37909534 -1.29327561 2.21867983
| 26> H   -1.74570851 2.70720971 1.77696531
| 27> H   1.47336014 2.15861709 1.45997985
| 28> H   0.88292175 1.06907431 2.79916702
| 29> H   2.61243188 1.18260936 2.38946242
| 30> H   -0.40468176 3.20735313 -1.53983099
| 31> H   -0.14437521 3.78800581 0.12123422
| 32> H   0.9518601 2.58077985 -0.5829104
| 33> H   0.03461824 -2.81799529 0.31105561
| 34> H   -2.79344696 0.7958184 2.52779166
| 35> H   2.63260549 -0.7030285 -1.99484047
| 36> H   -1.96594663 -1.23145863 -0.82597542
| 37> *
| 38>
| 39>                          ****END OF INPUT****

CARTESIAN COORDINATES (ANGSTROEM)
---------------------------------
  O      2.967093    1.254714   -0.443161
  O     -0.554258    0.443873   -1.898460
  O      1.419991   -2.835206   -1.755270
  O     -3.117443   -1.386027    1.392651
  N      0.662456   -2.034433    0.222260
  N     -2.309183    0.722959    1.641360
  N      2.221122   -0.793127   -1.080937
  N     -1.949772   -0.359599   -0.320482
  C      1.467778    0.141356    1.001577
  C     -0.925258    1.817047    0.045739
  C      0.682181   -1.036958    1.187883
  C     -1.601083    1.813188    1.193926
  C      1.607737    1.212603    2.000989
  C     -0.105735    2.916003   -0.516057
  C      2.266470    0.286006   -0.182596
  C     -1.047413    0.606515   -0.802160
  C      1.438965   -1.942700   -0.967195
  C     -2.497889   -0.451071    0.939149
  H      0.379095   -1.293276    2.218680
  H     -1.745709    2.707210    1.776965
  H      1.473360    2.158617    1.459980
  H      0.882922    1.069074    2.799167
  H      2.612432    1.182609    2.389462
  H     -0.404682    3.207353   -1.539831
  H     -0.144375    3.788006    0.121234
  H      0.951860    2.580780   -0.582910
  H      0.034618   -2.817995    0.311056
  H     -2.793447    0.795818    2.527792
  H      2.632605   -0.703028   -1.994840
  H     -1.965947   -1.231459   -0.825975

 Total Charge           Charge          ....    0
 Multiplicity           Mult            ....    3
 Number of Electrons    NEL             ....  132
 Basis Dimension        Dim             ....  882

ORBITAL ENERGIES
----------------
                 SPIN UP ORBITALS
  NO   OCC          E(Eh)            E(eV)
   0   1.0000     -19.331077      -526.0253
   1   1.0000     -19.330018      -525.9965
   2   1.0000     -19.328878      -525.9655
   3   1.0000     -19.321100      -525.7538
   4   1.0000     -14.585790      -396.8995
   5   1.0000     -14.581908      -396.7939
   6   1.0000     -14.569406      -396.4537
   7   1.0000     -14.550582      -395.9415
   8   1.0000     -10.513994      -286.1003
   9   1.0000     -10.509368      -285.9744
  10   1.0000     -10.483980      -285.2836
  11   1.0000     -10.460367      -284.6411
  12   1.0000     -10.433198      -283.9018
  13   1.0000     -10.410213      -283.2763
  14   1.0000     -10.406235      -283.1680
  15   1.0000     -10.383604      -282.5522
  16   1.0000     -10.366475      -282.0861
  17   1.0000     -10.356122      -281.8044
  18   1.0000      -1.227044       -33.3896
  19   1.0000      -1.225297       -33.3420
  20   1.0000      -1.196904       -32.5694
  21   1.0000      -1.187406       -32.3110
  22   1.0000      -1.123662       -30.5764
  23   1.0000      -1.109009       -30.1777
  24   1.0000      -1.068192       -29.0670
  25   1.0000      -1.054376       -28.6910
  26   1.0000      -0.968761       -26.3613
  27   1.0000      -0.957118       -26.0445
  28   1.0000      -0.850891       -23.1539
  29   1.0000      -0.848231       -23.0815
  30   1.0000      -0.809036       -22.0150
  31   1.0000      -0.806155       -21.9366
  32   1.0000      -0.792105       -21.5543
  33   1.0000      -0.778556       -21.1856
  34   1.0000      -0.694937       -18.9102
  35   1.0000      -0.693288       -18.8653
  36   1.0000      -0.688962       -18.7476
  37   1.0000      -0.682384       -18.5686
  38   1.0000      -0.643498       -17.5105
  39   1.0000      -0.632181       -17.2025
  40   1.0000      -0.625333       -17.0162
  41   1.0000      -0.602382       -16.3916
  42   1.0000      -0.597610       -16.2618
  43   1.0000      -0.591258       -16.0890
  44   1.0000      -0.577898       -15.7254
  45   1.0000      -0.569935       -15.5087
  46   1.0000      -0.565263       -15.3816
  47   1.0000      -0.556546       -15.1444
  48   1.0000      -0.554292       -15.0831
  49   1.0000      -0.539657       -14.6848
  50   1.0000      -0.530205       -14.4276
  51   1.0000      -0.526940       -14.3388
  52   1.0000      -0.520725       -14.1697
  53   1.0000      -0.512558       -13.9474
  54   1.0000      -0.509730       -13.8704
  55   1.0000      -0.498131       -13.5548
  56   1.0000      -0.482672       -13.1342
  57   1.0000      -0.477622       -12.9968
  58   1.0000      -0.421906       -11.4806
  59   1.0000      -0.418526       -11.3887
  60   1.0000      -0.409189       -11.1346
  61   1.0000      -0.397677       -10.8213
  62   1.0000      -0.391000       -10.6396
  63   1.0000      -0.387596       -10.5470
  64   1.0000      -0.379831       -10.3357
  65   1.0000      -0.345667        -9.4061
  66   1.0000      -0.229195        -6.2367
  67   0.0000       0.011963         0.3255
  68   0.0000       0.019590         0.5331
  69   0.0000       0.029348         0.7986
  70   0.0000       0.037783         1.0281
  71   0.0000       0.041868         1.1393

                 SPIN DOWN ORBITALS
  NO   OCC          E(Eh)            E(eV)
   0   1.0000     -19.329972      -525.9953
   1   1.0000     -19.329461      -525.9814
   2   1.0000     -19.328942      -525.9673
   3   1.0000     -19.315104      -525.5907
   4   1.0000     -14.581712      -396.7886
   5   1.0000     -14.580979      -396.7686
   6   1.0000     -14.569299      -396.4508
   7   1.0000     -14.549825      -395.9209
   8   1.0000     -10.513995      -286.1004
   9   1.0000     -10.509721      -285.9840
  10   1.0000     -10.483942      -285.2826
  11   1.0000     -10.460281      -284.6387
  12   1.0000     -10.432817      -283.8914
  13   1.0000     -10.400468      -283.0111
  14   1.0000     -10.395435      -282.8742
  15   1.0000     -10.383669      -282.5540
  16   1.0000     -10.366914      -282.0981
  17   1.0000     -10.356109      -281.8041
  18   1.0000      -1.226588       -33.3772
  19   1.0000      -1.222342       -33.2616
  20   1.0000      -1.196905       -32.5694
  21   1.0000      -1.178415       -32.0663
  22   1.0000      -1.123327       -30.5673
  23   1.0000      -1.098407       -29.8892
  24   1.0000      -1.067883       -29.0586
  25   1.0000      -1.048917       -28.5425
  26   1.0000      -0.960835       -26.1457
  27   1.0000      -0.943430       -25.6720
  28   1.0000      -0.850141       -23.1335
  29   1.0000      -0.835543       -22.7363
  30   1.0000      -0.808613       -22.0035
  31   1.0000      -0.792964       -21.5777
  32   1.0000      -0.791141       -21.5280
  33   1.0000      -0.773740       -21.0545
  34   1.0000      -0.694399       -18.8955
  35   1.0000      -0.689746       -18.7689
  36   1.0000      -0.685253       -18.6467
  37   1.0000      -0.670532       -18.2461
  38   1.0000      -0.641549       -17.4574
  39   1.0000      -0.622409       -16.9366
  40   1.0000      -0.620459       -16.8835
  41   1.0000      -0.598105       -16.2753
  42   1.0000      -0.591888       -16.1061
  43   1.0000      -0.583066       -15.8660
  44   1.0000      -0.569972       -15.5097
  45   1.0000      -0.565106       -15.3773
  46   1.0000      -0.558552       -15.1990
  47   1.0000      -0.553486       -15.0611
  48   1.0000      -0.548808       -14.9338
  49   1.0000      -0.536147       -14.5893
  50   1.0000      -0.525860       -14.3094
  51   1.0000      -0.519963       -14.1489
  52   1.0000      -0.509551       -13.8656
  53   1.0000      -0.505271       -13.7491
  54   1.0000      -0.500130       -13.6092
  55   1.0000      -0.496283       -13.5046
  56   1.0000      -0.475968       -12.9517
  57   1.0000      -0.440523       -11.9872
  58   1.0000      -0.421256       -11.4630
  59   1.0000      -0.414072       -11.2675
  60   1.0000      -0.403383       -10.9766
  61   1.0000      -0.390854       -10.6357
  62   1.0000      -0.380181       -10.3452
  63   1.0000      -0.378178       -10.2907
  64   1.0000      -0.347129        -9.4459
  65   0.0000      -0.095611        -2.6017
  66   0.0000       0.011736         0.3194
  67   0.0000       0.022043         0.5998
  68   0.0000       0.027573         0.7503
  69   0.0000       0.035417         0.9638

----------------------------------------------------------------------------------------------------
          SPIN FLIP ABSORPTION SPECTRUM VIA TRANSITION ELECTRIC DIPOLE MOMENTS
----------------------------------------------------------------------------------------------------
     Transition      Energy     Energy  Wavelength fosc(D2)      D2        DX        DY        DZ
                      (eV)      (cm-1)    (nm)                 (au**2)    (au)      (au)      (au)
----------------------------------------------------------------------------------------------------
  1-3A  ->  2-3A    3.393114   27367.3   365.4   0.000546654   0.00658  -0.05027  -0.02210   0.05967

Dispersion correction             ... done (  0.1 sec)

MULLIKEN ATOMIC CHARGES AND SPIN DENSITIES
------------------------------------------
   0 O :   -0.700125    0.027446
   1 O :   -0.656161   -0.001401
   2 O :   -0.608852    0.007610
   3 O :   -0.660057    0.000381
   4 N :   -0.007037    0.040221
   5 N :   -0.017055   -0.001832
   6 N :    0.012716   -0.000798
   7 N :   -0.049746   -0.005264
   8 C :    1.098150    0.460295
   9 C :    0.473025   -0.018449
  10 C :   -0.493962   -0.369007
  11 C :    0.075743   -0.009196
  12 C :   -1.546895    0.018752
  13 C :   -1.342216    0.016010
  14 C :    0.404326   -0.228180
  15 C :    0.597838    0.018517
  16 C :    0.464207    0.019077
  17 C :    0.459497   -0.005538
  18 H :    0.246609    0.014044
  19 H :    0.175997    0.000652
  20 H :    0.263396    0.001213
  21 H :    0.331919    0.010229
  22 H :    0.438950    0.009222
  23 H :    0.331665    0.000727
  24 H :    0.327587    0.001036
  25 H :    0.178773   -0.006630
  26 H :    0.064349    0.000635
  27 H :    0.030535   -0.000234
  28 H :    0.038503    0.002362
  29 H :    0.068321   -0.001900
Sum of atomic charges       :    0.0000000

LOEWDIN ATOMIC CHARGES AND SPIN DENSITIES
-----------------------------------------
   0 O :    0.066226    0.024580
   1 O :    0.101655    0.000149
   2 O :    0.110166    0.006491
   3 O :    0.080413   -0.000062
   4 N :    0.279652    0.022773
   5 N :    0.270919   -0.000058
   6 N :    0.343083   -0.001426
   7 N :    0.327180   -0.001378
   8 C :   -0.142581   -0.027710
   9 C :   -0.153981   -0.000664
  10 C :    0.087508   -0.026359
  11 C :    0.041191   -0.001914
  12 C :    0.163109   -0.002669
  13 C :    0.172937    0.000171
  14 C :   -0.421507    0.008374
  15 C :   -0.386806   -0.000760
  16 C :   -0.453886    0.000644
  17 C :   -0.495122   -0.000524
  18 H :    0.047707   -0.001866
  19 H :    0.038119   -0.000159
  20 H :   -0.010036    0.000170
  21 H :   -0.002801    0.000190
  22 H :   -0.000275   -0.000174
  23 H :    0.018471    0.000027
  24 H :   -0.008584    0.000005
  25 H :   -0.011547    0.000179
  26 H :   -0.021714    0.002006
  27 H :   -0.013290    0.000018
  28 H :   -0.010613    0.000052
  29 H :   -0.015593   -0.000109

  Mayer bond orders larger than 0.100000
B(  0-O , 14-C ) :   1.3728 B(  1-O , 15-C ) :   1.4176 B(  2-O , 16-C ) :   1.5906
B(  3-O , 17-C ) :   1.5497 B(  4-N , 10-C ) :   1.0029 B(  4-N , 16-C ) :   0.9414
B(  4-N , 26-H ) :   1.1081 B(  5-N , 11-C ) :   1.0152 B(  5-N , 17-C ) :   1.0284
B(  5-N , 27-H ) :   1.1324 B(  6-N , 14-C ) :   1.0205 B(  6-N , 16-C ) :   0.9928
B(  6-N , 28-H ) :   1.0890 B(  7-N , 15-C ) :   0.9428 B(  7-N , 17-C ) :   0.9532
B(  7-N , 29-H ) :   1.0680 B(  8-C ,  9-C ) :   0.1373 B(  8-C , 10-C ) :   1.0392
B(  8-C , 12-C ) :   0.1983 B(  8-C , 14-C ) :   0.6165 B(  8-C , 22-H ) :  -0.1069
B(  9-C , 11-C ) :   1.1280 B(  9-C , 13-C ) :   0.3094 B(  9-C , 15-C ) :   0.7850
B(  9-C , 24-H ) :  -0.1225 B(  9-C , 25-H ) :  -0.1020 B( 10-C , 18-H ) :   1.0512
B( 11-C , 13-C ) :  -0.1559 B( 11-C , 19-H ) :   1.0614 B( 12-C , 20-H ) :   1.0180
B( 12-C , 21-H ) :   1.0028 B( 12-C , 22-H ) :   0.8525 B( 13-C , 23-H ) :   0.9513
B( 13-C , 24-H ) :   1.0766 B( 13-C , 25-H ) :   0.9564 B( 14-C , 16-C ) :  -0.1033

Dispersion correction           -0.058543107
FINAL SINGLE POINT ENERGY      -908.898015599350

DIPOLE MOMENT
-------------

Method             : TDA/CIS
Type of density    : Electron Density
Level              : Relaxed density
State              :   1
Multiplicity       :   3
Irrep              :   0
Energy             :     0.0000000000000000 Eh
Relativity type    :
Basis              : AO
                                X                 Y                 Z
Electronic contribution:     -2.250726181      -9.841779257      -5.192501458
Nuclear contribution   :      1.368078772      10.637587002       7.242850765
                        -----------------------------------------
Total Dipole Moment    :     -0.882647408       0.795807745       2.050349307
                        -----------------------------------------
Magnitude (a.u.)       :      2.369875249
Magnitude (Debye)      :      6.023744168

Rotational constants in cm-1:             0.019539             0.013896             0.011114
Rotational constants in MHz :           585.758268           416.580870           333.195253

                             ****ORCA TERMINATED NORMALLY****
TOTAL RUN TIME: 0 days 0 hours 4 minutes 49 seconds 853 msec
