                         Program Version 6.0.0  -   RELEASE  -
|  1> ! EnGrad wB97M-D3BJ def2-TZVPPD
|  2> %pal nprocs 8 end%pal nprocs 16 end
|  3> %tddft
|  4>  sf true
|  5>  nroots 2 Iroot 2 end
|  6> *xyz 0 3
|  7> O   -0.06819514243554 0.75665326275411 -3.594881361e-05
|  8> C   0.77462661732789 -0.49168862573655 -8.27795132e-06
|  9> C   -0.74030548250891 -0.38159683386766 1.548541318e-05
| 10> H   1.29015080597122 -0.65183094112905 0.93219453002974
| 11> H   1.29017556864004 -0.65188534948525 -0.93218593468762
| 12> H   -1.27209669338261 -0.64907266016125 -0.91193111142584
| 13> H   -1.2721556736121 -0.64897885237435 0.91195125743547
| 14> *
| 15>
| 16>                          ****END OF INPUT****

CARTESIAN COORDINATES (ANGSTROEM)
---------------------------------
  O     -0.068195    0.756653   -0.000036
  C      0.774627   -0.491689   -0.000008
  C     -0.740305   -0.381597    0.000015
  H      1.290151   -0.651831    0.932195
  H      1.290176   -0.651885   -0.932186
  H     -1.272097   -0.649073   -0.911931
  H     -1.272156   -0.648979    0.911951

 Total Charge           Charge          ....    0
 Multiplicity           Mult            ....    3
 Number of Electrons    NEL             ....   24
 Basis Dimension        Dim             ....  182

ORBITAL ENERGIES
----------------
                 SPIN UP ORBITALS
  NO   OCC          E(Eh)            E(eV)
   0   1.0000     -19.480480      -530.0908
   1   1.0000     -10.429454      -283.7999
   2   1.0000     -10.381323      -282.4902
   3   1.0000      -1.325764       -36.0759
   4   1.0000      -0.847714       -23.0675
   5   1.0000      -0.801569       -21.8118
   6   1.0000      -0.703012       -19.1299
   7   1.0000      -0.660358       -17.9693
   8   1.0000      -0.596932       -16.2433
   9   1.0000      -0.514793       -14.0082
  10   1.0000      -0.503438       -13.6993
  11   1.0000      -0.449385       -12.2284
  12   1.0000      -0.132197        -3.5973
  13   0.0000       0.034198         0.9306
  14   0.0000       0.060004         1.6328
  15   0.0000       0.068997         1.8775
  16   0.0000       0.083667         2.2767
  17   0.0000       0.109222         2.9721

                 SPIN DOWN ORBITALS
  NO   OCC          E(Eh)            E(eV)
   0   1.0000     -19.449473      -529.2471
   1   1.0000     -10.428963      -283.7865
   2   1.0000     -10.374051      -282.2923
   3   1.0000      -1.265352       -34.4320
   4   1.0000      -0.814749       -22.1705
   5   1.0000      -0.780152       -21.2290
   6   1.0000      -0.640340       -17.4245
   7   1.0000      -0.631416       -17.1817
   8   1.0000      -0.556775       -15.1506
   9   1.0000      -0.496833       -13.5195
  10   1.0000      -0.420543       -11.4436
  11   0.0000      -0.130735        -3.5575
  12   0.0000       0.031242         0.8501
  13   0.0000       0.057447         1.5632
  14   0.0000       0.064078         1.7436
  15   0.0000       0.067189         1.8283

----------------------------------------------------------------------------------------------------
          SPIN FLIP ABSORPTION SPECTRUM VIA TRANSITION ELECTRIC DIPOLE MOMENTS
----------------------------------------------------------------------------------------------------
     Transition      Energy     Energy  Wavelength fosc(D2)      D2        DX        DY        DZ
                      (eV)      (cm-1)    (nm)                 (au**2)    (au)      (au)      (au)
----------------------------------------------------------------------------------------------------
  1-3A  ->  2-3A    6.749334   54437.1   183.7   0.005200291   0.03145   0.00001  -0.00002  -0.17734

Dispersion correction             ... done (  0.0 sec)

MULLIKEN ATOMIC CHARGES AND SPIN DENSITIES
------------------------------------------
   0 O :    0.828436    1.414633
   1 C :   -2.233777   -1.848177
   2 C :   -1.647804   -1.771450
   3 H :    0.985075    0.698561
   4 H :    0.985063    0.698575
   5 H :    0.541562    0.404005
   6 H :    0.541446    0.403853
Sum of atomic charges       :    0.0000000

LOEWDIN ATOMIC CHARGES AND SPIN DENSITIES
-----------------------------------------
   0 O :    0.304290    0.600239
   1 C :   -0.074267   -0.255444
   2 C :   -0.212637   -0.171051
   3 H :   -0.026633   -0.074059
   4 H :   -0.026638   -0.074063
   5 H :    0.017941   -0.012811
   6 H :    0.017944   -0.012810

  Mayer bond orders larger than 0.100000
B(  0-O ,  1-C ) :  -2.3847 B(  0-O ,  2-C ) :  -1.3608 B(  0-O ,  3-H ) :   1.1237
B(  0-O ,  4-H ) :   1.1238 B(  0-O ,  5-H ) :   0.5258 B(  0-O ,  6-H ) :   0.5257
B(  1-C ,  2-C ) :   9.0429 B(  1-C ,  3-H ) :  -1.7346 B(  1-C ,  4-H ) :  -1.7346
B(  1-C ,  5-H ) :  -1.8440 B(  1-C ,  6-H ) :  -1.8434 B(  2-C ,  3-H ) :  -2.9296
B(  2-C ,  4-H ) :  -2.9298 B(  2-C ,  5-H ) :   0.1107 B(  2-C ,  6-H ) :   0.1110
B(  3-H ,  4-H ) :   0.8116 B(  3-H ,  5-H ) :   0.5626 B(  3-H ,  6-H ) :   0.7236
B(  4-H ,  5-H ) :   0.7239 B(  4-H ,  6-H ) :   0.5625 B(  5-H ,  6-H ) :   0.1643

Dispersion correction           -0.005193755
FINAL SINGLE POINT ENERGY      -153.618995029141

DIPOLE MOMENT
-------------

Method             : TDA/CIS
Type of density    : Electron Density
Level              : Relaxed density
State              :   2
Multiplicity       :   3
Irrep              :   0
Energy             :     0.0000000000000000 Eh
Relativity type    :
Basis              : AO
                                X                 Y                 Z
Electronic contribution:     -0.415849325       2.213574261       0.000046303
Nuclear contribution   :      0.087779634      -2.343698830       0.000065739
                        -----------------------------------------
Total Dipole Moment    :     -0.328069690      -0.130124568       0.000112042
                        -----------------------------------------
Magnitude (a.u.)       :      0.352933617
Magnitude (Debye)      :      0.897085961

Rotational constants in cm-1:             0.926931             0.684190             0.468679
Rotational constants in MHz :         27788.683564         20511.511333         14050.627962

                             ****ORCA TERMINATED NORMALLY****
TOTAL RUN TIME: 0 days 0 hours 0 minutes 20 seconds 942 msec
