                         Program Version 6.0.0  -   RELEASE  -
|  1> ! Engrad def2-TZVPPD wB97M-D3BJ
|  2> %pal nprocs 8 end%pal nprocs 64 end
|  3>  %tddft nroots 2 Iroot 1
|  4> sf true
|  5> end
|  6> *xyz 0 3
|  7> O   3.55293268338116 0.8579441931322 0.18674450407563
|  8> O   -1.37020627630107 0.62849991829239 -2.5404917166049
|  9> O   1.1015468765129 -2.53523850726212 -1.56479827487179
| 10> O   -3.77922116806435 -0.66831875193487 0.99778953222294
| 11> N   0.29765268369463 -1.48927831065067 0.27747635425138
| 12> N   -1.91256122009163 0.58620142361716 1.40368962158234
| 13> N   2.36664734220935 -0.90711591055355 -0.61154632402273
| 14> N   -2.29267226741238 -0.34154754759209 -0.69594238174573
| 15> C   1.54494026267988 0.32258183342507 1.29471190867301
| 16> C   -0.58678067330249 1.31104840746687 -0.40490561426307
| 17> C   0.33321612750431 -0.47031670797872 1.28116197750228
| 18> C   -0.45698475204029 0.77784841170692 1.00014445184606
| 19> C   1.92363586029388 1.1848838880981 2.43587518687539
| 20> C   -0.36895940167353 2.74299419566016 -0.70928576788221
| 21> C   2.56367585018226 0.15206129469211 0.25751590692383
| 22> C   -1.39397654788251 0.51966235355235 -1.33397760840479
| 23> C   1.2334892553336 -1.70486571290013 -0.69758372976018
| 24> C   -2.73877444995249 -0.17405652037435 0.62318840709125
| 25> H   0.08476005672053 -0.87771557752903 2.26400869257659
| 26> H   -0.14704106760297 1.60479513643715 1.62419400426203
| 27> H   2.07027911937551 2.2177514950266 2.11457079101158
| 28> H   1.19106546857855 1.15237940710651 3.23794288156722
| 29> H   2.89329224760232 0.85887567689302 2.81509151834942
| 30> H   -1.26945734902975 3.33544257492409 -0.50493678314991
| 31> H   0.44827494855751 3.15940879201574 -0.12478133752526
| 32> H   -0.15464181264581 2.85915625133604 -1.7701233195092
| 33> H   -0.55475477290364 -2.00201317090768 0.14102957189697
| 34> H   -2.22449227091217 0.66478758501725 2.35820620142588
| 35> H   3.0377939635752 -1.02407878634693 -1.3528154997147
| 36> H   -2.94007871638655 -0.82677733436967 -1.29755315467936
| 37> *
| 38>
| 39>                          ****END OF INPUT****

CARTESIAN COORDINATES (ANGSTROEM)
---------------------------------
  O      3.552933    0.857944    0.186745
  O     -1.370206    0.628500   -2.540492
  O      1.101547   -2.535239   -1.564798
  O     -3.779221   -0.668319    0.997790
  N      0.297653   -1.489278    0.277476
  N     -1.912561    0.586201    1.403690
  N      2.366647   -0.907116   -0.611546
  N     -2.292672   -0.341548   -0.695942
  C      1.544940    0.322582    1.294712
  C     -0.586781    1.311048   -0.404906
  C      0.333216   -0.470317    1.281162
  C     -0.456985    0.777848    1.000144
  C      1.923636    1.184884    2.435875
  C     -0.368959    2.742994   -0.709286
  C      2.563676    0.152061    0.257516
  C     -1.393977    0.519662   -1.333978
  C      1.233489   -1.704866   -0.697584
  C     -2.738774   -0.174057    0.623188
  H      0.084760   -0.877716    2.264009
  H     -0.147041    1.604795    1.624194
  H      2.070279    2.217751    2.114571
  H      1.191065    1.152379    3.237943
  H      2.893292    0.858876    2.815092
  H     -1.269457    3.335443   -0.504937
  H      0.448275    3.159409   -0.124781
  H     -0.154642    2.859156   -1.770123
  H     -0.554755   -2.002013    0.141030
  H     -2.224492    0.664788    2.358206
  H      3.037794   -1.024079   -1.352815
  H     -2.940079   -0.826777   -1.297553

 Total Charge           Charge          ....    0
 Multiplicity           Mult            ....    3
 Number of Electrons    NEL             ....  132
 Basis Dimension        Dim             ....  882

ORBITAL ENERGIES
----------------
                 SPIN UP ORBITALS
  NO   OCC          E(Eh)            E(eV)
   0   1.0000     -19.338449      -526.2260
   1   1.0000     -19.332114      -526.0536
   2   1.0000     -19.323491      -525.8189
   3   1.0000     -19.317580      -525.6581
   4   1.0000     -14.563937      -396.3049
   5   1.0000     -14.562643      -396.2697
   6   1.0000     -14.561101      -396.2277
   7   1.0000     -14.561050      -396.2263
   8   1.0000     -10.506007      -285.8830
   9   1.0000     -10.505756      -285.8762
  10   1.0000     -10.483807      -285.2789
  11   1.0000     -10.481927      -285.2277
  12   1.0000     -10.449748      -284.3521
  13   1.0000     -10.443034      -284.1694
  14   1.0000     -10.420405      -283.5536
  15   1.0000     -10.417525      -283.4753
  16   1.0000     -10.381357      -282.4911
  17   1.0000     -10.375177      -282.3229
  18   1.0000      -1.222547       -33.2672
  19   1.0000      -1.219190       -33.1759
  20   1.0000      -1.200447       -32.6658
  21   1.0000      -1.196703       -32.5639
  22   1.0000      -1.124381       -30.5960
  23   1.0000      -1.098768       -29.8990
  24   1.0000      -1.067874       -29.0583
  25   1.0000      -1.057310       -28.7709
  26   1.0000      -1.003343       -27.3024
  27   1.0000      -0.959603       -26.1121
  28   1.0000      -0.896979       -24.4080
  29   1.0000      -0.845757       -23.0142
  30   1.0000      -0.828718       -22.5506
  31   1.0000      -0.806322       -21.9411
  32   1.0000      -0.787739       -21.4355
  33   1.0000      -0.781388       -21.2627
  34   1.0000      -0.709715       -19.3123
  35   1.0000      -0.699551       -19.0357
  36   1.0000      -0.695094       -18.9145
  37   1.0000      -0.682101       -18.5609
  38   1.0000      -0.658785       -17.9264
  39   1.0000      -0.633285       -17.2325
  40   1.0000      -0.628741       -17.1089
  41   1.0000      -0.603312       -16.4170
  42   1.0000      -0.597576       -16.2609
  43   1.0000      -0.591897       -16.1063
  44   1.0000      -0.583560       -15.8795
  45   1.0000      -0.574386       -15.6298
  46   1.0000      -0.568138       -15.4598
  47   1.0000      -0.565573       -15.3900
  48   1.0000      -0.559414       -15.2224
  49   1.0000      -0.556146       -15.1335
  50   1.0000      -0.548417       -14.9232
  51   1.0000      -0.540711       -14.7135
  52   1.0000      -0.538213       -14.6455
  53   1.0000      -0.522930       -14.2297
  54   1.0000      -0.516882       -14.0651
  55   1.0000      -0.511797       -13.9267
  56   1.0000      -0.502939       -13.6857
  57   1.0000      -0.427776       -11.6404
  58   1.0000      -0.422854       -11.5065
  59   1.0000      -0.409986       -11.1563
  60   1.0000      -0.406312       -11.0563
  61   1.0000      -0.400881       -10.9085
  62   1.0000      -0.393417       -10.7054
  63   1.0000      -0.391458       -10.6521
  64   1.0000      -0.383515       -10.4360
  65   1.0000      -0.344423        -9.3722
  66   1.0000      -0.326224        -8.8770
  67   0.0000       0.009760         0.2656
  68   0.0000       0.028856         0.7852
  69   0.0000       0.033047         0.8992
  70   0.0000       0.033532         0.9124
  71   0.0000       0.052398         1.4258

                 SPIN DOWN ORBITALS
  NO   OCC          E(Eh)            E(eV)
   0   1.0000     -19.334832      -526.1275
   1   1.0000     -19.328530      -525.9561
   2   1.0000     -19.323084      -525.8079
   3   1.0000     -19.317625      -525.6593
   4   1.0000     -14.563053      -396.2808
   5   1.0000     -14.562506      -396.2659
   6   1.0000     -14.560976      -396.2243
   7   1.0000     -14.559051      -396.1719
   8   1.0000     -10.506021      -285.8834
   9   1.0000     -10.505802      -285.8774
  10   1.0000     -10.484806      -285.3061
  11   1.0000     -10.482653      -285.2475
  12   1.0000     -10.449091      -284.3342
  13   1.0000     -10.443093      -284.1710
  14   1.0000     -10.408256      -283.2230
  15   1.0000     -10.406136      -283.1654
  16   1.0000     -10.381918      -282.5064
  17   1.0000     -10.375749      -282.3385
  18   1.0000      -1.220524       -33.2121
  19   1.0000      -1.217451       -33.1285
  20   1.0000      -1.196283       -32.5525
  21   1.0000      -1.192620       -32.4529
  22   1.0000      -1.120631       -30.4939
  23   1.0000      -1.096018       -29.8242
  24   1.0000      -1.065706       -28.9993
  25   1.0000      -1.055060       -28.7096
  26   1.0000      -0.991825       -26.9889
  27   1.0000      -0.942311       -25.6416
  28   1.0000      -0.890413       -24.2294
  29   1.0000      -0.839937       -22.8559
  30   1.0000      -0.819811       -22.3082
  31   1.0000      -0.801330       -21.8053
  32   1.0000      -0.785858       -21.3843
  33   1.0000      -0.779487       -21.2109
  34   1.0000      -0.704374       -19.1670
  35   1.0000      -0.692642       -18.8478
  36   1.0000      -0.686692       -18.6858
  37   1.0000      -0.672537       -18.3007
  38   1.0000      -0.647877       -17.6296
  39   1.0000      -0.628873       -17.1125
  40   1.0000      -0.624582       -16.9957
  41   1.0000      -0.596569       -16.2335
  42   1.0000      -0.591700       -16.1010
  43   1.0000      -0.586616       -15.9626
  44   1.0000      -0.576490       -15.6871
  45   1.0000      -0.568331       -15.4651
  46   1.0000      -0.563302       -15.3282
  47   1.0000      -0.560999       -15.2656
  48   1.0000      -0.551729       -15.0133
  49   1.0000      -0.547617       -14.9014
  50   1.0000      -0.539581       -14.6828
  51   1.0000      -0.535527       -14.5724
  52   1.0000      -0.530804       -14.4439
  53   1.0000      -0.515813       -14.0360
  54   1.0000      -0.510077       -13.8799
  55   1.0000      -0.505010       -13.7420
  56   1.0000      -0.495735       -13.4896
  57   1.0000      -0.422153       -11.4874
  58   1.0000      -0.418670       -11.3926
  59   1.0000      -0.405861       -11.0440
  60   1.0000      -0.393450       -10.7063
  61   1.0000      -0.392024       -10.6675
  62   1.0000      -0.388599       -10.5743
  63   1.0000      -0.387653       -10.5486
  64   1.0000      -0.376784       -10.2528
  65   0.0000      -0.059097        -1.6081
  66   0.0000      -0.044535        -1.2119
  67   0.0000       0.009199         0.2503
  68   0.0000       0.028591         0.7780
  69   0.0000       0.033169         0.9026

----------------------------------------------------------------------------------------------------
          SPIN FLIP ABSORPTION SPECTRUM VIA TRANSITION ELECTRIC DIPOLE MOMENTS
----------------------------------------------------------------------------------------------------
     Transition      Energy     Energy  Wavelength fosc(D2)      D2        DX        DY        DZ
                      (eV)      (cm-1)    (nm)                 (au**2)    (au)      (au)      (au)
----------------------------------------------------------------------------------------------------
  1-3A  ->  2-3A    0.128322    1035.0  9661.9   0.000001110   0.00035  -0.01150  -0.01442   0.00356

Dispersion correction             ... done (  0.1 sec)

MULLIKEN ATOMIC CHARGES AND SPIN DENSITIES
------------------------------------------
   0 O :   -0.698646   -0.137785
   1 O :   -0.639055    0.126491
   2 O :   -0.652943    0.000256
   3 O :   -0.649015    0.003296
   4 N :   -0.188839    0.017098
   5 N :   -0.333830    0.009493
   6 N :   -0.045272   -0.025963
   7 N :   -0.014555    0.007648
   8 C :    1.019265    0.349373
   9 C :   -0.147509    0.297446
  10 C :    0.190339   -0.696202
  11 C :    0.851499    0.312149
  12 C :   -1.641655    0.036990
  13 C :   -1.591292   -0.025425
  14 C :   -0.020772   -0.483608
  15 C :    0.259974    0.102482
  16 C :    0.513785    0.043006
  17 C :    0.352927   -0.001539
  18 H :    0.366896   -0.055094
  19 H :    0.674466    0.082441
  20 H :    0.334174   -0.013813
  21 H :    0.347331   -0.001097
  22 H :    0.426022   -0.015222
  23 H :    0.349189    0.031740
  24 H :    0.312748    0.003305
  25 H :    0.358254    0.015638
  26 H :    0.097986    0.006909
  27 H :    0.069322    0.002820
  28 H :    0.039596    0.007312
  29 H :    0.059609   -0.000146
Sum of atomic charges       :    0.0000000

LOEWDIN ATOMIC CHARGES AND SPIN DENSITIES
-----------------------------------------
   0 O :    0.077618   -0.117642
   1 O :    0.115086    0.113432
   2 O :    0.095700    0.000796
   3 O :    0.084309    0.003565
   4 N :    0.303082    0.002212
   5 N :    0.298995    0.015386
   6 N :    0.333360   -0.031427
   7 N :    0.312302    0.006915
   8 C :   -0.051374   -0.446834
   9 C :   -0.008960    0.520635
  10 C :   -0.128116   -0.058378
  11 C :   -0.120165   -0.001376
  12 C :    0.184041   -0.061865
  13 C :    0.200678    0.078054
  14 C :   -0.407204   -0.081799
  15 C :   -0.397815    0.068780
  16 C :   -0.472572    0.000368
  17 C :   -0.494449    0.000034
  18 H :    0.078300   -0.014849
  19 H :    0.021640   -0.006409
  20 H :    0.016729   -0.016501
  21 H :    0.005550    0.000051
  22 H :    0.021750   -0.016938
  23 H :    0.018279    0.029490
  24 H :   -0.002862    0.003933
  25 H :    0.004701    0.009125
  26 H :   -0.031290    0.000435
  27 H :   -0.034460    0.002890
  28 H :   -0.009961   -0.003035
  29 H :   -0.012890    0.000953

  Mayer bond orders larger than 0.100000
B(  0-O , 12-C ) :   0.1206 B(  0-O , 14-C ) :   1.2722 B(  1-O , 15-C ) :   1.4724
B(  2-O , 16-C ) :   1.5672 B(  3-O , 17-C ) :   1.5754 B(  4-N ,  8-C ) :   0.2145
B(  4-N ,  9-C ) :   0.1122 B(  4-N , 10-C ) :   0.4425 B(  4-N , 16-C ) :   1.0322
B(  4-N , 26-H ) :   1.0855 B(  5-N ,  9-C ) :   0.3493 B(  5-N , 10-C ) :   0.1513
B(  5-N , 17-C ) :   1.2629 B(  5-N , 27-H ) :   1.0470 B(  6-N , 14-C ) :   0.9796
B(  6-N , 16-C ) :   0.9324 B(  6-N , 28-H ) :   1.1056 B(  7-N , 15-C ) :   0.9952
B(  7-N , 17-C ) :   0.9686 B(  7-N , 29-H ) :   1.0649 B(  8-C , 10-C ) :   0.3291
B(  8-C , 11-C ) :   0.4791 B(  8-C , 12-C ) :   0.2398 B(  8-C , 14-C ) :   0.2293
B(  8-C , 16-C ) :   0.1069 B(  8-C , 18-H ) :  -0.1914 B(  8-C , 21-H ) :  -0.1556
B(  9-C , 10-C ) :   0.5298 B(  9-C , 11-C ) :  -0.4607 B(  9-C , 13-C ) :   0.3442
B(  9-C , 14-C ) :   0.1854 B(  9-C , 15-C ) :   0.8241 B(  9-C , 19-H ) :  -0.1636
B(  9-C , 25-H ) :  -0.1130 B( 10-C , 11-C ) :   0.1066 B( 10-C , 12-C ) :  -0.3524
B( 10-C , 14-C ) :   0.4401 B( 10-C , 16-C ) :  -0.1373 B( 10-C , 18-H ) :   1.0568
B( 10-C , 19-H ) :  -0.1335 B( 11-C , 12-C ) :   0.2193 B( 11-C , 13-C ) :  -0.1252
B( 11-C , 14-C ) :  -0.1078 B( 11-C , 15-C ) :  -0.2548 B( 11-C , 17-C ) :  -0.1772
B( 11-C , 19-H ) :   0.8390 B( 12-C , 19-H ) :  -0.1350 B( 12-C , 20-H ) :   0.8927
B( 12-C , 21-H ) :   1.0806 B( 12-C , 22-H ) :   0.8213 B( 13-C , 15-C ) :  -0.1528
B( 13-C , 23-H ) :   0.8502 B( 13-C , 24-H ) :   1.0208 B( 13-C , 25-H ) :   0.9852
B( 14-C , 16-C ) :  -0.1725

Dispersion correction           -0.058044441
FINAL SINGLE POINT ENERGY      -908.773202079035

DIPOLE MOMENT
-------------

Method             : TDA/CIS
Type of density    : Electron Density
Level              : Relaxed density
State              :   1
Multiplicity       :   3
Irrep              :   0
Energy             :     0.0000000000000000 Eh
Relativity type    :
Basis              : AO
                                X                 Y                 Z
Electronic contribution:     -2.329220504      -8.772059671      -6.050237103
Nuclear contribution   :      2.375815250       9.965907800       8.287634021
                        -----------------------------------------
Total Dipole Moment    :      0.046594746       1.193848129       2.237396918
                        -----------------------------------------
Magnitude (a.u.)       :      2.536412701
Magnitude (Debye)      :      6.447048731

Rotational constants in cm-1:             0.020977             0.012492             0.011274
Rotational constants in MHz :           628.864069           374.492345           337.981182

                             ****ORCA TERMINATED NORMALLY****
TOTAL RUN TIME: 0 days 0 hours 4 minutes 25 seconds 811 msec
