                         Program Version 6.0.0  -   RELEASE  -
|  1> ! EnGrad wB97M-D3BJ def2-TZVPPD
|  2> %pal nprocs 8 end%pal nprocs 16 end
|  3> %tddft
|  4>  sf true
|  5>  nroots 2 Iroot 2 end
|  6> *xyz 0 3
|  7> O   0.20266276353967 0.92264371805445 -0.00105837106547
|  8> C   0.65635554424591 -0.34629192746934 -0.00019188293651
|  9> C   -0.73237714182106 -0.62863252166032 0.00025816074968
| 10> H   1.21331827647401 -0.64591355008465 0.89301983803466
| 11> H   1.2133899088348 -0.64669461661075 -0.89306328561898
| 12> H   -1.27588984713774 -0.68799401089296 -0.92783060607448
| 13> H   -1.27525950413558 -0.68551709133642 0.9288661469111
| 14> *
| 15>
| 16>                          ****END OF INPUT****

CARTESIAN COORDINATES (ANGSTROEM)
---------------------------------
  O      0.202663    0.922644   -0.001058
  C      0.656356   -0.346292   -0.000192
  C     -0.732377   -0.628633    0.000258
  H      1.213318   -0.645914    0.893020
  H      1.213390   -0.646695   -0.893063
  H     -1.275890   -0.687994   -0.927831
  H     -1.275260   -0.685517    0.928866

 Total Charge           Charge          ....    0
 Multiplicity           Mult            ....    3
 Number of Electrons    NEL             ....   24
 Basis Dimension        Dim             ....  182

ORBITAL ENERGIES
----------------
                 SPIN UP ORBITALS
  NO   OCC          E(Eh)            E(eV)
   0   1.0000     -19.421161      -528.4767
   1   1.0000     -10.408406      -283.2271
   2   1.0000     -10.334410      -281.2136
   3   1.0000      -1.232498       -33.5380
   4   1.0000      -0.861716       -23.4485
   5   1.0000      -0.746859       -20.3231
   6   1.0000      -0.653960       -17.7952
   7   1.0000      -0.617725       -16.8092
   8   1.0000      -0.549782       -14.9603
   9   1.0000      -0.501315       -13.6415
  10   1.0000      -0.463955       -12.6249
  11   1.0000      -0.448833       -12.2134
  12   1.0000      -0.237496        -6.4626
  13   0.0000       0.040234         1.0948
  14   0.0000       0.063615         1.7311
  15   0.0000       0.072189         1.9644
  16   0.0000       0.085561         2.3282
  17   0.0000       0.115097         3.1319

                 SPIN DOWN ORBITALS
  NO   OCC          E(Eh)            E(eV)
   0   1.0000     -19.390751      -527.6492
   1   1.0000     -10.409404      -283.2543
   2   1.0000     -10.322175      -280.8807
   3   1.0000      -1.169058       -31.8117
   4   1.0000      -0.827141       -22.5076
   5   1.0000      -0.726685       -19.7741
   6   1.0000      -0.607676       -16.5357
   7   1.0000      -0.580977       -15.8092
   8   1.0000      -0.522499       -14.2179
   9   1.0000      -0.471259       -12.8236
  10   1.0000      -0.399601       -10.8737
  11   0.0000      -0.083899        -2.2830
  12   0.0000       0.037671         1.0251
  13   0.0000       0.047142         1.2828
  14   0.0000       0.062995         1.7142
  15   0.0000       0.069829         1.9001

----------------------------------------------------------------------------------------------------
          SPIN FLIP ABSORPTION SPECTRUM VIA TRANSITION ELECTRIC DIPOLE MOMENTS
----------------------------------------------------------------------------------------------------
     Transition      Energy     Energy  Wavelength fosc(D2)      D2        DX        DY        DZ
                      (eV)      (cm-1)    (nm)                 (au**2)    (au)      (au)      (au)
----------------------------------------------------------------------------------------------------
  1-3A  ->  2-3A    3.632456   29297.7   341.3   0.001736517   0.01951   0.00016   0.00032   0.13969

Dispersion correction             ... done (  0.0 sec)

MULLIKEN ATOMIC CHARGES AND SPIN DENSITIES
------------------------------------------
   0 O :   -0.290954    0.658507
   1 C :    0.137978    0.240170
   2 C :   -0.423892   -0.634305
   3 H :    0.207024    0.024475
   4 H :    0.206949    0.024427
   5 H :    0.081258   -0.156788
   6 H :    0.081636   -0.156486
Sum of atomic charges       :    0.0000000

LOEWDIN ATOMIC CHARGES AND SPIN DENSITIES
-----------------------------------------
   0 O :    0.110190    0.624850
   1 C :   -0.192440    0.049561
   2 C :    0.147557   -0.541757
   3 H :    0.038006    0.024785
   4 H :    0.037997    0.024786
   5 H :   -0.070665   -0.091133
   6 H :   -0.070644   -0.091091

  Mayer bond orders larger than 0.100000
B(  0-O ,  1-C ) :   0.8128 B(  0-O ,  2-C ) :   0.3762 B(  1-C ,  2-C ) :   0.5975
B(  1-C ,  3-H ) :   0.9872 B(  1-C ,  4-H ) :   0.9871 B(  2-C ,  5-H ) :   1.1448
B(  2-C ,  6-H ) :   1.1445

Dispersion correction           -0.005405170
FINAL SINGLE POINT ENERGY      -153.695723761186

DIPOLE MOMENT
-------------

Method             : TDA/CIS
Type of density    : Electron Density
Level              : Relaxed density
State              :   2
Multiplicity       :   3
Irrep              :   0
Energy             :     0.0000000000000000 Eh
Relativity type    :
Basis              : AO
                                X                 Y                 Z
Electronic contribution:      0.855072082       2.451590660      -0.002386767
Nuclear contribution   :     -0.302229565      -2.518784428       0.002209632
                        -----------------------------------------
Total Dipole Moment    :      0.552842517      -0.067193768      -0.000177135
                        -----------------------------------------
Magnitude (a.u.)       :      0.556911019
Magnitude (Debye)      :      1.415555314

Rotational constants in cm-1:             0.981125             0.571123             0.421356
Rotational constants in MHz :         29413.381068         17121.829471         12631.925014

                             ****ORCA TERMINATED NORMALLY****
TOTAL RUN TIME: 0 days 0 hours 0 minutes 18 seconds 341 msec
