                         Program Version 6.0.0  -   RELEASE  -
|  1> ! Engrad def2-TZVPPD wB97M-D3BJ
|  2> %pal nprocs 8 end%pal nprocs 64 end
|  3> %tddft Nroots 2 Iroot 2
|  4> sf true
|  5> end
|  6> *xyz 0 3
|  7> O   4.06809488 -0.24344226 1.05036529
|  8> O   -2.14736586 1.87370793 -2.05134499
|  9> O   1.34940805 -2.85341228 -1.25530338
| 10> O   -3.59382082 -1.59637831 0.42853321
| 11> N   0.4874151 -1.0241365 -0.24517009
| 12> N   -1.93481998 -0.2457529 1.24706078
| 13> N   2.59223766 -1.75562182 0.3252901
| 14> N   -2.67097793 0.02326984 -0.91460099
| 15> C   1.8110945 0.4715483 1.01165416
| 16> C   -1.09320984 1.64296943 -0.00032926
| 17> C   0.46676269 -0.20849497 0.956486
| 18> C   -0.80054233 0.64642507 1.08266676
| 19> C   2.19340705 1.83794766 1.41586257
| 20> C   -0.57594584 2.99385331 0.05068294
| 21> C   2.90849936 -0.48799477 0.79736825
| 22> C   -1.9816403 1.21304374 -1.05787482
| 23> C   1.46528452 -1.95150559 -0.45966802
| 24> C   -2.78226667 -0.69167728 0.28027457
| 25> H   0.53406402 -0.88534187 1.83122796
| 26> H   -0.61757824 1.19125093 2.03282034
| 27> H   3.12981886 1.78705126 1.94501644
| 28> H   2.26367158 2.56036621 0.56835744
| 29> H   1.47595458 2.3241972 2.09403651
| 30> H   -0.44303053 3.36887318 1.07490948
| 31> H   0.39525775 3.11335224 -0.39709928
| 32> H   -1.23827735 3.65604059 -0.49591995
| 33> H   -0.41179648 -1.35379972 -0.56460824
| 34> H   -1.88868046 -0.89263907 2.00665357
| 35> H   3.3535734 -2.39001308 0.14458704
| 36> H   -3.35352965 -0.15034615 -1.62897674
| 37> *
| 38>
| 39>                          ****END OF INPUT****

CARTESIAN COORDINATES (ANGSTROEM)
---------------------------------
  O      4.068095   -0.243442    1.050365
  O     -2.147366    1.873708   -2.051345
  O      1.349408   -2.853412   -1.255303
  O     -3.593821   -1.596378    0.428533
  N      0.487415   -1.024137   -0.245170
  N     -1.934820   -0.245753    1.247061
  N      2.592238   -1.755622    0.325290
  N     -2.670978    0.023270   -0.914601
  C      1.811094    0.471548    1.011654
  C     -1.093210    1.642969   -0.000329
  C      0.466763   -0.208495    0.956486
  C     -0.800542    0.646425    1.082667
  C      2.193407    1.837948    1.415863
  C     -0.575946    2.993853    0.050683
  C      2.908499   -0.487995    0.797368
  C     -1.981640    1.213044   -1.057875
  C      1.465285   -1.951506   -0.459668
  C     -2.782267   -0.691677    0.280275
  H      0.534064   -0.885342    1.831228
  H     -0.617578    1.191251    2.032820
  H      3.129819    1.787051    1.945016
  H      2.263672    2.560366    0.568357
  H      1.475955    2.324197    2.094037
  H     -0.443031    3.368873    1.074909
  H      0.395258    3.113352   -0.397099
  H     -1.238277    3.656041   -0.495920
  H     -0.411796   -1.353800   -0.564608
  H     -1.888680   -0.892639    2.006654
  H      3.353573   -2.390013    0.144587
  H     -3.353530   -0.150346   -1.628977

 Total Charge           Charge          ....    0
 Multiplicity           Mult            ....    3
 Number of Electrons    NEL             ....  132
 Basis Dimension        Dim             ....  882

ORBITAL ENERGIES
----------------
                 SPIN UP ORBITALS
  NO   OCC          E(Eh)            E(eV)
   0   1.0000     -19.337859      -526.2099
   1   1.0000     -19.337022      -526.1871
   2   1.0000     -19.326949      -525.9130
   3   1.0000     -19.319410      -525.7079
   4   1.0000     -14.569994      -396.4697
   5   1.0000     -14.568980      -396.4421
   6   1.0000     -14.565168      -396.3384
   7   1.0000     -14.557482      -396.1292
   8   1.0000     -10.514919      -286.1255
   9   1.0000     -10.501842      -285.7697
  10   1.0000     -10.483880      -285.2809
  11   1.0000     -10.483177      -285.2617
  12   1.0000     -10.456254      -284.5291
  13   1.0000     -10.448503      -284.3182
  14   1.0000     -10.425927      -283.7039
  15   1.0000     -10.424732      -283.6714
  16   1.0000     -10.382175      -282.5133
  17   1.0000     -10.377285      -282.3803
  18   1.0000      -1.228344       -33.4249
  19   1.0000      -1.224943       -33.3324
  20   1.0000      -1.204903       -32.7871
  21   1.0000      -1.201767       -32.7017
  22   1.0000      -1.126980       -30.6667
  23   1.0000      -1.106448       -30.1080
  24   1.0000      -1.073582       -29.2136
  25   1.0000      -1.060349       -28.8536
  26   1.0000      -0.988568       -26.9003
  27   1.0000      -0.964346       -26.2412
  28   1.0000      -0.904882       -24.6231
  29   1.0000      -0.852706       -23.2033
  30   1.0000      -0.837002       -22.7760
  31   1.0000      -0.799294       -21.7499
  32   1.0000      -0.788717       -21.4621
  33   1.0000      -0.780680       -21.2434
  34   1.0000      -0.707732       -19.2584
  35   1.0000      -0.705026       -19.1847
  36   1.0000      -0.699290       -19.0287
  37   1.0000      -0.684725       -18.6323
  38   1.0000      -0.653737       -17.7891
  39   1.0000      -0.648306       -17.6413
  40   1.0000      -0.624510       -16.9938
  41   1.0000      -0.612797       -16.6751
  42   1.0000      -0.602408       -16.3924
  43   1.0000      -0.589502       -16.0412
  44   1.0000      -0.581968       -15.8361
  45   1.0000      -0.576083       -15.6760
  46   1.0000      -0.572692       -15.5838
  47   1.0000      -0.571251       -15.5445
  48   1.0000      -0.566813       -15.4238
  49   1.0000      -0.563146       -15.3240
  50   1.0000      -0.554793       -15.0967
  51   1.0000      -0.548599       -14.9281
  52   1.0000      -0.541341       -14.7306
  53   1.0000      -0.525566       -14.3014
  54   1.0000      -0.522376       -14.2146
  55   1.0000      -0.513420       -13.9709
  56   1.0000      -0.496603       -13.5133
  57   1.0000      -0.430200       -11.7063
  58   1.0000      -0.424804       -11.5595
  59   1.0000      -0.412575       -11.2267
  60   1.0000      -0.408901       -11.1268
  61   1.0000      -0.400618       -10.9014
  62   1.0000      -0.397549       -10.8179
  63   1.0000      -0.391693       -10.6585
  64   1.0000      -0.386575       -10.5192
  65   1.0000      -0.348250        -9.4764
  66   1.0000      -0.343702        -9.3526
  67   0.0000       0.006999         0.1904
  68   0.0000       0.027874         0.7585
  69   0.0000       0.032207         0.8764
  70   0.0000       0.033685         0.9166
  71   0.0000       0.054140         1.4732

                 SPIN DOWN ORBITALS
  NO   OCC          E(Eh)            E(eV)
   0   1.0000     -19.333509      -526.0915
   1   1.0000     -19.332682      -526.0690
   2   1.0000     -19.326869      -525.9108
   3   1.0000     -19.319309      -525.7051
   4   1.0000     -14.569756      -396.4632
   5   1.0000     -14.568598      -396.4317
   6   1.0000     -14.565030      -396.3346
   7   1.0000     -14.556843      -396.1118
   8   1.0000     -10.514951      -286.1264
   9   1.0000     -10.501874      -285.7705
  10   1.0000     -10.484940      -285.3097
  11   1.0000     -10.484169      -285.2887
  12   1.0000     -10.456949      -284.5480
  13   1.0000     -10.448094      -284.3071
  14   1.0000     -10.414478      -283.3923
  15   1.0000     -10.413057      -283.3537
  16   1.0000     -10.382801      -282.5304
  17   1.0000     -10.377890      -282.3968
  18   1.0000      -1.225291       -33.3419
  19   1.0000      -1.222364       -33.2622
  20   1.0000      -1.201470       -32.6937
  21   1.0000      -1.197660       -32.5900
  22   1.0000      -1.124737       -30.6056
  23   1.0000      -1.104330       -30.0504
  24   1.0000      -1.072016       -29.1710
  25   1.0000      -1.058974       -28.8161
  26   1.0000      -0.975745       -26.5514
  27   1.0000      -0.946577       -25.7577
  28   1.0000      -0.899856       -24.4863
  29   1.0000      -0.847708       -23.0673
  30   1.0000      -0.827394       -22.5145
  31   1.0000      -0.796703       -21.6794
  32   1.0000      -0.785769       -21.3819
  33   1.0000      -0.779228       -21.2039
  34   1.0000      -0.703321       -19.1383
  35   1.0000      -0.697680       -18.9848
  36   1.0000      -0.693300       -18.8656
  37   1.0000      -0.677754       -18.4426
  38   1.0000      -0.647973       -17.6322
  39   1.0000      -0.636150       -17.3105
  40   1.0000      -0.620417       -16.8824
  41   1.0000      -0.606803       -16.5119
  42   1.0000      -0.597372       -16.2553
  43   1.0000      -0.583381       -15.8746
  44   1.0000      -0.575957       -15.6726
  45   1.0000      -0.571030       -15.5385
  46   1.0000      -0.566784       -15.4230
  47   1.0000      -0.560150       -15.2424
  48   1.0000      -0.558646       -15.2015
  49   1.0000      -0.556333       -15.1386
  50   1.0000      -0.546178       -14.8622
  51   1.0000      -0.542850       -14.7717
  52   1.0000      -0.533368       -14.5137
  53   1.0000      -0.515634       -14.0311
  54   1.0000      -0.513428       -13.9711
  55   1.0000      -0.508373       -13.8335
  56   1.0000      -0.492529       -13.4024
  57   1.0000      -0.425557       -11.5800
  58   1.0000      -0.421403       -11.4670
  59   1.0000      -0.400318       -10.8932
  60   1.0000      -0.399833       -10.8800
  61   1.0000      -0.398104       -10.8329
  62   1.0000      -0.392579       -10.6826
  63   1.0000      -0.386879       -10.5275
  64   1.0000      -0.383637       -10.4393
  65   0.0000      -0.064063        -1.7432
  66   0.0000      -0.055325        -1.5055
  67   0.0000       0.006640         0.1807
  68   0.0000       0.027475         0.7476
  69   0.0000       0.032156         0.8750

----------------------------------------------------------------------------------------------------
          SPIN FLIP ABSORPTION SPECTRUM VIA TRANSITION ELECTRIC DIPOLE MOMENTS
----------------------------------------------------------------------------------------------------
     Transition      Energy     Energy  Wavelength fosc(D2)      D2        DX        DY        DZ
                      (eV)      (cm-1)    (nm)                 (au**2)    (au)      (au)      (au)
----------------------------------------------------------------------------------------------------
  1-3A  ->  2-3A    0.021495     173.4  57681.7   0.000000015   0.00003   0.00508  -0.00056   0.00125

Dispersion correction             ... done (  0.1 sec)

MULLIKEN ATOMIC CHARGES AND SPIN DENSITIES
------------------------------------------
   0 O :   -0.651379   -0.163731
   1 O :   -0.644267    0.157912
   2 O :   -0.638142   -0.002188
   3 O :   -0.653813    0.002775
   4 N :   -0.291152   -0.046837
   5 N :   -0.260652    0.023460
   6 N :   -0.026628   -0.005666
   7 N :   -0.016633    0.015135
   8 C :    1.213673    0.255230
   9 C :    0.126216    0.416670
  10 C :    0.315270   -0.379223
  11 C :    0.533953    0.095062
  12 C :   -1.434133   -0.026606
  13 C :   -1.487264    0.027822
  14 C :   -0.124737   -0.417576
  15 C :    0.519783    0.136052
  16 C :    0.272682    0.009361
  17 C :    0.386353   -0.001576
  18 H :    0.253333   -0.137791
  19 H :    0.456814    0.001552
  20 H :    0.349633   -0.012405
  21 H :    0.244728   -0.028562
  22 H :    0.305719    0.007064
  23 H :    0.300388    0.002012
  24 H :    0.231867    0.039769
  25 H :    0.363224    0.020004
  26 H :    0.143656    0.010471
  27 H :    0.054882   -0.001805
  28 H :    0.116501    0.004551
  29 H :    0.040125   -0.000934
Sum of atomic charges       :   -0.0000000

LOEWDIN ATOMIC CHARGES AND SPIN DENSITIES
-----------------------------------------
   0 O :    0.082161   -0.145101
   1 O :    0.114977    0.139834
   2 O :    0.097606   -0.003691
   3 O :    0.079888    0.002993
   4 N :    0.284129   -0.017914
   5 N :    0.280284    0.007942
   6 N :    0.323445   -0.005498
   7 N :    0.324972    0.014788
   8 C :    0.037552   -0.499575
   9 C :   -0.009591    0.501395
  10 C :   -0.130060   -0.039684
  11 C :   -0.111190    0.061239
  12 C :    0.178133   -0.084691
  13 C :    0.180604    0.086898
  14 C :   -0.418048   -0.086106
  15 C :   -0.408497    0.082170
  16 C :   -0.485576   -0.001440
  17 C :   -0.478431    0.000592
  18 H :    0.068805   -0.022861
  19 H :    0.063866    0.008115
  20 H :   -0.010210   -0.006302
  21 H :    0.025431   -0.029752
  22 H :   -0.001361   -0.006803
  23 H :    0.012286    0.009108
  24 H :   -0.008892    0.029081
  25 H :    0.006130    0.006431
  26 H :   -0.038824   -0.001795
  27 H :   -0.035087   -0.000085
  28 H :   -0.010281   -0.000614
  29 H :   -0.014224    0.001325

  Mayer bond orders larger than 0.100000
B(  0-O ,  8-C ) :   0.1051 B(  0-O , 14-C ) :   1.3464 B(  1-O , 15-C ) :   1.4102
B(  2-O , 16-C ) :   1.5968 B(  3-O , 17-C ) :   1.6068 B(  4-N ,  8-C ) :   0.3009
B(  4-N , 11-C ) :   0.1717 B(  4-N , 16-C ) :   1.1504 B(  4-N , 26-H ) :   0.9734
B(  5-N ,  9-C ) :   0.1655 B(  5-N , 10-C ) :   0.2116 B(  5-N , 17-C ) :   1.0759
B(  5-N , 27-H ) :   1.1163 B(  6-N , 14-C ) :   0.9167 B(  6-N , 16-C ) :   1.0195
B(  6-N , 28-H ) :   1.0054 B(  7-N , 15-C ) :   1.0446 B(  7-N , 17-C ) :   0.9889
B(  7-N , 29-H ) :   1.0942 B(  8-C , 10-C ) :  -0.3540 B(  8-C , 11-C ) :   0.2504
B(  8-C , 12-C ) :   0.1329 B(  8-C , 14-C ) :   0.6231 B(  8-C , 22-H ) :  -0.1435
B(  9-C , 10-C ) :   0.3071 B(  9-C , 11-C ) :  -0.2614 B(  9-C , 13-C ) :   0.2943
B(  9-C , 15-C ) :   0.6077 B(  9-C , 19-H ) :  -0.2045 B(  9-C , 23-H ) :  -0.1136
B(  9-C , 25-H ) :  -0.1148 B( 10-C , 11-C ) :   0.5788 B( 10-C , 12-C ) :   0.1746
B( 10-C , 14-C ) :   0.1449 B( 10-C , 16-C ) :  -0.1425 B( 10-C , 18-H ) :   0.8543
B( 11-C , 13-C ) :  -0.2904 B( 11-C , 17-C ) :  -0.1613 B( 11-C , 19-H ) :   0.9131
B( 12-C , 20-H ) :   0.9452 B( 12-C , 21-H ) :   0.9069 B( 12-C , 22-H ) :   1.0193
B( 13-C , 23-H ) :   1.0289 B( 13-C , 24-H ) :   1.0017 B( 13-C , 25-H ) :   0.8851

Dispersion correction           -0.056674816
FINAL SINGLE POINT ENERGY      -908.789097476350

DIPOLE MOMENT
-------------

Method             : TDA/CIS
Type of density    : Electron Density
Level              : Relaxed density
State              :   2
Multiplicity       :   3
Irrep              :   0
Energy             :     0.0000000000000000 Eh
Relativity type    :
Basis              : AO
                                X                 Y                 Z
Electronic contribution:     -3.132110129     -10.212073767      -4.693030046
Nuclear contribution   :      3.167167040      11.916778378       6.516962382
                        -----------------------------------------
Total Dipole Moment    :      0.035056911       1.704704612       1.823932335
                        -----------------------------------------
Magnitude (a.u.)       :      2.496793136
Magnitude (Debye)      :      6.346343799

Rotational constants in cm-1:             0.021281             0.010906             0.008800
Rotational constants in MHz :           637.975444           326.939910           263.810447

                             ****ORCA TERMINATED NORMALLY****
TOTAL RUN TIME: 0 days 0 hours 4 minutes 20 seconds 346 msec
