                         Program Version 6.0.0  -   RELEASE  -
|  1> ! Engrad def2-TZVPPD wB97M-D3BJ
|  2> %pal nprocs 8 end%pal nprocs 64 end
|  3> %tddft Nroots 2 Iroot 1
|  4> sf true
|  5> end
|  6> *xyz 0 3
|  7> O   2.92562208 1.25091906 -0.50156497
|  8> O   -0.5387579 0.42670565 -1.84876919
|  9> O   1.42071256 -2.83491521 -1.8141568
| 10> O   -3.09211946 -1.36250697 1.44269188
| 11> N   0.79313115 -2.0353076 0.2268078
| 12> N   -2.37317474 0.78639029 1.66330304
| 13> N   2.21340439 -0.81143645 -1.10854488
| 14> N   -1.91581832 -0.38780295 -0.25526622
| 15> C   1.52296507 0.10384097 1.00715143
| 16> C   -0.98989643 1.81755756 0.01989153
| 17> C   0.82626897 -1.06436538 1.18157565
| 18> C   -1.65773926 1.85984559 1.18022739
| 19> C   1.61144391 1.16062107 2.05242896
| 20> C   -0.18004853 2.95631734 -0.51890998
| 21> C   2.2687714 0.26251456 -0.22812705
| 22> C   -1.09523482 0.60541872 -0.7896248
| 23> C   1.4712228 -1.96152266 -0.97894161
| 24> C   -2.51400111 -0.40254376 0.98684589
| 25> H   0.26396889 -1.253797 2.07932685
| 26> H   -1.64674166 2.72878429 1.81298892
| 27> H   1.34111664 2.12782796 1.63210685
| 28> H   0.95564815 0.94174665 2.88863464
| 29> H   2.6316959 1.25469824 2.40948945
| 30> H   -0.55901462 3.25747959 -1.49588612
| 31> H   -0.21661336 3.81095183 0.15349907
| 32> H   0.85686469 2.66270353 -0.65113571
| 33> H   0.25990901 -2.86736325 0.37055894
| 34> H   -2.83579052 0.82550309 2.55680708
| 35> H   2.67968292 -0.69079426 -1.98749775
| 36> H   -1.99075889 -1.23764002 -0.78596701
| 37> *
| 38>
| 39>                          ****END OF INPUT****

CARTESIAN COORDINATES (ANGSTROEM)
---------------------------------
  O      2.925622    1.250919   -0.501565
  O     -0.538758    0.426706   -1.848769
  O      1.420713   -2.834915   -1.814157
  O     -3.092119   -1.362507    1.442692
  N      0.793131   -2.035308    0.226808
  N     -2.373175    0.786390    1.663303
  N      2.213404   -0.811436   -1.108545
  N     -1.915818   -0.387803   -0.255266
  C      1.522965    0.103841    1.007151
  C     -0.989896    1.817558    0.019892
  C      0.826269   -1.064365    1.181576
  C     -1.657739    1.859846    1.180227
  C      1.611444    1.160621    2.052429
  C     -0.180049    2.956317   -0.518910
  C      2.268771    0.262515   -0.228127
  C     -1.095235    0.605419   -0.789625
  C      1.471223   -1.961523   -0.978942
  C     -2.514001   -0.402544    0.986846
  H      0.263969   -1.253797    2.079327
  H     -1.646742    2.728784    1.812989
  H      1.341117    2.127828    1.632107
  H      0.955648    0.941747    2.888635
  H      2.631696    1.254698    2.409489
  H     -0.559015    3.257480   -1.495886
  H     -0.216613    3.810952    0.153499
  H      0.856865    2.662704   -0.651136
  H      0.259909   -2.867363    0.370559
  H     -2.835791    0.825503    2.556807
  H      2.679683   -0.690794   -1.987498
  H     -1.990759   -1.237640   -0.785967

 Total Charge           Charge          ....    0
 Multiplicity           Mult            ....    3
 Number of Electrons    NEL             ....  132
 Basis Dimension        Dim             ....  882

ORBITAL ENERGIES
----------------
                 SPIN UP ORBITALS
  NO   OCC          E(Eh)            E(eV)
   0   1.0000     -19.328867      -525.9652
   1   1.0000     -19.327011      -525.9147
   2   1.0000     -19.325701      -525.8791
   3   1.0000     -19.316790      -525.6366
   4   1.0000     -14.589414      -396.9982
   5   1.0000     -14.586241      -396.9118
   6   1.0000     -14.571249      -396.5038
   7   1.0000     -14.546008      -395.8170
   8   1.0000     -10.515031      -286.1285
   9   1.0000     -10.505503      -285.8693
  10   1.0000     -10.480633      -285.1925
  11   1.0000     -10.455442      -284.5070
  12   1.0000     -10.434833      -283.9462
  13   1.0000     -10.406742      -283.1819
  14   1.0000     -10.395184      -282.8673
  15   1.0000     -10.382628      -282.5257
  16   1.0000     -10.368251      -282.1345
  17   1.0000     -10.353175      -281.7242
  18   1.0000      -1.228956       -33.4416
  19   1.0000      -1.220821       -33.2202
  20   1.0000      -1.197424       -32.5836
  21   1.0000      -1.185386       -32.2560
  22   1.0000      -1.125348       -30.6223
  23   1.0000      -1.122154       -30.5354
  24   1.0000      -1.071980       -29.1700
  25   1.0000      -1.058613       -28.8063
  26   1.0000      -0.970596       -26.4113
  27   1.0000      -0.958076       -26.0706
  28   1.0000      -0.855660       -23.2837
  29   1.0000      -0.849170       -23.1071
  30   1.0000      -0.813682       -22.1414
  31   1.0000      -0.809991       -22.0410
  32   1.0000      -0.795884       -21.6571
  33   1.0000      -0.786870       -21.4118
  34   1.0000      -0.698245       -19.0002
  35   1.0000      -0.697917       -18.9913
  36   1.0000      -0.693924       -18.8826
  37   1.0000      -0.690340       -18.7851
  38   1.0000      -0.644695       -17.5430
  39   1.0000      -0.635444       -17.2913
  40   1.0000      -0.630116       -17.1463
  41   1.0000      -0.607200       -16.5227
  42   1.0000      -0.599374       -16.3098
  43   1.0000      -0.590648       -16.0723
  44   1.0000      -0.572650       -15.5826
  45   1.0000      -0.568692       -15.4749
  46   1.0000      -0.565078       -15.3766
  47   1.0000      -0.553425       -15.0595
  48   1.0000      -0.550692       -14.9851
  49   1.0000      -0.542271       -14.7559
  50   1.0000      -0.530459       -14.4345
  51   1.0000      -0.525815       -14.3082
  52   1.0000      -0.520839       -14.1728
  53   1.0000      -0.516621       -14.0580
  54   1.0000      -0.509305       -13.8589
  55   1.0000      -0.500679       -13.6242
  56   1.0000      -0.489772       -13.3274
  57   1.0000      -0.479693       -13.0531
  58   1.0000      -0.421730       -11.4759
  59   1.0000      -0.415158       -11.2970
  60   1.0000      -0.408117       -11.1054
  61   1.0000      -0.396585       -10.7916
  62   1.0000      -0.389886       -10.6093
  63   1.0000      -0.384341       -10.4584
  64   1.0000      -0.382223       -10.4008
  65   1.0000      -0.347815        -9.4645
  66   1.0000      -0.211027        -5.7423
  67   0.0000       0.011000         0.2993
  68   0.0000       0.018902         0.5143
  69   0.0000       0.028713         0.7813
  70   0.0000       0.037959         1.0329
  71   0.0000       0.042197         1.1482

                 SPIN DOWN ORBITALS
  NO   OCC          E(Eh)            E(eV)
   0   1.0000     -19.328843      -525.9646
   1   1.0000     -19.325695      -525.8789
   2   1.0000     -19.325029      -525.8608
   3   1.0000     -19.310633      -525.4690
   4   1.0000     -14.586115      -396.9084
   5   1.0000     -14.584377      -396.8611
   6   1.0000     -14.571196      -396.5024
   7   1.0000     -14.545135      -395.7933
   8   1.0000     -10.515025      -286.1284
   9   1.0000     -10.505908      -285.8803
  10   1.0000     -10.480616      -285.1921
  11   1.0000     -10.455268      -284.5023
  12   1.0000     -10.434572      -283.9392
  13   1.0000     -10.397082      -282.9190
  14   1.0000     -10.384856      -282.5863
  15   1.0000     -10.382680      -282.5271
  16   1.0000     -10.368737      -282.1477
  17   1.0000     -10.353161      -281.7238
  18   1.0000      -1.228822       -33.4380
  19   1.0000      -1.216411       -33.1002
  20   1.0000      -1.197368       -32.5820
  21   1.0000      -1.176312       -32.0091
  22   1.0000      -1.125098       -30.6155
  23   1.0000      -1.111299       -30.2400
  24   1.0000      -1.071793       -29.1650
  25   1.0000      -1.053270       -28.6609
  26   1.0000      -0.959898       -26.1202
  27   1.0000      -0.945335       -25.7239
  28   1.0000      -0.849076       -23.1045
  29   1.0000      -0.844032       -22.9673
  30   1.0000      -0.813282       -22.1305
  31   1.0000      -0.799059       -21.7435
  32   1.0000      -0.795606       -21.6496
  33   1.0000      -0.780189       -21.2300
  34   1.0000      -0.697721       -18.9860
  35   1.0000      -0.694213       -18.8905
  36   1.0000      -0.687032       -18.6951
  37   1.0000      -0.681194       -18.5362
  38   1.0000      -0.644381       -17.5345
  39   1.0000      -0.627746       -17.0818
  40   1.0000      -0.622316       -16.9341
  41   1.0000      -0.600270       -16.3342
  42   1.0000      -0.593749       -16.1567
  43   1.0000      -0.582124       -15.8404
  44   1.0000      -0.569042       -15.4844
  45   1.0000      -0.560473       -15.2512
  46   1.0000      -0.558309       -15.1924
  47   1.0000      -0.552457       -15.0331
  48   1.0000      -0.543900       -14.8003
  49   1.0000      -0.537005       -14.6126
  50   1.0000      -0.521999       -14.2043
  51   1.0000      -0.518420       -14.1069
  52   1.0000      -0.515534       -14.0284
  53   1.0000      -0.505845       -13.7647
  54   1.0000      -0.502609       -13.6767
  55   1.0000      -0.497186       -13.5291
  56   1.0000      -0.479147       -13.0382
  57   1.0000      -0.445933       -12.1345
  58   1.0000      -0.421494       -11.4694
  59   1.0000      -0.410845       -11.1797
  60   1.0000      -0.403663       -10.9842
  61   1.0000      -0.389778       -10.6064
  62   1.0000      -0.376238       -10.2380
  63   1.0000      -0.374436       -10.1889
  64   1.0000      -0.348415        -9.4809
  65   0.0000      -0.100085        -2.7234
  66   0.0000       0.010633         0.2893
  67   0.0000       0.020409         0.5554
  68   0.0000       0.027017         0.7352
  69   0.0000       0.035432         0.9642

----------------------------------------------------------------------------------------------------
          SPIN FLIP ABSORPTION SPECTRUM VIA TRANSITION ELECTRIC DIPOLE MOMENTS
----------------------------------------------------------------------------------------------------
     Transition      Energy     Energy  Wavelength fosc(D2)      D2        DX        DY        DZ
                      (eV)      (cm-1)    (nm)                 (au**2)    (au)      (au)      (au)
----------------------------------------------------------------------------------------------------
  1-3A  ->  2-3A    4.000799   32268.6   309.9   0.001413191   0.01442   0.05554   0.08211  -0.06776

Dispersion correction             ... done (  0.1 sec)

MULLIKEN ATOMIC CHARGES AND SPIN DENSITIES
------------------------------------------
   0 O :   -0.703094    0.031116
   1 O :   -0.660043   -0.000170
   2 O :   -0.650098    0.007920
   3 O :   -0.663019    0.000126
   4 N :   -0.018335    0.050432
   5 N :   -0.029250    0.000639
   6 N :    0.010659    0.000938
   7 N :   -0.011742   -0.004432
   8 C :    1.144931    0.498619
   9 C :    0.513202   -0.007917
  10 C :   -0.345000   -0.419762
  11 C :    0.122283   -0.016737
  12 C :   -1.478489   -0.021394
  13 C :   -1.371969    0.018777
  14 C :    0.265635   -0.229007
  15 C :    0.495621    0.010372
  16 C :    0.529952    0.021348
  17 C :    0.478513   -0.002132
  18 H :    0.264867    0.047135
  19 H :    0.172867   -0.000796
  20 H :    0.215894    0.003081
  21 H :    0.310975    0.012263
  22 H :    0.410691    0.005187
  23 H :    0.372313    0.000605
  24 H :    0.318254    0.000734
  25 H :    0.199236   -0.006557
  26 H :    0.019731   -0.001242
  27 H :    0.022662   -0.000175
  28 H :    0.022166    0.003042
  29 H :    0.040588   -0.002016
Sum of atomic charges       :   -0.0000000

LOEWDIN ATOMIC CHARGES AND SPIN DENSITIES
-----------------------------------------
   0 O :    0.071396    0.028101
   1 O :    0.106485    0.000670
   2 O :    0.094126    0.006552
   3 O :    0.077760   -0.000013
   4 N :    0.293322    0.022406
   5 N :    0.278455   -0.000037
   6 N :    0.344530   -0.000541
   7 N :    0.335171   -0.001037
   8 C :   -0.131341   -0.030970
   9 C :   -0.143443   -0.000446
  10 C :    0.065751   -0.030127
  11 C :    0.053028   -0.001452
  12 C :    0.173300   -0.003228
  13 C :    0.184953    0.000198
  14 C :   -0.416603    0.010142
  15 C :   -0.401857   -0.000460
  16 C :   -0.463591    0.000442
  17 C :   -0.489982   -0.000256
  18 H :    0.034653   -0.002305
  19 H :    0.034546   -0.000099
  20 H :   -0.016921   -0.000111
  21 H :   -0.006501    0.000286
  22 H :    0.002234   -0.000251
  23 H :    0.005538    0.000022
  24 H :   -0.002760    0.000011
  25 H :   -0.023645    0.000138
  26 H :   -0.020570    0.002248
  27 H :   -0.017659    0.000007
  28 H :   -0.008536    0.000179
  29 H :   -0.011840   -0.000070

  Mayer bond orders larger than 0.100000
B(  0-O , 14-C ) :   1.4024 B(  1-O , 15-C ) :   1.4364 B(  2-O , 16-C ) :   1.5616
B(  3-O , 17-C ) :   1.5532 B(  4-N , 10-C ) :   0.9528 B(  4-N , 16-C ) :   0.9891
B(  4-N , 26-H ) :   1.1571 B(  5-N , 11-C ) :   0.9678 B(  5-N , 17-C ) :   1.0443
B(  5-N , 27-H ) :   1.1447 B(  6-N , 14-C ) :   1.0268 B(  6-N , 16-C ) :   0.9959
B(  6-N , 28-H ) :   1.1051 B(  7-N , 15-C ) :   1.0181 B(  7-N , 17-C ) :   0.9553
B(  7-N , 29-H ) :   1.1077 B(  8-C , 10-C ) :   0.9399 B(  8-C , 12-C ) :   0.2777
B(  8-C , 14-C ) :   0.5658 B(  8-C , 18-H ) :  -0.1267 B(  9-C , 11-C ) :   1.1498
B(  9-C , 13-C ) :   0.3631 B(  9-C , 15-C ) :   0.8715 B(  9-C , 24-H ) :  -0.1001
B(  9-C , 25-H ) :  -0.1004 B( 10-C , 12-C ) :  -0.1264 B( 10-C , 18-H ) :   1.0957
B( 11-C , 13-C ) :  -0.1870 B( 11-C , 19-H ) :   1.0678 B( 12-C , 20-H ) :   1.0381
B( 12-C , 21-H ) :   1.0229 B( 12-C , 22-H ) :   0.8463 B( 13-C , 23-H ) :   0.8951
B( 13-C , 24-H ) :   1.0679 B( 13-C , 25-H ) :   0.9733

Dispersion correction           -0.057560664
FINAL SINGLE POINT ENERGY      -908.923183017890

DIPOLE MOMENT
-------------

Method             : TDA/CIS
Type of density    : Electron Density
Level              : Relaxed density
State              :   1
Multiplicity       :   3
Irrep              :   0
Energy             :     0.0000000000000000 Eh
Relativity type    :
Basis              : AO
                                X                 Y                 Z
Electronic contribution:     -2.126567392      -9.895297372      -5.323342872
Nuclear contribution   :      1.167650111      10.742610339       7.496760481
                        -----------------------------------------
Total Dipole Moment    :     -0.958917281       0.847312967       2.173417608
                        -----------------------------------------
Magnitude (a.u.)       :      2.522143080
Magnitude (Debye)      :      6.410778236

Rotational constants in cm-1:             0.019604             0.013527             0.010972
Rotational constants in MHz :           587.700891           405.541446           328.925056

                             ****ORCA TERMINATED NORMALLY****
TOTAL RUN TIME: 0 days 0 hours 5 minutes 22 seconds 691 msec
