                         Program Version 6.0.0  -   RELEASE  -
|  1> ! EnGrad wB97M-D3BJ def2-TZVPPD
|  2> %pal nprocs 8 end%pal nprocs 16 end
|  3> %tddft
|  4>  sf true
|  5>  nroots 2 Iroot 1 end
|  6> *xyz 0 3
|  7> O   0.00720908034347 0.7869934574057 -4.469154227e-05
|  8> C   0.72665652093704 -0.43345469545972 0.00011222239357
|  9> C   -0.72970133397352 -0.44665017962995 -0.00011210147169
| 10> H   1.26075171007785 -0.65482482643048 0.91610020387467
| 11> H   1.26055730864678 -0.65487896916154 -0.91600089021456
| 12> H   -1.2617413250492 -0.65784283929466 -0.91823486994208
| 13> H   -1.26153196098243 -0.65774194742934 0.91818012690235
| 14> *
| 15>
| 16>                          ****END OF INPUT****

CARTESIAN COORDINATES (ANGSTROEM)
---------------------------------
  O      0.007209    0.786993   -0.000045
  C      0.726657   -0.433455    0.000112
  C     -0.729701   -0.446650   -0.000112
  H      1.260752   -0.654825    0.916100
  H      1.260557   -0.654879   -0.916001
  H     -1.261741   -0.657843   -0.918235
  H     -1.261532   -0.657742    0.918180

 Total Charge           Charge          ....    0
 Multiplicity           Mult            ....    3
 Number of Electrons    NEL             ....   24
 Basis Dimension        Dim             ....  182

ORBITAL ENERGIES
----------------
                 SPIN UP ORBITALS
  NO   OCC          E(Eh)            E(eV)
   0   1.0000     -19.517233      -531.0909
   1   1.0000     -10.444810      -284.2177
   2   1.0000     -10.430781      -283.8360
   3   1.0000      -1.343131       -36.5484
   4   1.0000      -0.884764       -24.0756
   5   1.0000      -0.817386       -22.2422
   6   1.0000      -0.722047       -19.6479
   7   1.0000      -0.684365       -18.6225
   8   1.0000      -0.608123       -16.5479
   9   1.0000      -0.536074       -14.5873
  10   1.0000      -0.530198       -14.4274
  11   1.0000      -0.492461       -13.4006
  12   1.0000      -0.117983        -3.2105
  13   0.0000       0.029616         0.8059
  14   0.0000       0.052511         1.4289
  15   0.0000       0.065239         1.7752
  16   0.0000       0.085282         2.3206
  17   0.0000       0.094403         2.5688

                 SPIN DOWN ORBITALS
  NO   OCC          E(Eh)            E(eV)
   0   1.0000     -19.485978      -530.2404
   1   1.0000     -10.443811      -284.1905
   2   1.0000     -10.427858      -283.7564
   3   1.0000      -1.279085       -34.8057
   4   1.0000      -0.853541       -23.2260
   5   1.0000      -0.802563       -21.8389
   6   1.0000      -0.661234       -17.9931
   7   1.0000      -0.654782       -17.8175
   8   1.0000      -0.577846       -15.7240
   9   1.0000      -0.517782       -14.0896
  10   1.0000      -0.475493       -12.9388
  11   0.0000      -0.151779        -4.1301
  12   0.0000       0.035645         0.9700
  13   0.0000       0.050806         1.3825
  14   0.0000       0.064694         1.7604
  15   0.0000       0.075541         2.0556

----------------------------------------------------------------------------------------------------
          SPIN FLIP ABSORPTION SPECTRUM VIA TRANSITION ELECTRIC DIPOLE MOMENTS
----------------------------------------------------------------------------------------------------
     Transition      Energy     Energy  Wavelength fosc(D2)      D2        DX        DY        DZ
                      (eV)      (cm-1)    (nm)                 (au**2)    (au)      (au)      (au)
----------------------------------------------------------------------------------------------------
  1-3A  ->  2-3A    6.983382   56324.8   177.5   0.005450107   0.03186  -0.00000   0.00005   0.17848

Dispersion correction             ... done (  0.0 sec)

MULLIKEN ATOMIC CHARGES AND SPIN DENSITIES
------------------------------------------
   0 O :   -0.358263    0.113768
   1 C :   -0.011606   -0.185125
   2 C :   -0.207855   -0.226584
   3 H :    0.141079    0.042141
   4 H :    0.140915    0.042121
   5 H :    0.147871    0.106885
   6 H :    0.147859    0.106793
Sum of atomic charges       :   -0.0000000

LOEWDIN ATOMIC CHARGES AND SPIN DENSITIES
-----------------------------------------
   0 O :   -0.149453    0.133122
   1 C :    0.007699   -0.043247
   2 C :    0.033586   -0.030532
   3 H :    0.028843   -0.017745
   4 H :    0.028838   -0.017747
   5 H :    0.025243   -0.011927
   6 H :    0.025243   -0.011924

  Mayer bond orders larger than 0.100000
B(  0-O ,  1-C ) :   1.2169 B(  0-O ,  2-C ) :   1.2777 B(  0-O ,  3-H ) :  -0.1027
B(  0-O ,  4-H ) :  -0.1028 B(  0-O ,  5-H ) :  -0.1563 B(  0-O ,  6-H ) :  -0.1565
B(  1-C ,  2-C ) :   0.7145 B(  1-C ,  3-H ) :   1.0681 B(  1-C ,  4-H ) :   1.0684
B(  2-C ,  5-H ) :   1.1367 B(  2-C ,  6-H ) :   1.1368

Dispersion correction           -0.005227449
FINAL SINGLE POINT ENERGY      -153.878804238318

DIPOLE MOMENT
-------------

Method             : TDA/CIS
Type of density    : Electron Density
Level              : Relaxed density
State              :   1
Multiplicity       :   3
Irrep              :   0
Energy             :     0.0000000000000000 Eh
Relativity type    :
Basis              : AO
                                X                 Y                 Z
Electronic contribution:      0.035874154      -0.107388041      -0.000009138
Nuclear contribution   :     -0.008303167      -2.397797610       0.000098338
                        -----------------------------------------
Total Dipole Moment    :      0.027570987      -2.505185651       0.000089200
                        -----------------------------------------
Magnitude (a.u.)       :      2.505337365
Magnitude (Debye)      :      6.368061503

Rotational constants in cm-1:             0.857347             0.747194             0.475654
Rotational constants in MHz :         25702.610497         22400.309308         14259.740992

                             ****ORCA TERMINATED NORMALLY****
TOTAL RUN TIME: 0 days 0 hours 0 minutes 25 seconds 964 msec
