                         Program Version 6.0.0  -   RELEASE  -
|  1> ! Engrad def2-TZVPPD wB97M-D3BJ
|  2> %pal nprocs 8 end%pal nprocs 64 end
|  3> %tddft Nroots 2 Iroot 1
|  4> sf true
|  5> end
|  6> *xyz 0 3
|  7> O   2.51292217 1.24345452 -0.3629759
|  8> O   -0.78375297 0.83737716 -2.40193936
|  9> O   0.57212356 -2.68780841 -1.56335924
| 10> O   -2.47791866 -1.56822603 1.067875
| 11> N   0.59679391 -2.11072033 0.63955497
| 12> N   -1.8528595 0.58963453 1.42816001
| 13> N   1.61980403 -0.76435085 -0.9243066
| 14> N   -1.6870084 -0.32068056 -0.67017509
| 15> C   1.43717414 0.00411554 1.35420213
| 16> C   -0.8479379 1.9132358 -0.29778195
| 17> C   0.8146196 -1.15362316 1.60199001
| 18> C   -1.24814896 1.73981425 1.00362376
| 19> C   1.7131664 1.04912935 2.38412181
| 20> C   -0.18659979 3.14837204 -0.78633088
| 21> C   1.91604844 0.24436401 -0.01139556
| 22> C   -1.08572268 0.8225085 -1.22249811
| 23> C   0.90911816 -1.91919626 -0.68824416
| 24> C   -2.04553278 -0.52174719 0.63572987
| 25> H   0.44376456 -1.40383284 2.58295358
| 26> H   -1.11020408 2.50114328 1.74064823
| 27> H   1.35851691 2.01188539 2.04961609
| 28> H   1.22970948 0.79628837 3.33646479
| 29> H   2.77800136 1.15132932 2.55781691
| 30> H   -0.73806434 3.57115813 -1.63140267
| 31> H   -0.12039863 3.89808899 -0.00096804
| 32> H   0.81965355 2.91262904 -1.13598635
| 33> H   -0.02084619 -2.88011623 0.83220667
| 34> H   -2.10971437 0.48026724 2.39636344
| 35> H   1.82494467 -0.56613512 -1.89406535
| 36> H   -1.79748096 -1.11836218 -1.28405647
| 37> *
| 38>
| 39>                          ****END OF INPUT****

CARTESIAN COORDINATES (ANGSTROEM)
---------------------------------
  O      2.512922    1.243455   -0.362976
  O     -0.783753    0.837377   -2.401939
  O      0.572124   -2.687808   -1.563359
  O     -2.477919   -1.568226    1.067875
  N      0.596794   -2.110720    0.639555
  N     -1.852859    0.589635    1.428160
  N      1.619804   -0.764351   -0.924307
  N     -1.687008   -0.320681   -0.670175
  C      1.437174    0.004116    1.354202
  C     -0.847938    1.913236   -0.297782
  C      0.814620   -1.153623    1.601990
  C     -1.248149    1.739814    1.003624
  C      1.713166    1.049129    2.384122
  C     -0.186600    3.148372   -0.786331
  C      1.916048    0.244364   -0.011396
  C     -1.085723    0.822508   -1.222498
  C      0.909118   -1.919196   -0.688244
  C     -2.045533   -0.521747    0.635730
  H      0.443765   -1.403833    2.582954
  H     -1.110204    2.501143    1.740648
  H      1.358517    2.011885    2.049616
  H      1.229709    0.796288    3.336465
  H      2.778001    1.151329    2.557817
  H     -0.738064    3.571158   -1.631403
  H     -0.120399    3.898089   -0.000968
  H      0.819654    2.912629   -1.135986
  H     -0.020846   -2.880116    0.832207
  H     -2.109714    0.480267    2.396363
  H      1.824945   -0.566135   -1.894065
  H     -1.797481   -1.118362   -1.284056

 Total Charge           Charge          ....    0
 Multiplicity           Mult            ....    3
 Number of Electrons    NEL             ....  132
 Basis Dimension        Dim             ....  882

ORBITAL ENERGIES
----------------
                 SPIN UP ORBITALS
  NO   OCC          E(Eh)            E(eV)
   0   1.0000     -19.338156      -526.2180
   1   1.0000     -19.322301      -525.7866
   2   1.0000     -19.322107      -525.7813
   3   1.0000     -19.318501      -525.6831
   4   1.0000     -14.596648      -397.1950
   5   1.0000     -14.576321      -396.6419
   6   1.0000     -14.565234      -396.3402
   7   1.0000     -14.556437      -396.1008
   8   1.0000     -10.515877      -286.1516
   9   1.0000     -10.506313      -285.8913
  10   1.0000     -10.477954      -285.1196
  11   1.0000     -10.460171      -284.6357
  12   1.0000     -10.430242      -283.8213
  13   1.0000     -10.410442      -283.2825
  14   1.0000     -10.402262      -283.0599
  15   1.0000     -10.379119      -282.4302
  16   1.0000     -10.361329      -281.9461
  17   1.0000     -10.360751      -281.9304
  18   1.0000      -1.232348       -33.5339
  19   1.0000      -1.219122       -33.1740
  20   1.0000      -1.190799       -32.4033
  21   1.0000      -1.189410       -32.3655
  22   1.0000      -1.129841       -30.7445
  23   1.0000      -1.116998       -30.3951
  24   1.0000      -1.065691       -28.9989
  25   1.0000      -1.065238       -28.9866
  26   1.0000      -0.972969       -26.4758
  27   1.0000      -0.956342       -26.0234
  28   1.0000      -0.855993       -23.2928
  29   1.0000      -0.848703       -23.0944
  30   1.0000      -0.814843       -22.1730
  31   1.0000      -0.808073       -21.9888
  32   1.0000      -0.793154       -21.5828
  33   1.0000      -0.789447       -21.4819
  34   1.0000      -0.700783       -19.0693
  35   1.0000      -0.695988       -18.9388
  36   1.0000      -0.692392       -18.8409
  37   1.0000      -0.688295       -18.7294
  38   1.0000      -0.644021       -17.5247
  39   1.0000      -0.636707       -17.3257
  40   1.0000      -0.635670       -17.2975
  41   1.0000      -0.598995       -16.2995
  42   1.0000      -0.598375       -16.2826
  43   1.0000      -0.593399       -16.1472
  44   1.0000      -0.575011       -15.6469
  45   1.0000      -0.573509       -15.6060
  46   1.0000      -0.560107       -15.2413
  47   1.0000      -0.554067       -15.0769
  48   1.0000      -0.550263       -14.9734
  49   1.0000      -0.548983       -14.9386
  50   1.0000      -0.530058       -14.4236
  51   1.0000      -0.524206       -14.2644
  52   1.0000      -0.520624       -14.1669
  53   1.0000      -0.517124       -14.0716
  54   1.0000      -0.504710       -13.7339
  55   1.0000      -0.503556       -13.7025
  56   1.0000      -0.496280       -13.5045
  57   1.0000      -0.472569       -12.8593
  58   1.0000      -0.426759       -11.6127
  59   1.0000      -0.412739       -11.2312
  60   1.0000      -0.410435       -11.1685
  61   1.0000      -0.397306       -10.8112
  62   1.0000      -0.389632       -10.6024
  63   1.0000      -0.386561       -10.5188
  64   1.0000      -0.384725       -10.4689
  65   1.0000      -0.344727        -9.3805
  66   1.0000      -0.217116        -5.9080
  67   0.0000       0.012186         0.3316
  68   0.0000       0.022281         0.6063
  69   0.0000       0.033340         0.9072
  70   0.0000       0.039636         1.0785
  71   0.0000       0.040416         1.0998

                 SPIN DOWN ORBITALS
  NO   OCC          E(Eh)            E(eV)
   0   1.0000     -19.336361      -526.1691
   1   1.0000     -19.322244      -525.7850
   2   1.0000     -19.318462      -525.6821
   3   1.0000     -19.315539      -525.6025
   4   1.0000     -14.592187      -397.0736
   5   1.0000     -14.576285      -396.6409
   6   1.0000     -14.565235      -396.3402
   7   1.0000     -14.555491      -396.0750
   8   1.0000     -10.516156      -286.1592
   9   1.0000     -10.506321      -285.8915
  10   1.0000     -10.477960      -285.1198
  11   1.0000     -10.459882      -284.6278
  12   1.0000     -10.430199      -283.8201
  13   1.0000     -10.401044      -283.0268
  14   1.0000     -10.391661      -282.7715
  15   1.0000     -10.379110      -282.4299
  16   1.0000     -10.361734      -281.9571
  17   1.0000     -10.360620      -281.9268
  18   1.0000      -1.228415       -33.4269
  19   1.0000      -1.218955       -33.1694
  20   1.0000      -1.189628       -32.3714
  21   1.0000      -1.180788       -32.1309
  22   1.0000      -1.119585       -30.4655
  23   1.0000      -1.116826       -30.3904
  24   1.0000      -1.065200       -28.9856
  25   1.0000      -1.060253       -28.8509
  26   1.0000      -0.956696       -26.0330
  27   1.0000      -0.948375       -25.8066
  28   1.0000      -0.849149       -23.1065
  29   1.0000      -0.843528       -22.9536
  30   1.0000      -0.808564       -22.0022
  31   1.0000      -0.803535       -21.8653
  32   1.0000      -0.789465       -21.4824
  33   1.0000      -0.786341       -21.3974
  34   1.0000      -0.692585       -18.8462
  35   1.0000      -0.690043       -18.7770
  36   1.0000      -0.688286       -18.7292
  37   1.0000      -0.686542       -18.6818
  38   1.0000      -0.637309       -17.3421
  39   1.0000      -0.633203       -17.2303
  40   1.0000      -0.628722       -17.1084
  41   1.0000      -0.594106       -16.1665
  42   1.0000      -0.590720       -16.0743
  43   1.0000      -0.588935       -16.0257
  44   1.0000      -0.567964       -15.4551
  45   1.0000      -0.560841       -15.2613
  46   1.0000      -0.558311       -15.1924
  47   1.0000      -0.549775       -14.9601
  48   1.0000      -0.543155       -14.7800
  49   1.0000      -0.540359       -14.7039
  50   1.0000      -0.521398       -14.1880
  51   1.0000      -0.520349       -14.1594
  52   1.0000      -0.514229       -13.9929
  53   1.0000      -0.504947       -13.7403
  54   1.0000      -0.503939       -13.7129
  55   1.0000      -0.499271       -13.5859
  56   1.0000      -0.471177       -12.8214
  57   1.0000      -0.454400       -12.3649
  58   1.0000      -0.422721       -11.5028
  59   1.0000      -0.411797       -11.2056
  60   1.0000      -0.397472       -10.8158
  61   1.0000      -0.386126       -10.5070
  62   1.0000      -0.384775       -10.4703
  63   1.0000      -0.380633       -10.3575
  64   1.0000      -0.343612        -9.3502
  65   0.0000      -0.104330        -2.8390
  66   0.0000       0.011895         0.3237
  67   0.0000       0.023574         0.6415
  68   0.0000       0.032116         0.8739
  69   0.0000       0.038430         1.0457

----------------------------------------------------------------------------------------------------
          SPIN FLIP ABSORPTION SPECTRUM VIA TRANSITION ELECTRIC DIPOLE MOMENTS
----------------------------------------------------------------------------------------------------
     Transition      Energy     Energy  Wavelength fosc(D2)      D2        DX        DY        DZ
                      (eV)      (cm-1)    (nm)                 (au**2)    (au)      (au)      (au)
----------------------------------------------------------------------------------------------------
  1-3A  ->  2-3A    3.976740   32074.6   311.8   0.001033182   0.01060   0.01188  -0.04349  -0.09259

Dispersion correction             ... done (  0.1 sec)

MULLIKEN ATOMIC CHARGES AND SPIN DENSITIES
------------------------------------------
   0 O :   -0.681727    0.000252
   1 O :   -0.683841    0.036701
   2 O :   -0.647406    0.000013
   3 O :   -0.663783    0.006276
   4 N :   -0.042784   -0.001727
   5 N :    0.036764    0.051425
   6 N :    0.053823    0.001868
   7 N :    0.053566    0.006082
   8 C :    0.788219   -0.001360
   9 C :    1.241632    0.606685
  10 C :    0.113632    0.020826
  11 C :   -0.478556   -0.437933
  12 C :   -1.469087    0.010258
  13 C :   -1.351908   -0.038292
  14 C :    0.296180   -0.043449
  15 C :    0.185343   -0.338772
  16 C :    0.350293    0.004592
  17 C :    0.455531    0.022249
  18 H :    0.157967    0.001319
  19 H :    0.220977    0.045072
  20 H :    0.249034    0.003446
  21 H :    0.333827   -0.003008
  22 H :    0.370070   -0.000623
  23 H :    0.354762    0.005413
  24 H :    0.327765    0.010662
  25 H :    0.247050    0.028480
  26 H :    0.055901   -0.000254
  27 H :    0.039519    0.001335
  28 H :    0.045032   -0.000506
  29 H :    0.042205    0.002968
Sum of atomic charges       :   -0.0000000

LOEWDIN ATOMIC CHARGES AND SPIN DENSITIES
-----------------------------------------
   0 O :    0.085533   -0.000029
   1 O :    0.084162    0.029874
   2 O :    0.085174   -0.000043
   3 O :    0.078408    0.005356
   4 N :    0.279037   -0.000646
   5 N :    0.286693    0.022170
   6 N :    0.344060    0.000271
   7 N :    0.344097   -0.000615
   8 C :   -0.144175   -0.000662
   9 C :   -0.130330   -0.033190
  10 C :    0.041292   -0.001370
  11 C :    0.065808   -0.027182
  12 C :    0.174843   -0.000472
  13 C :    0.174838   -0.003527
  14 C :   -0.391923    0.000098
  15 C :   -0.407690    0.009799
  16 C :   -0.484143   -0.000102
  17 C :   -0.490504    0.000093
  18 H :    0.039561   -0.000166
  19 H :    0.026340   -0.001614
  20 H :   -0.022546   -0.000198
  21 H :    0.003205   -0.000024
  22 H :   -0.000422    0.000014
  23 H :    0.007029   -0.000250
  24 H :   -0.004247    0.000286
  25 H :   -0.010861   -0.000170
  26 H :   -0.020000   -0.000047
  27 H :   -0.010581    0.002151
  28 H :    0.000779    0.000092
  29 H :   -0.003436    0.000103

  Mayer bond orders larger than 0.100000
B(  0-O , 14-C ) :   1.4556 B(  1-O , 15-C ) :   1.4363 B(  2-O , 16-C ) :   1.5628
B(  3-O , 17-C ) :   1.5343 B(  4-N , 10-C ) :   0.8368 B(  4-N , 16-C ) :   1.0227
B(  4-N , 26-H ) :   1.1132 B(  5-N , 11-C ) :   0.9628 B(  5-N , 17-C ) :   1.0018
B(  5-N , 27-H ) :   1.1164 B(  6-N , 14-C ) :   1.0249 B(  6-N , 16-C ) :   0.9086
B(  6-N , 28-H ) :   1.1032 B(  7-N , 15-C ) :   0.9133 B(  7-N , 16-C ) :   0.1112
B(  7-N , 17-C ) :   0.9753 B(  7-N , 29-H ) :   1.1142 B(  8-C , 10-C ) :   1.1114
B(  8-C , 12-C ) :   0.3397 B(  8-C , 14-C ) :   0.7553 B(  9-C , 11-C ) :   0.9891
B(  9-C , 13-C ) :   0.3054 B(  9-C , 15-C ) :   0.5744 B(  9-C , 24-H ) :  -0.1146
B( 10-C , 12-C ) :  -0.1604 B( 10-C , 18-H ) :   1.1302 B( 11-C , 13-C ) :  -0.1424
B( 11-C , 15-C ) :   0.1447 B( 11-C , 19-H ) :   1.1010 B( 12-C , 20-H ) :   0.9970
B( 12-C , 21-H ) :   1.0081 B( 12-C , 22-H ) :   0.9086 B( 13-C , 23-H ) :   0.9128
B( 13-C , 24-H ) :   1.0378 B( 13-C , 25-H ) :   0.9436

Dispersion correction           -0.059623402
FINAL SINGLE POINT ENERGY      -908.926048853038

DIPOLE MOMENT
-------------

Method             : TDA/CIS
Type of density    : Electron Density
Level              : Relaxed density
State              :   1
Multiplicity       :   3
Irrep              :   0
Energy             :     0.0000000000000000 Eh
Relativity type    :
Basis              : AO
                                X                 Y                 Z
Electronic contribution:     -2.935921261      -9.652046297      -5.684248355
Nuclear contribution   :      2.491140033      10.420524725       8.382378896
                        -----------------------------------------
Total Dipole Moment    :     -0.444781228       0.768478428       2.698130540
                        -----------------------------------------
Magnitude (a.u.)       :      2.840474934
Magnitude (Debye)      :      7.219913505

Rotational constants in cm-1:             0.016922             0.016148             0.014082
Rotational constants in MHz :           507.300718           484.102251           422.173888

                             ****ORCA TERMINATED NORMALLY****
TOTAL RUN TIME: 0 days 0 hours 4 minutes 54 seconds 329 msec
