                         Program Version 6.0.0  -   RELEASE  -
|  1> ! EnGrad wB97M-D3BJ def2-TZVPPD
|  2> %pal nprocs 8 end%pal nprocs 16 end
|  3> %tddft
|  4>  sf true
|  5>  nroots 2 Iroot 2 end
|  6> *xyz 0 3
|  7> O   0.59704394854385 1.1756264867567 0.3247793439458
|  8> C   0.59938642782318 0.16027772566801 -0.33303299509878
|  9> C   -0.44000053927471 -0.82180164545427 0.18160895655063
| 10> H   0.04848913731495 -1.50185804844674 0.88209121595748
| 11> H   1.28324519664835 -0.04104971694348 -1.16896640832222
| 12> H   -0.89260687631356 -1.43839553324077 -0.59601760210764
| 13> H   -1.19335729474205 -0.25119926833945 0.70953748907474
| 14> *
| 15>
| 16>                          ****END OF INPUT****

CARTESIAN COORDINATES (ANGSTROEM)
---------------------------------
  O      0.597044    1.175626    0.324779
  C      0.599386    0.160278   -0.333033
  C     -0.440001   -0.821802    0.181609
  H      0.048489   -1.501858    0.882091
  H      1.283245   -0.041050   -1.168966
  H     -0.892607   -1.438396   -0.596018
  H     -1.193357   -0.251199    0.709537

 Total Charge           Charge          ....    0
 Multiplicity           Mult            ....    3
 Number of Electrons    NEL             ....   24
 Basis Dimension        Dim             ....  182

ORBITAL ENERGIES
----------------
                 SPIN UP ORBITALS
  NO   OCC          E(Eh)            E(eV)
   0   1.0000     -19.411875      -528.2240
   1   1.0000     -10.383273      -282.5432
   2   1.0000     -10.366903      -282.0978
   3   1.0000      -1.247562       -33.9479
   4   1.0000      -0.874278       -23.7903
   5   1.0000      -0.722826       -19.6691
   6   1.0000      -0.639459       -17.4006
   7   1.0000      -0.584372       -15.9016
   8   1.0000      -0.581300       -15.8180
   9   1.0000      -0.513851       -13.9826
  10   1.0000      -0.508161       -13.8278
  11   1.0000      -0.436270       -11.8715
  12   1.0000      -0.227245        -6.1836
  13   0.0000       0.043127         1.1735
  14   0.0000       0.060503         1.6464
  15   0.0000       0.079058         2.1513
  16   0.0000       0.088371         2.4047
  17   0.0000       0.108820         2.9611

                 SPIN DOWN ORBITALS
  NO   OCC          E(Eh)            E(eV)
   0   1.0000     -19.383988      -527.4651
   1   1.0000     -10.372879      -282.2604
   2   1.0000     -10.364467      -282.0315
   3   1.0000      -1.189207       -32.3600
   4   1.0000      -0.854413       -23.2498
   5   1.0000      -0.679681       -18.4951
   6   1.0000      -0.585569       -15.9341
   7   1.0000      -0.542650       -14.7662
   8   1.0000      -0.532288       -14.4843
   9   1.0000      -0.502057       -13.6617
  10   1.0000      -0.468541       -12.7496
  11   0.0000      -0.079106        -2.1526
  12   0.0000       0.042211         1.1486
  13   0.0000       0.059952         1.6314
  14   0.0000       0.077587         2.1113
  15   0.0000       0.079862         2.1732

----------------------------------------------------------------------------------------------------
          SPIN FLIP ABSORPTION SPECTRUM VIA TRANSITION ELECTRIC DIPOLE MOMENTS
----------------------------------------------------------------------------------------------------
     Transition      Energy     Energy  Wavelength fosc(D2)      D2        DX        DY        DZ
                      (eV)      (cm-1)    (nm)                 (au**2)    (au)      (au)      (au)
----------------------------------------------------------------------------------------------------
  1-3A  ->  2-3A    4.253341   34305.5   291.5   0.000015835   0.00015   0.00486  -0.00494  -0.01020

Dispersion correction             ... done (  0.0 sec)

MULLIKEN ATOMIC CHARGES AND SPIN DENSITIES
------------------------------------------
   0 O :   -0.241751    0.625070
   1 C :    0.197926   -0.656810
   2 C :   -0.707641    0.139414
   3 H :    0.181766   -0.059041
   4 H :    0.123875   -0.016553
   5 H :    0.217322   -0.018426
   6 H :    0.228504   -0.013655
Sum of atomic charges       :   -0.0000000

LOEWDIN ATOMIC CHARGES AND SPIN DENSITIES
-----------------------------------------
   0 O :    0.153621    0.442336
   1 C :   -0.237081   -0.392527
   2 C :    0.139720    0.006121
   3 H :   -0.018649   -0.021495
   4 H :   -0.009904   -0.036567
   5 H :   -0.009526    0.004521
   6 H :   -0.018182   -0.002389

  Mayer bond orders larger than 0.100000
B(  0-O ,  1-C ) :   1.2522 B(  0-O ,  2-C ) :   0.1073 B(  1-C ,  2-C ) :   0.6942
B(  1-C ,  4-H ) :   1.0283 B(  2-C ,  3-H ) :   0.9928 B(  2-C ,  5-H ) :   0.9796
B(  2-C ,  6-H ) :   0.9791

Dispersion correction           -0.005563662
FINAL SINGLE POINT ENERGY      -153.758457718213

DIPOLE MOMENT
-------------

Method             : TDA/CIS
Type of density    : Electron Density
Level              : Relaxed density
State              :   2
Multiplicity       :   3
Irrep              :   0
Energy             :     0.0000000000000000 Eh
Relativity type    :
Basis              : AO
                                X                 Y                 Z
Electronic contribution:      1.484053906       3.159743403       0.337224830
Nuclear contribution   :     -1.614387290      -3.665658119      -0.431731087
                        -----------------------------------------
Total Dipole Moment    :     -0.130333384      -0.505914716      -0.094506257
                        -----------------------------------------
Magnitude (a.u.)       :      0.530912350
Magnitude (Debye)      :      1.349471950

Rotational constants in cm-1:             1.579847             0.379909             0.324495
Rotational constants in MHz :         47362.630754         11389.379860          9728.123531

                             ****ORCA TERMINATED NORMALLY****
TOTAL RUN TIME: 0 days 0 hours 0 minutes 16 seconds 673 msec
