                         Program Version 6.0.0  -   RELEASE  -
|  1> ! Opt wB97M-D3BJ def2-TZVPPD
|  2> %pal nprocs 8 end %pal nprocs 64 end
|  3> %geom
|  4> Constraints
|  5>     {A 2 1 0 69.15254237288136 C }
|  6> end
|  7> MaxIter 200
|  8> end
|  9> *xyz 0 1
| 10> O   0.23978213828800232 0.9327256910016904 0.0
| 11> C   0.7509 -0.4065 0.0
| 12> C   -0.7502 -0.4076 0.0
| 13> H   1.2625 -0.6786 0.9136
| 14> H   1.2625 -0.6787 -0.9136
| 15> H   -1.2614 -0.6806 -0.9136
| 16> H   -1.2614 -0.6805 0.9136
| 17> *
| 18>
| 19>                          ****END OF INPUT****
 Total Charge           Charge          ....    0
 Multiplicity           Mult            ....    1
 Number of Electrons    NEL             ....   24
Dispersion correction           -0.005178340
FINAL SINGLE POINT ENERGY      -153.865193732737
Dispersion correction             ... done (  0.1 sec)
Dispersion correction           -0.005223284
FINAL SINGLE POINT ENERGY      -153.875870091503
Dispersion correction             ... done (  0.1 sec)
Dispersion correction           -0.005246947
FINAL SINGLE POINT ENERGY      -153.877551610725
Dispersion correction             ... done (  0.1 sec)
FINAL SINGLE POINT ENERGY      -153.877733782095
FINAL SINGLE POINT ENERGY      -153.877806139888
Dispersion correction             ... done (  0.1 sec)
Dispersion correction           -0.005237749
FINAL SINGLE POINT ENERGY      -153.877813369574
Dispersion correction             ... done (  0.1 sec)
Dispersion correction           -0.005238526
FINAL SINGLE POINT ENERGY      -153.877815676671
Dispersion correction             ... done (  0.1 sec)
                    ***********************HURRAY********************

CARTESIAN COORDINATES (ANGSTROEM)
---------------------------------
  O      0.158830    0.852886   -0.000101
  C      0.724156   -0.397467    0.000032
  C     -0.697442   -0.483963   -0.000058
  H      1.264017   -0.674840    0.903958
  H      1.264028   -0.674884   -0.903882
  H     -1.235532   -0.611024   -0.925033
  H     -1.235376   -0.610483    0.925085

 Multiplicity           Mult            ....    1
 Number of Electrons    NEL             ....   24
 Basis Dimension        Dim             ....  182

ORBITAL ENERGIES
----------------

  NO   OCC          E(Eh)            E(eV)
   0   2.0000     -19.348872      -526.5096
   1   2.0000     -10.405166      -283.1390
   2   2.0000     -10.396931      -282.9149
   3   2.0000      -1.187261       -32.3070
   4   2.0000      -0.824944       -22.4479
   5   2.0000      -0.746885       -20.3238
   6   2.0000      -0.629583       -17.1318
   7   2.0000      -0.592320       -16.1179
   8   2.0000      -0.497645       -13.5416
   9   2.0000      -0.492524       -13.4023
  10   2.0000      -0.424513       -11.5516
  11   2.0000      -0.380781       -10.3616
  12   0.0000       0.041003         1.1158
  13   0.0000       0.058149         1.5823
  14   0.0000       0.068927         1.8756
  15   0.0000       0.077377         2.1055
  16   0.0000       0.112298         3.0558

MULLIKEN ATOMIC CHARGES
-----------------------
   0 O :   -0.400997
   1 C :   -0.124430
   2 C :   -0.233251
   3 H :    0.192047
   4 H :    0.192039
   5 H :    0.187282
   6 H :    0.187310
Sum of atomic charges:   -0.0000000

LOEWDIN ATOMIC CHARGES
----------------------
   0 O :   -0.029627
   1 C :   -0.153172
   2 C :    0.133393
   3 H :    0.021185
   4 H :    0.021185
   5 H :    0.003522
   6 H :    0.003514

  Mayer bond orders larger than 0.100000
B(  0-O ,  1-C ) :   0.7555 B(  0-O ,  2-C ) :   0.8819 B(  1-C ,  2-C ) :   0.8091
B(  1-C ,  3-H ) :   1.0390 B(  1-C ,  4-H ) :   1.0390 B(  2-C ,  5-H ) :   0.9933
B(  2-C ,  6-H ) :   0.9933

Dispersion correction           -0.005238678
FINAL SINGLE POINT ENERGY      -153.877815815591

DIPOLE MOMENT
-------------

Method             : SCF
Type of density    : Electron Density
Multiplicity       :   1
Irrep              :   0
Energy             :  -153.8725771374589044 Eh
Relativity type    :
Basis              : AO
                                X                 Y                 Z
Electronic contribution:      0.060790666       1.574391869      -0.000221104
Nuclear contribution   :     -0.193733194      -2.439563192       0.000273252
                        -----------------------------------------
Total Dipole Moment    :     -0.132942527      -0.865171323       0.000052149
                        -----------------------------------------
Magnitude (a.u.)       :      0.875325731
Magnitude (Debye)      :      2.224901194

Rotational constants in cm-1:             0.880328             0.694912             0.459797
Rotational constants in MHz :         26391.572457         20832.939639         13784.381222

                             ****ORCA TERMINATED NORMALLY****
TOTAL RUN TIME: 0 days 0 hours 1 minutes 41 seconds 419 msec
