                         Program Version 6.0.0  -   RELEASE  -
|  1> ! Engrad def2-TZVPPD wB97M-D3BJ
|  2> %pal nprocs 8 end%pal nprocs 32 end
|  3> %tddft Nroots 2 Iroot 2
|  4> sf true
|  5> end
|  6> *xyz 0 3
|  7> O   0.69771923 1.44347206 -0.08318823
|  8> C   0.61147669 0.15140824 0.43911488
|  9> C   -0.4143859 -0.8138275 -0.31650929
| 10> H   1.31401157 -0.33064376 1.07151389
| 11> H   0.1602632 -1.60232074 -0.75721235
| 12> H   -0.94765276 -0.22913084 -1.10109489
| 13> H   -1.15832888 -1.25343088 0.36977223
| 14> *
| 15>
| 16>                          ****END OF INPUT****

CARTESIAN COORDINATES (ANGSTROEM)
---------------------------------
  O      0.697719    1.443472   -0.083188
  C      0.611477    0.151408    0.439115
  C     -0.414386   -0.813828   -0.316509
  H      1.314012   -0.330644    1.071514
  H      0.160263   -1.602321   -0.757212
  H     -0.947653   -0.229131   -1.101095
  H     -1.158329   -1.253431    0.369772

 Total Charge           Charge          ....    0
 Multiplicity           Mult            ....    3
 Number of Electrons    NEL             ....   24
 Basis Dimension        Dim             ....  182

ORBITAL ENERGIES
----------------
                 SPIN UP ORBITALS
  NO   OCC          E(Eh)            E(eV)
   0   1.0000     -19.427028      -528.6363
   1   1.0000     -10.407668      -283.2070
   2   1.0000     -10.371092      -282.2118
   3   1.0000      -1.173755       -31.9395
   4   1.0000      -0.867690       -23.6110
   5   1.0000      -0.729778       -19.8583
   6   1.0000      -0.607746       -16.5376
   7   1.0000      -0.557656       -15.1746
   8   1.0000      -0.550120       -14.9695
   9   1.0000      -0.509627       -13.8677
  10   1.0000      -0.500273       -13.6131
  11   1.0000      -0.452925       -12.3247
  12   1.0000      -0.273312        -7.4372
  13   0.0000       0.041289         1.1235
  14   0.0000       0.060322         1.6415
  15   0.0000       0.079443         2.1617
  16   0.0000       0.092188         2.5086
  17   0.0000       0.106052         2.8858

                 SPIN DOWN ORBITALS
  NO   OCC          E(Eh)            E(eV)
   0   1.0000     -19.398589      -527.8624
   1   1.0000     -10.395384      -282.8728
   2   1.0000     -10.369845      -282.1778
   3   1.0000      -1.104072       -30.0433
   4   1.0000      -0.850420       -23.1411
   5   1.0000      -0.694618       -18.9015
   6   1.0000      -0.565917       -15.3994
   7   1.0000      -0.528874       -14.3914
   8   1.0000      -0.503814       -13.7095
   9   1.0000      -0.489698       -13.3254
  10   1.0000      -0.446914       -12.1611
  11   0.0000      -0.076580        -2.0839
  12   0.0000       0.039770         1.0822
  13   0.0000       0.050240         1.3671
  14   0.0000       0.061472         1.6727
  15   0.0000       0.080899         2.2014

----------------------------------------------------------------------------------------------------
          SPIN FLIP ABSORPTION SPECTRUM VIA TRANSITION ELECTRIC DIPOLE MOMENTS
----------------------------------------------------------------------------------------------------
     Transition      Energy     Energy  Wavelength fosc(D2)      D2        DX        DY        DZ
                      (eV)      (cm-1)    (nm)                 (au**2)    (au)      (au)      (au)
----------------------------------------------------------------------------------------------------
  1-3A  ->  2-3A    2.986192   24085.3   415.2   0.000122391   0.00167  -0.01640  -0.00756  -0.03670

Dispersion correction             ... done (  0.1 sec)

MULLIKEN ATOMIC CHARGES AND SPIN DENSITIES
------------------------------------------
   0 O :   -0.220229    0.837046
   1 C :    0.181118   -0.721783
   2 C :   -0.730054    0.047524
   3 H :    0.107173   -0.097767
   4 H :    0.217729   -0.026455
   5 H :    0.226859   -0.006601
   6 H :    0.217404   -0.031964
Sum of atomic charges       :    0.0000000

LOEWDIN ATOMIC CHARGES AND SPIN DENSITIES
-----------------------------------------
   0 O :    0.055482    0.656952
   1 C :   -0.051751   -0.552022
   2 C :    0.140409   -0.016235
   3 H :   -0.070746   -0.069904
   4 H :   -0.048576   -0.011355
   5 H :   -0.006521    0.002334
   6 H :   -0.018296   -0.009770

  Mayer bond orders larger than 0.100000
B(  0-O ,  1-C ) :   1.0487 B(  1-C ,  2-C ) :   0.7450 B(  1-C ,  3-H ) :   1.0736
B(  2-C ,  4-H ) :   0.9661 B(  2-C ,  5-H ) :   0.9526 B(  2-C ,  6-H ) :   0.9966

Dispersion correction           -0.005393421
FINAL SINGLE POINT ENERGY      -153.754223356489

DIPOLE MOMENT
-------------

Method             : TDA/CIS
Type of density    : Electron Density
Level              : Relaxed density
State              :   2
Multiplicity       :   3
Irrep              :   0
Energy             :     0.0000000000000000 Eh
Relativity type    :
Basis              : AO
                                X                 Y                 Z
Electronic contribution:      1.614437079       3.512108672       0.288381281
Nuclear contribution   :     -1.684993435      -4.183191469      -0.368637292
                        -----------------------------------------
Total Dipole Moment    :     -0.070556356      -0.671082797      -0.080256011
                        -----------------------------------------
Magnitude (a.u.)       :      0.679537598
Magnitude (Debye)      :      1.727247307

Rotational constants in cm-1:             1.487883             0.309896             0.269739
Rotational constants in MHz :         44605.620358          9290.451991          8086.563235

                             ****ORCA TERMINATED NORMALLY****
TOTAL RUN TIME: 0 days 0 hours 0 minutes 16 seconds 676 msec
