                         Program Version 6.0.0  -   RELEASE  -
|  1> ! Engrad wB97M-D3BJ def2-TZVPPD
|  2> %pal nprocs 8 end%pal nprocs 16 end
|  3> %tddft nroots 2 Iroot 1
|  4>  sf true
|  5> end
|  6> *xyz 0 3
|  7> O   1.20489537024269 0.79487103861438 0.67379039583805
|  8> C   0.93562706706977 -0.36234600198542 0.44875564128362
|  9> C   -0.37642517052727 -0.46106285359039 -0.3175119133624
| 10> H   1.56066145349112 -1.21710540839147 0.74138247225339
| 11> H   -0.19768592050968 -0.06533325631542 -1.31551703942527
| 12> H   -0.78414152929036 -1.46742576894713 -0.41257312054221
| 13> H   -1.09188827649123 0.18384128788444 0.18167356395482
| 14> *
| 15>
| 16>                          ****END OF INPUT****

CARTESIAN COORDINATES (ANGSTROEM)
---------------------------------
  O      1.204895    0.794871    0.673790
  C      0.935627   -0.362346    0.448756
  C     -0.376425   -0.461063   -0.317512
  H      1.560661   -1.217105    0.741382
  H     -0.197686   -0.065333   -1.315517
  H     -0.784142   -1.467426   -0.412573
  H     -1.091888    0.183841    0.181674

 Total Charge           Charge          ....    0
 Multiplicity           Mult            ....    3
 Number of Electrons    NEL             ....   24
 Basis Dimension        Dim             ....  182

ORBITAL ENERGIES
----------------
                 SPIN UP ORBITALS
  NO   OCC          E(Eh)            E(eV)
   0   1.0000     -19.412983      -528.2541
   1   1.0000     -10.385768      -282.6111
   2   1.0000     -10.367146      -282.1044
   3   1.0000      -1.248839       -33.9826
   4   1.0000      -0.873907       -23.7802
   5   1.0000      -0.723871       -19.6975
   6   1.0000      -0.639431       -17.3998
   7   1.0000      -0.587741       -15.9932
   8   1.0000      -0.582114       -15.8401
   9   1.0000      -0.512373       -13.9424
  10   1.0000      -0.506834       -13.7916
  11   1.0000      -0.436996       -11.8913
  12   1.0000      -0.229770        -6.2524
  13   0.0000       0.043178         1.1749
  14   0.0000       0.060754         1.6532
  15   0.0000       0.078272         2.1299
  16   0.0000       0.087834         2.3901
  17   0.0000       0.108480         2.9519

                 SPIN DOWN ORBITALS
  NO   OCC          E(Eh)            E(eV)
   0   1.0000     -19.385471      -527.5055
   1   1.0000     -10.375474      -282.3310
   2   1.0000     -10.364808      -282.0408
   3   1.0000      -1.191173       -32.4135
   4   1.0000      -0.854146       -23.2425
   5   1.0000      -0.680090       -18.5062
   6   1.0000      -0.586294       -15.9539
   7   1.0000      -0.546827       -14.8799
   8   1.0000      -0.533341       -14.5129
   9   1.0000      -0.500061       -13.6073
  10   1.0000      -0.468308       -12.7433
  11   0.0000      -0.081285        -2.2119
  12   0.0000       0.041763         1.1364
  13   0.0000       0.060056         1.6342
  14   0.0000       0.072308         1.9676
  15   0.0000       0.078289         2.1304

----------------------------------------------------------------------------------------------------
          SPIN FLIP ABSORPTION SPECTRUM VIA TRANSITION ELECTRIC DIPOLE MOMENTS
----------------------------------------------------------------------------------------------------
     Transition      Energy     Energy  Wavelength fosc(D2)      D2        DX        DY        DZ
                      (eV)      (cm-1)    (nm)                 (au**2)    (au)      (au)      (au)
----------------------------------------------------------------------------------------------------
  1-3A  ->  2-3A    4.191937   33810.3   295.8   0.000010136   0.00010   0.00573  -0.00610  -0.00536

Dispersion correction             ... done (  0.0 sec)

MULLIKEN ATOMIC CHARGES AND SPIN DENSITIES
------------------------------------------
   0 O :   -0.509827    0.056156
   1 C :    0.173607   -0.171179
   2 C :   -0.649716    0.030748
   3 H :    0.308874    0.079649
   4 H :    0.211410    0.003184
   5 H :    0.240329   -0.001995
   6 H :    0.225323    0.003437
Sum of atomic charges       :   -0.0000000

LOEWDIN ATOMIC CHARGES AND SPIN DENSITIES
-----------------------------------------
   0 O :    0.016629    0.021641
   1 C :   -0.172927   -0.014462
   2 C :    0.167548   -0.000810
   3 H :    0.028154   -0.004926
   4 H :   -0.007962   -0.000675
   5 H :   -0.022163   -0.000320
   6 H :   -0.009280   -0.000447

  Mayer bond orders larger than 0.100000
B(  0-O ,  1-C ) :   1.8139 B(  1-C ,  2-C ) :   0.8106 B(  1-C ,  3-H ) :   0.9063
B(  2-C ,  4-H ) :   0.9570 B(  2-C ,  5-H ) :   1.0003 B(  2-C ,  6-H ) :   0.9571

Dispersion correction           -0.005569272
FINAL SINGLE POINT ENERGY      -153.914328622851

DIPOLE MOMENT
-------------

Method             : TDA/CIS
Type of density    : Electron Density
Level              : Relaxed density
State              :   1
Multiplicity       :   3
Irrep              :   0
Energy             :     0.0000000000000000 Eh
Relativity type    :
Basis              : AO
                                X                 Y                 Z
Electronic contribution:      2.238245928       1.392544902       1.421512358
Nuclear contribution   :     -2.642316902      -2.416205656      -1.732637726
                        -----------------------------------------
Total Dipole Moment    :     -0.404070974      -1.023660754      -0.311125368
                        -----------------------------------------
Magnitude (a.u.)       :      1.143658028
Magnitude (Debye)      :      2.906947689

Rotational constants in cm-1:             1.566527             0.381956             0.325586
Rotational constants in MHz :         46963.288257         11450.739589          9760.811923

                             ****ORCA TERMINATED NORMALLY****
TOTAL RUN TIME: 0 days 0 hours 0 minutes 16 seconds 286 msec
