                         Program Version 6.0.0  -   RELEASE  -
|  1> ! Engrad def2-TZVPPD wB97M-D3BJ
|  2> %pal nprocs 8 end%pal nprocs 64 end
|  3>  %tddft nroots 2 Iroot 2
|  4> sf true
|  5> end
|  6> *xyz 0 3
|  7> O   3.91918690598698 0.31637715608081 0.10962913092024
|  8> O   -1.47124125929149 1.31021146124328 -2.46208682547649
|  9> O   1.04471661594334 -2.95577128721298 -1.14508403808047
| 10> O   -3.59941035081862 -1.28289674393913 0.54444872748769
| 11> N   0.26631548169891 -1.36909107316678 0.27221682197279
| 12> N   -2.00014097942637 0.12987741048412 1.32927630245374
| 13> N   2.47347793798313 -1.33244251306169 -0.46152771753678
| 14> N   -2.29546463668108 -0.18673181747877 -0.96177148500926
| 15> C   1.76849690220985 0.38652042411019 1.06444883640733
| 16> C   -0.81832016918111 1.5348804398228 -0.20032259655565
| 17> C   0.44049676646205 -0.29641199055406 1.22351317985291
| 18> C   -0.6839387544238 0.73066265914901 1.11515359629321
| 19> C   2.09871695902248 1.56029649690754 1.88631724014771
| 20> C   -0.63625634959218 2.99062903236385 -0.17529576836785
| 21> C   2.81151746880806 -0.17808489944166 0.21751488195557
| 22> C   -1.51058922797861 0.9053634372291 -1.31856240268944
| 23> C   1.23505744464702 -1.96020423108884 -0.48444525851489
| 24> C   -2.69608612868146 -0.50625254141424 0.33076064269015
| 25> H   0.39556407986345 -0.7160565671515 2.2466980052585
| 26> H   -0.53700392408353 1.45674708460048 1.91340381226566
| 27> H   3.17623098830421 1.66283746811842 1.97490575568739
| 28> H   1.73220485309504 2.49168210384343 1.42623390424382
| 29> H   1.63649679246429 1.50400051973406 2.87378432077846
| 30> H   -1.36543434414777 3.45793766264417 0.49950876942028
| 31> H   0.34733444388845 3.26197773387959 0.2303102466636
| 32> H   -0.75887602099315 3.41291054106259 -1.16753844834994
| 33> H   -0.56726185079403 -1.92674110587274 0.33731855346118
| 34> H   -2.29720798117706 -0.13672651100234 2.25218228548162
| 35> H   3.172353695071 -1.72849410698873 -1.06863792358391
| 36> H   -2.82833535817799 -0.62200624290008 -1.69775254927721
| 37> *
| 38>
| 39>                          ****END OF INPUT****

CARTESIAN COORDINATES (ANGSTROEM)
---------------------------------
  O      3.919187    0.316377    0.109629
  O     -1.471241    1.310211   -2.462087
  O      1.044717   -2.955771   -1.145084
  O     -3.599410   -1.282897    0.544449
  N      0.266315   -1.369091    0.272217
  N     -2.000141    0.129877    1.329276
  N      2.473478   -1.332443   -0.461528
  N     -2.295465   -0.186732   -0.961771
  C      1.768497    0.386520    1.064449
  C     -0.818320    1.534880   -0.200323
  C      0.440497   -0.296412    1.223513
  C     -0.683939    0.730663    1.115154
  C      2.098717    1.560296    1.886317
  C     -0.636256    2.990629   -0.175296
  C      2.811517   -0.178085    0.217515
  C     -1.510589    0.905363   -1.318562
  C      1.235057   -1.960204   -0.484445
  C     -2.696086   -0.506253    0.330761
  H      0.395564   -0.716057    2.246698
  H     -0.537004    1.456747    1.913404
  H      3.176231    1.662837    1.974906
  H      1.732205    2.491682    1.426234
  H      1.636497    1.504001    2.873784
  H     -1.365434    3.457938    0.499509
  H      0.347334    3.261978    0.230310
  H     -0.758876    3.412911   -1.167538
  H     -0.567262   -1.926741    0.337319
  H     -2.297208   -0.136727    2.252182
  H      3.172354   -1.728494   -1.068638
  H     -2.828335   -0.622006   -1.697753

 Total Charge           Charge          ....    0
 Multiplicity           Mult            ....    3
 Number of Electrons    NEL             ....  132
 Basis Dimension        Dim             ....  882

ORBITAL ENERGIES
----------------
                 SPIN UP ORBITALS
  NO   OCC          E(Eh)            E(eV)
   0   1.0000     -19.337525      -526.2008
   1   1.0000     -19.333395      -526.0884
   2   1.0000     -19.325694      -525.8789
   3   1.0000     -19.316108      -525.6180
   4   1.0000     -14.566976      -396.3876
   5   1.0000     -14.564334      -396.3157
   6   1.0000     -14.562973      -396.2786
   7   1.0000     -14.558779      -396.1645
   8   1.0000     -10.510198      -285.9970
   9   1.0000     -10.504283      -285.8361
  10   1.0000     -10.484119      -285.2874
  11   1.0000     -10.482724      -285.2494
  12   1.0000     -10.449438      -284.3437
  13   1.0000     -10.448002      -284.3046
  14   1.0000     -10.421800      -283.5916
  15   1.0000     -10.421644      -283.5873
  16   1.0000     -10.378449      -282.4120
  17   1.0000     -10.377266      -282.3798
  18   1.0000      -1.224771       -33.3277
  19   1.0000      -1.218786       -33.1648
  20   1.0000      -1.201548       -32.6958
  21   1.0000      -1.196819       -32.5671
  22   1.0000      -1.121759       -30.5246
  23   1.0000      -1.099454       -29.9177
  24   1.0000      -1.069679       -29.1074
  25   1.0000      -1.059673       -28.8352
  26   1.0000      -0.986231       -26.8367
  27   1.0000      -0.958726       -26.0883
  28   1.0000      -0.898481       -24.4489
  29   1.0000      -0.844056       -22.9679
  30   1.0000      -0.831742       -22.6329
  31   1.0000      -0.802738       -21.8436
  32   1.0000      -0.787568       -21.4308
  33   1.0000      -0.785903       -21.3855
  34   1.0000      -0.705419       -19.1954
  35   1.0000      -0.700251       -19.0548
  36   1.0000      -0.692458       -18.8427
  37   1.0000      -0.680356       -18.5134
  38   1.0000      -0.651967       -17.7409
  39   1.0000      -0.641848       -17.4656
  40   1.0000      -0.627686       -17.0802
  41   1.0000      -0.606237       -16.4965
  42   1.0000      -0.598963       -16.2986
  43   1.0000      -0.588997       -16.0274
  44   1.0000      -0.579635       -15.7727
  45   1.0000      -0.577940       -15.7265
  46   1.0000      -0.569847       -15.5063
  47   1.0000      -0.564021       -15.3478
  48   1.0000      -0.560889       -15.2626
  49   1.0000      -0.558695       -15.2029
  50   1.0000      -0.553800       -15.0697
  51   1.0000      -0.548302       -14.9201
  52   1.0000      -0.533692       -14.5225
  53   1.0000      -0.528089       -14.3700
  54   1.0000      -0.516279       -14.0487
  55   1.0000      -0.511118       -13.9082
  56   1.0000      -0.493776       -13.4363
  57   1.0000      -0.424294       -11.5456
  58   1.0000      -0.422920       -11.5082
  59   1.0000      -0.413588       -11.2543
  60   1.0000      -0.405717       -11.0401
  61   1.0000      -0.401012       -10.9121
  62   1.0000      -0.395279       -10.7561
  63   1.0000      -0.390413       -10.6237
  64   1.0000      -0.383783       -10.4433
  65   1.0000      -0.347379        -9.4527
  66   1.0000      -0.337038        -9.1713
  67   0.0000       0.007407         0.2016
  68   0.0000       0.028026         0.7626
  69   0.0000       0.031733         0.8635
  70   0.0000       0.034104         0.9280
  71   0.0000       0.054061         1.4711

                 SPIN DOWN ORBITALS
  NO   OCC          E(Eh)            E(eV)
   0   1.0000     -19.333520      -526.0918
   1   1.0000     -19.329400      -525.9797
   2   1.0000     -19.325462      -525.8726
   3   1.0000     -19.316091      -525.6175
   4   1.0000     -14.566321      -396.3697
   5   1.0000     -14.564071      -396.3085
   6   1.0000     -14.562243      -396.2588
   7   1.0000     -14.558781      -396.1646
   8   1.0000     -10.510211      -285.9974
   9   1.0000     -10.504328      -285.8373
  10   1.0000     -10.485169      -285.3159
  11   1.0000     -10.483733      -285.2769
  12   1.0000     -10.449231      -284.3380
  13   1.0000     -10.448234      -284.3109
  14   1.0000     -10.410355      -283.2802
  15   1.0000     -10.409632      -283.2605
  16   1.0000     -10.379072      -282.4289
  17   1.0000     -10.377856      -282.3958
  18   1.0000      -1.223210       -33.2852
  19   1.0000      -1.216970       -33.1154
  20   1.0000      -1.196695       -32.5637
  21   1.0000      -1.192532       -32.4504
  22   1.0000      -1.119360       -30.4593
  23   1.0000      -1.097424       -29.8624
  24   1.0000      -1.067921       -29.0596
  25   1.0000      -1.058239       -28.7961
  26   1.0000      -0.973903       -26.5012
  27   1.0000      -0.941440       -25.6179
  28   1.0000      -0.893044       -24.3010
  29   1.0000      -0.838599       -22.8194
  30   1.0000      -0.822669       -22.3860
  31   1.0000      -0.798253       -21.7216
  32   1.0000      -0.785933       -21.3863
  33   1.0000      -0.784284       -21.3414
  34   1.0000      -0.701581       -19.0910
  35   1.0000      -0.693020       -18.8580
  36   1.0000      -0.685868       -18.6634
  37   1.0000      -0.672377       -18.2963
  38   1.0000      -0.642542       -17.4844
  39   1.0000      -0.635723       -17.2989
  40   1.0000      -0.624614       -16.9966
  41   1.0000      -0.601309       -16.3624
  42   1.0000      -0.592200       -16.1146
  43   1.0000      -0.583393       -15.8749
  44   1.0000      -0.572885       -15.5890
  45   1.0000      -0.569236       -15.4897
  46   1.0000      -0.564215       -15.3531
  47   1.0000      -0.561624       -15.2826
  48   1.0000      -0.555360       -15.1121
  49   1.0000      -0.549066       -14.9409
  50   1.0000      -0.545161       -14.8346
  51   1.0000      -0.539128       -14.6704
  52   1.0000      -0.527740       -14.3605
  53   1.0000      -0.517826       -14.0908
  54   1.0000      -0.510125       -13.8812
  55   1.0000      -0.504038       -13.7156
  56   1.0000      -0.488095       -13.2817
  57   1.0000      -0.421422       -11.4675
  58   1.0000      -0.418211       -11.3801
  59   1.0000      -0.407034       -11.0759
  60   1.0000      -0.394243       -10.7279
  61   1.0000      -0.391998       -10.6668
  62   1.0000      -0.390790       -10.6339
  63   1.0000      -0.386579       -10.5194
  64   1.0000      -0.378177       -10.2907
  65   0.0000      -0.064562        -1.7568
  66   0.0000      -0.048148        -1.3102
  67   0.0000       0.006925         0.1884
  68   0.0000       0.027738         0.7548
  69   0.0000       0.031313         0.8521

----------------------------------------------------------------------------------------------------
          SPIN FLIP ABSORPTION SPECTRUM VIA TRANSITION ELECTRIC DIPOLE MOMENTS
----------------------------------------------------------------------------------------------------
     Transition      Energy     Energy  Wavelength fosc(D2)      D2        DX        DY        DZ
                      (eV)      (cm-1)    (nm)                 (au**2)    (au)      (au)      (au)
----------------------------------------------------------------------------------------------------
  1-3A  ->  2-3A    0.077135     622.1  16073.7   0.000000492   0.00026  -0.00719  -0.01438   0.00132

Dispersion correction             ... done (  0.1 sec)

MULLIKEN ATOMIC CHARGES AND SPIN DENSITIES
------------------------------------------
   0 O :   -0.658655    0.132041
   1 O :   -0.652082   -0.132847
   2 O :   -0.660917    0.001134
   3 O :   -0.640260   -0.005799
   4 N :   -0.120672   -0.002149
   5 N :   -0.297151   -0.021292
   6 N :   -0.051908    0.031311
   7 N :    0.045291   -0.012723
   8 C :    0.123296    0.371829
   9 C :    1.171856    0.249008
  10 C :    0.256000    0.076182
  11 C :    0.178256   -0.435145
  12 C :   -1.593015    0.040326
  13 C :   -1.432028    0.004413
  14 C :    0.739847    0.103449
  15 C :   -0.318093   -0.485045
  16 C :    0.462687   -0.008879
  17 C :    0.389849    0.023219
  18 H :    0.429462    0.036781
  19 H :    0.591605   -0.000011
  20 H :    0.342678    0.011416
  21 H :    0.225535    0.022129
  22 H :    0.344036    0.004562
  23 H :    0.370562   -0.000852
  24 H :    0.256049    0.033588
  25 H :    0.344598   -0.028485
  26 H :    0.002429   -0.008336
  27 H :    0.076053    0.000146
  28 H :    0.037526   -0.003134
  29 H :    0.037165    0.003164
Sum of atomic charges       :    0.0000000

LOEWDIN ATOMIC CHARGES AND SPIN DENSITIES
-----------------------------------------
   0 O :    0.089659    0.116852
   1 O :    0.092895   -0.123128
   2 O :    0.091296    0.000361
   3 O :    0.087989   -0.005606
   4 N :    0.289966   -0.003154
   5 N :    0.282295   -0.017842
   6 N :    0.326750    0.024596
   7 N :    0.320945   -0.011634
   8 C :   -0.010784    0.458643
   9 C :    0.033476   -0.462085
  10 C :   -0.125980    0.047352
  11 C :   -0.117796   -0.027017
  12 C :    0.184157    0.069892
  13 C :    0.185864   -0.078052
  14 C :   -0.392365    0.073826
  15 C :   -0.417440   -0.077469
  16 C :   -0.471359    0.000154
  17 C :   -0.500051   -0.001401
  18 H :    0.071938    0.020107
  19 H :    0.041664    0.000573
  20 H :    0.000842    0.003414
  21 H :   -0.006235    0.024233
  22 H :    0.007674    0.009271
  23 H :    0.024820   -0.025915
  24 H :   -0.011660   -0.015012
  25 H :    0.003678    0.000200
  26 H :   -0.033641   -0.000416
  27 H :   -0.028956   -0.001775
  28 H :   -0.010550    0.002107
  29 H :   -0.009090   -0.001072

  Mayer bond orders larger than 0.100000
B(  0-O ,  8-C ) :   0.1210 B(  0-O , 14-C ) :   1.2715 B(  1-O , 15-C ) :   1.4065
B(  2-O , 16-C ) :   1.5763 B(  3-O , 17-C ) :   1.5917 B(  4-N , 10-C ) :   0.6627
B(  4-N , 16-C ) :   1.0928 B(  4-N , 26-H ) :   1.1323 B(  5-N ,  9-C ) :   0.1899
B(  5-N , 10-C ) :   0.1476 B(  5-N , 17-C ) :   1.1759 B(  5-N , 27-H ) :   1.0705
B(  6-N , 14-C ) :   1.0164 B(  6-N , 16-C ) :   0.9303 B(  6-N , 28-H ) :   1.1271
B(  7-N , 15-C ) :   1.0137 B(  7-N , 17-C ) :   0.9697 B(  7-N , 29-H ) :   1.0965
B(  8-C , 10-C ) :   0.4773 B(  8-C , 11-C ) :   0.1896 B(  8-C , 12-C ) :   0.2103
B(  8-C , 14-C ) :   0.7297 B(  8-C , 22-H ) :  -0.1444 B(  9-C , 10-C ) :   0.1894
B(  9-C , 11-C ) :   0.1511 B(  9-C , 13-C ) :   0.4086 B(  9-C , 15-C ) :   0.1951
B(  9-C , 25-H ) :  -0.1069 B( 10-C , 11-C ) :   0.5633 B( 10-C , 12-C ) :  -0.2687
B( 10-C , 14-C ) :   0.2147 B( 10-C , 18-H ) :   0.9080 B( 11-C , 13-C ) :  -0.1635
B( 11-C , 17-C ) :  -0.1960 B( 11-C , 19-H ) :   0.7961 B( 12-C , 14-C ) :  -0.2715
B( 12-C , 20-H ) :   1.0089 B( 12-C , 21-H ) :   0.9264 B( 12-C , 22-H ) :   1.0247
B( 13-C , 23-H ) :   0.8455 B( 13-C , 24-H ) :   0.9935 B( 13-C , 25-H ) :   0.9887

Dispersion correction           -0.056864030
FINAL SINGLE POINT ENERGY      -908.801134864585

DIPOLE MOMENT
-------------

Method             : TDA/CIS
Type of density    : Electron Density
Level              : Relaxed density
State              :   2
Multiplicity       :   3
Irrep              :   0
Energy             :     0.0000000000000000 Eh
Relativity type    :
Basis              : AO
                                X                 Y                 Z
Electronic contribution:     -1.898223642     -10.024358056      -6.392536621
Nuclear contribution   :      1.841904165      11.591400723       8.761594943
                        -----------------------------------------
Total Dipole Moment    :     -0.056319477       1.567042667       2.369058322
                        -----------------------------------------
Magnitude (a.u.)       :      2.840991365
Magnitude (Debye)      :      7.221226170

Rotational constants in cm-1:             0.020202             0.011927             0.010155
Rotational constants in MHz :           605.646276           357.568902           304.430853

                             ****ORCA TERMINATED NORMALLY****
TOTAL RUN TIME: 0 days 0 hours 4 minutes 18 seconds 800 msec
