                         Program Version 6.0.0  -   RELEASE  -
|  1> ! Engrad def2-TZVPPD wB97M-D3BJ
|  2> %pal nprocs 8 end%pal nprocs 64 end
|  3> %tddft
|  4>  Iroot 1 Nroots 3
|  5> sf true
|  6> end
|  7> *xyz 0 3
|  8> O   0.57594808 0.81824419 1.0182273
|  9> C   -0.04261213 0.05213883 0.0278231
| 10> C   0.79986791 -0.6990265 -0.93280789
| 11> H   -0.86046345 0.67313423 -0.35911148
| 12> H   -0.50668011 -0.72062451 0.46475248
| 13> H   0.23836989 -0.95758613 -1.82609011
| 14> H   1.48216169 -1.35700697 -0.41201466
| 15> *
| 16>
| 17>                          ****END OF INPUT****

CARTESIAN COORDINATES (ANGSTROEM)
---------------------------------
  O      0.575948    0.818244    1.018227
  C     -0.042612    0.052139    0.027823
  C      0.799868   -0.699026   -0.932808
  H     -0.860463    0.673134   -0.359111
  H     -0.506680   -0.720625    0.464752
  H      0.238370   -0.957586   -1.826090
  H      1.482162   -1.357007   -0.412015

 Total Charge           Charge          ....    0
 Multiplicity           Mult            ....    3
 Number of Electrons    NEL             ....   24
 Basis Dimension        Dim             ....  182

ORBITAL ENERGIES
----------------
                 SPIN UP ORBITALS
  NO   OCC          E(Eh)            E(eV)
   0   1.0000     -19.389633      -527.6187
   1   1.0000     -10.400373      -283.0085
   2   1.0000     -10.372843      -282.2594
   3   1.0000      -1.158859       -31.5342
   4   1.0000      -0.896630       -24.3985
   5   1.0000      -0.737161       -20.0592
   6   1.0000      -0.621197       -16.9036
   7   1.0000      -0.588473       -16.0132
   8   1.0000      -0.545857       -14.8535
   9   1.0000      -0.520960       -14.1760
  10   1.0000      -0.451779       -12.2935
  11   1.0000      -0.411529       -11.1983
  12   1.0000      -0.330305        -8.9881
  13   0.0000       0.038498         1.0476
  14   0.0000       0.062832         1.7098
  15   0.0000       0.077947         2.1211
  16   0.0000       0.086193         2.3454
  17   0.0000       0.111298         3.0286

                 SPIN DOWN ORBITALS
  NO   OCC          E(Eh)            E(eV)
   0   1.0000     -19.365911      -526.9732
   1   1.0000     -10.401128      -283.0291
   2   1.0000     -10.359153      -281.8869
   3   1.0000      -1.104160       -30.0457
   4   1.0000      -0.865849       -23.5609
   5   1.0000      -0.708303       -19.2739
   6   1.0000      -0.592195       -16.1144
   7   1.0000      -0.552365       -15.0306
   8   1.0000      -0.526040       -14.3143
   9   1.0000      -0.493439       -13.4271
  10   1.0000      -0.383663       -10.4400
  11   0.0000      -0.054464        -1.4821
  12   0.0000      -0.000155        -0.0042
  13   0.0000       0.038872         1.0578
  14   0.0000       0.062672         1.7054
  15   0.0000       0.078673         2.1408

----------------------------------------------------------------------------------------------------
          SPIN FLIP ABSORPTION SPECTRUM VIA TRANSITION ELECTRIC DIPOLE MOMENTS
----------------------------------------------------------------------------------------------------
     Transition      Energy     Energy  Wavelength fosc(D2)      D2        DX        DY        DZ
                      (eV)      (cm-1)    (nm)                 (au**2)    (au)      (au)      (au)
----------------------------------------------------------------------------------------------------
  1-3A  ->  2-3A    0.211015    1701.9  5875.6   0.000028047   0.00543   0.01150   0.05757  -0.04449
  1-3A  ->  3-3A    0.736642    5941.4  1683.1   0.010821248   0.59960  -0.04185   0.42359   0.64686

Dispersion correction             ... done (  0.2 sec)

MULLIKEN ATOMIC CHARGES AND SPIN DENSITIES
------------------------------------------
   0 O :   -0.410773    0.557883
   1 C :   -0.012822    0.072511
   2 C :   -0.501600   -0.547081
   3 H :    0.269509    0.012722
   4 H :    0.242054    0.028519
   5 H :    0.234892   -0.041247
   6 H :    0.178741   -0.083306
Sum of atomic charges       :   -0.0000000

LOEWDIN ATOMIC CHARGES AND SPIN DENSITIES
-----------------------------------------
   0 O :   -0.002643    0.507245
   1 C :   -0.229206   -0.013401
   2 C :    0.334259   -0.406247
   3 H :    0.047652    0.009343
   4 H :   -0.045034    0.009184
   5 H :   -0.055487   -0.055211
   6 H :   -0.049541   -0.050912

  Mayer bond orders larger than 0.100000
B(  0-O ,  1-C ) :   0.9308 B(  0-O ,  2-C ) :   0.2176 B(  1-C ,  2-C ) :   0.8254
B(  1-C ,  3-H ) :   0.9227 B(  1-C ,  4-H ) :   0.9028 B(  2-C ,  5-H ) :   1.0469
B(  2-C ,  6-H ) :   1.0671

Dispersion correction           -0.005610440
FINAL SINGLE POINT ENERGY      -153.739481349048

DIPOLE MOMENT
-------------

Method             : TDA/CIS
Type of density    : Electron Density
Level              : Relaxed density
State              :   1
Multiplicity       :   3
Irrep              :   0
Energy             :     0.0000000000000000 Eh
Relativity type    :
Basis              : AO
                                X                 Y                 Z
Electronic contribution:      0.654109814       1.648523100       1.577793894
Nuclear contribution   :     -1.256310819      -2.455413121      -2.265337994
                        -----------------------------------------
Total Dipole Moment    :     -0.602201005      -0.806890021      -0.687544100
                        -----------------------------------------
Magnitude (a.u.)       :      1.219194179
Magnitude (Debye)      :      3.098945325

Rotational constants in cm-1:             1.647830             0.330828             0.294191
Rotational constants in MHz :         49400.689362          9917.975022          8819.621709

                             ****ORCA TERMINATED NORMALLY****
TOTAL RUN TIME: 0 days 0 hours 0 minutes 26 seconds 827 msec
