                         Program Version 6.0.0  -   RELEASE  -
|  1> ! Engrad def2-TZVPPD wB97M-D3BJ
|  2> %pal nprocs 8 end%pal nprocs 64 end
|  3> %tddft
|  4>  Iroot 1 Nroots 3
|  5> sf true
|  6> end
|  7> *xyz 0 3
|  8> O   3.07108079 -0.76378771 -1.99121597
|  9> O   -2.13388902 1.39275947 -1.7775538
| 10> O   -0.98657142 -2.82883192 -1.0741721
| 11> O   -2.90502172 0.93097224 2.70600537
| 12> N   -0.025989 -1.63448641 0.54992021
| 13> N   -0.72667638 0.81763789 2.01927104
| 14> N   0.8847864 -1.51082912 -1.59435222
| 15> N   -2.46360794 0.76941387 0.45526954
| 16> C   2.1729862 -0.60334723 0.15823045
| 17> C   -0.24104319 1.35230622 -0.32421587
| 18> C   0.91929559 -0.53373882 0.99055612
| 19> C   0.27108523 0.8948646 1.04495822
| 20> C   3.36680758 0.0754532 0.68965748
| 21> C   0.72151821 1.81970226 -1.38451658
| 22> C   2.09461059 -0.97652377 -1.24965501
| 23> C   -1.69975457 1.25022265 -0.60060588
| 24> C   -0.07954236 -2.0981072 -0.7306208
| 25> C   -2.06513668 0.83911995 1.80422237
| 26> H   1.37716445 -0.74511649 1.9667591
| 27> H   1.05963587 1.5495316 1.32371757
| 28> H   3.62249734 -0.3602015 1.68498675
| 29> H   4.1450144 0.14973684 -0.02007217
| 30> H   3.28162479 1.19175206 0.79862339
| 31> H   0.64934968 2.89686496 -1.4100964
| 32> H   1.72066563 1.61768185 -1.1079113
| 33> H   0.52794959 1.48900659 -2.41348946
| 34> H   -0.87277224 -1.74202877 1.12413514
| 35> H   -0.47528957 0.74242589 3.00858169
| 36> H   0.72677933 -1.70229409 -2.57439467
| 37> H   -3.4241509 0.78755407 0.3077964
| 38> *
| 39>
| 40>                          ****END OF INPUT****

CARTESIAN COORDINATES (ANGSTROEM)
---------------------------------
  O      3.071081   -0.763788   -1.991216
  O     -2.133889    1.392759   -1.777554
  O     -0.986571   -2.828832   -1.074172
  O     -2.905022    0.930972    2.706005
  N     -0.025989   -1.634486    0.549920
  N     -0.726676    0.817638    2.019271
  N      0.884786   -1.510829   -1.594352
  N     -2.463608    0.769414    0.455270
  C      2.172986   -0.603347    0.158230
  C     -0.241043    1.352306   -0.324216
  C      0.919296   -0.533739    0.990556
  C      0.271085    0.894865    1.044958
  C      3.366808    0.075453    0.689657
  C      0.721518    1.819702   -1.384517
  C      2.094611   -0.976524   -1.249655
  C     -1.699755    1.250223   -0.600606
  C     -0.079542   -2.098107   -0.730621
  C     -2.065137    0.839120    1.804222
  H      1.377164   -0.745116    1.966759
  H      1.059636    1.549532    1.323718
  H      3.622497   -0.360201    1.684987
  H      4.145014    0.149737   -0.020072
  H      3.281625    1.191752    0.798623
  H      0.649350    2.896865   -1.410096
  H      1.720666    1.617682   -1.107911
  H      0.527950    1.489007   -2.413489
  H     -0.872772   -1.742029    1.124135
  H     -0.475290    0.742426    3.008582
  H      0.726779   -1.702294   -2.574395
  H     -3.424151    0.787554    0.307796

 Total Charge           Charge          ....    0
 Multiplicity           Mult            ....    3
 Number of Electrons    NEL             ....  132
 Basis Dimension        Dim             ....  882

ORBITAL ENERGIES
----------------
                 SPIN UP ORBITALS
  NO   OCC          E(Eh)            E(eV)
   0   1.0000     -19.338045      -526.2149
   1   1.0000     -19.337082      -526.1888
   2   1.0000     -19.327911      -525.9392
   3   1.0000     -19.325950      -525.8858
   4   1.0000     -14.575998      -396.6331
   5   1.0000     -14.573660      -396.5695
   6   1.0000     -14.570644      -396.4874
   7   1.0000     -14.563575      -396.2950
   8   1.0000     -10.519084      -286.2388
   9   1.0000     -10.514178      -286.1053
  10   1.0000     -10.491303      -285.4829
  11   1.0000     -10.487384      -285.3762
  12   1.0000     -10.450305      -284.3673
  13   1.0000     -10.446846      -284.2731
  14   1.0000     -10.429454      -283.7999
  15   1.0000     -10.417407      -283.4721
  16   1.0000     -10.378777      -282.4209
  17   1.0000     -10.372321      -282.2452
  18   1.0000      -1.218358       -33.1532
  19   1.0000      -1.215464       -33.0745
  20   1.0000      -1.189491       -32.3677
  21   1.0000      -1.177461       -32.0404
  22   1.0000      -1.124963       -30.6118
  23   1.0000      -1.100772       -29.9535
  24   1.0000      -1.076933       -29.3048
  25   1.0000      -1.057234       -28.7688
  26   1.0000      -0.983835       -26.7715
  27   1.0000      -0.953412       -25.9437
  28   1.0000      -0.893910       -24.3245
  29   1.0000      -0.847237       -23.0545
  30   1.0000      -0.830578       -22.6012
  31   1.0000      -0.806691       -21.9512
  32   1.0000      -0.792885       -21.5755
  33   1.0000      -0.787875       -21.4392
  34   1.0000      -0.704184       -19.1618
  35   1.0000      -0.700526       -19.0623
  36   1.0000      -0.696044       -18.9403
  37   1.0000      -0.684286       -18.6204
  38   1.0000      -0.654999       -17.8234
  39   1.0000      -0.645039       -17.5524
  40   1.0000      -0.626297       -17.0424
  41   1.0000      -0.605591       -16.4790
  42   1.0000      -0.601514       -16.3680
  43   1.0000      -0.584038       -15.8925
  44   1.0000      -0.577763       -15.7217
  45   1.0000      -0.572070       -15.5668
  46   1.0000      -0.566280       -15.4093
  47   1.0000      -0.562632       -15.3100
  48   1.0000      -0.558655       -15.2018
  49   1.0000      -0.557069       -15.1586
  50   1.0000      -0.550876       -14.9901
  51   1.0000      -0.533582       -14.5195
  52   1.0000      -0.530450       -14.4343
  53   1.0000      -0.529311       -14.4033
  54   1.0000      -0.513180       -13.9643
  55   1.0000      -0.507390       -13.8068
  56   1.0000      -0.486595       -13.2409
  57   1.0000      -0.427139       -11.6230
  58   1.0000      -0.421125       -11.4594
  59   1.0000      -0.415243       -11.2993
  60   1.0000      -0.407192       -11.0803
  61   1.0000      -0.403347       -10.9756
  62   1.0000      -0.396827       -10.7982
  63   1.0000      -0.391738       -10.6597
  64   1.0000      -0.387959       -10.5569
  65   1.0000      -0.353430        -9.6173
  66   1.0000      -0.324432        -8.8282
  67   0.0000       0.005469         0.1488
  68   0.0000       0.028309         0.7703
  69   0.0000       0.031666         0.8617
  70   0.0000       0.034342         0.9345
  71   0.0000       0.052181         1.4199

                 SPIN DOWN ORBITALS
  NO   OCC          E(Eh)            E(eV)
   0   1.0000     -19.333710      -526.0970
   1   1.0000     -19.332576      -526.0661
   2   1.0000     -19.327847      -525.9375
   3   1.0000     -19.325866      -525.8836
   4   1.0000     -14.575851      -396.6291
   5   1.0000     -14.572942      -396.5499
   6   1.0000     -14.570057      -396.4714
   7   1.0000     -14.563485      -396.2926
   8   1.0000     -10.519122      -286.2399
   9   1.0000     -10.514207      -286.1061
  10   1.0000     -10.492484      -285.5150
  11   1.0000     -10.488362      -285.4028
  12   1.0000     -10.450037      -284.3600
  13   1.0000     -10.446428      -284.2618
  14   1.0000     -10.417835      -283.4837
  15   1.0000     -10.405977      -283.1610
  16   1.0000     -10.379459      -282.4394
  17   1.0000     -10.372766      -282.2573
  18   1.0000      -1.217406       -33.1273
  19   1.0000      -1.214532       -33.0491
  20   1.0000      -1.184020       -32.2188
  21   1.0000      -1.171748       -31.8849
  22   1.0000      -1.123075       -30.5604
  23   1.0000      -1.098286       -29.8859
  24   1.0000      -1.074618       -29.2419
  25   1.0000      -1.055768       -28.7289
  26   1.0000      -0.971983       -26.4490
  27   1.0000      -0.936473       -25.4827
  28   1.0000      -0.888229       -24.1700
  29   1.0000      -0.842396       -22.9228
  30   1.0000      -0.821793       -22.3621
  31   1.0000      -0.802187       -21.8286
  32   1.0000      -0.791146       -21.5282
  33   1.0000      -0.785999       -21.3881
  34   1.0000      -0.700034       -19.0489
  35   1.0000      -0.693058       -18.8591
  36   1.0000      -0.690348       -18.7853
  37   1.0000      -0.677686       -18.4408
  38   1.0000      -0.646117       -17.5817
  39   1.0000      -0.638490       -17.3742
  40   1.0000      -0.623422       -16.9642
  41   1.0000      -0.599537       -16.3142
  42   1.0000      -0.596337       -16.2272
  43   1.0000      -0.579058       -15.7570
  44   1.0000      -0.571976       -15.5643
  45   1.0000      -0.567009       -15.4291
  46   1.0000      -0.559899       -15.2356
  47   1.0000      -0.555064       -15.1041
  48   1.0000      -0.554061       -15.0768
  49   1.0000      -0.549304       -14.9473
  50   1.0000      -0.539132       -14.6705
  51   1.0000      -0.525829       -14.3085
  52   1.0000      -0.523726       -14.2513
  53   1.0000      -0.519974       -14.1492
  54   1.0000      -0.503214       -13.6931
  55   1.0000      -0.501053       -13.6343
  56   1.0000      -0.481072       -13.0906
  57   1.0000      -0.421258       -11.4630
  58   1.0000      -0.417165       -11.3516
  59   1.0000      -0.405973       -11.0471
  60   1.0000      -0.397173       -10.8076
  61   1.0000      -0.393456       -10.7065
  62   1.0000      -0.391031       -10.6405
  63   1.0000      -0.386494       -10.5170
  64   1.0000      -0.379871       -10.3368
  65   0.0000      -0.066945        -1.8217
  66   0.0000      -0.047079        -1.2811
  67   0.0000       0.004735         0.1288
  68   0.0000       0.027940         0.7603
  69   0.0000       0.031897         0.8680

----------------------------------------------------------------------------------------------------
          SPIN FLIP ABSORPTION SPECTRUM VIA TRANSITION ELECTRIC DIPOLE MOMENTS
----------------------------------------------------------------------------------------------------
     Transition      Energy     Energy  Wavelength fosc(D2)      D2        DX        DY        DZ
                      (eV)      (cm-1)    (nm)                 (au**2)    (au)      (au)      (au)
----------------------------------------------------------------------------------------------------
  1-3A  ->  2-3A    0.123908     999.4  10006.1   0.000047719   0.01572   0.10678  -0.05430  -0.03699
  1-3A  ->  3-3A    2.214317   17859.7   559.9   0.000679611   0.01253   0.07390  -0.03309   0.07727

Dispersion correction             ... done (  0.1 sec)

MULLIKEN ATOMIC CHARGES AND SPIN DENSITIES
------------------------------------------
   0 O :   -0.695231   -0.007825
   1 O :   -0.683907    0.009913
   2 O :   -0.642373   -0.000370
   3 O :   -0.666146   -0.000269
   4 N :   -0.256109   -0.012847
   5 N :   -0.185777    0.000315
   6 N :    0.088655   -0.004442
   7 N :    0.100618    0.000799
   8 C :    0.550754    0.269958
   9 C :    0.534005    0.374710
  10 C :    0.212067   -0.153746
  11 C :    0.134402   -0.200561
  12 C :   -1.515745   -0.026953
  13 C :   -1.453955   -0.014297
  14 C :    0.136145   -0.136269
  15 C :    0.181808   -0.125194
  16 C :    0.462920    0.005548
  17 C :    0.375386    0.008060
  18 H :    0.521896   -0.004533
  19 H :    0.569818   -0.019200
  20 H :    0.394985    0.009081
  21 H :    0.302606   -0.003361
  22 H :    0.284277    0.005818
  23 H :    0.438125    0.012476
  24 H :    0.328696    0.007869
  25 H :    0.225733    0.001398
  26 H :    0.102572   -0.000642
  27 H :    0.088472    0.000708
  28 H :    0.041684    0.001560
  29 H :    0.023617    0.002297
Sum of atomic charges       :    0.0000000

LOEWDIN ATOMIC CHARGES AND SPIN DENSITIES
-----------------------------------------
   0 O :    0.055599   -0.007986
   1 O :    0.045107    0.009305
   2 O :    0.091267   -0.000497
   3 O :    0.064100   -0.000413
   4 N :    0.284312   -0.001157
   5 N :    0.257184   -0.001584
   6 N :    0.337538   -0.003212
   7 N :    0.342285   -0.000958
   8 C :   -0.048657   -0.022107
   9 C :    0.038972    0.043297
  10 C :   -0.071372   -0.004696
  11 C :   -0.123166   -0.000930
  12 C :    0.175931   -0.004525
  13 C :    0.213276    0.004810
  14 C :   -0.423251   -0.008549
  15 C :   -0.349692    0.000370
  16 C :   -0.459391   -0.000409
  17 C :   -0.444240   -0.000535
  18 H :    0.048230   -0.001049
  19 H :    0.028809    0.000019
  20 H :    0.027030   -0.000640
  21 H :   -0.034262    0.000002
  22 H :    0.023975   -0.001061
  23 H :    0.008085    0.002191
  24 H :   -0.044395   -0.000225
  25 H :    0.024903    0.001037
  26 H :   -0.013776   -0.000063
  27 H :    0.008243   -0.000149
  28 H :   -0.005413   -0.000226
  29 H :   -0.057230   -0.000058

  Mayer bond orders larger than 0.100000
B(  0-O , 14-C ) :   1.4439 B(  1-O , 15-C ) :   1.3660 B(  2-O , 16-C ) :   1.5516
B(  3-O , 17-C ) :   1.6034 B(  4-N ,  8-C ) :   0.2011 B(  4-N , 10-C ) :   0.4918
B(  4-N , 16-C ) :   1.0638 B(  4-N , 18-H ) :  -0.1170 B(  4-N , 26-H ) :   1.0102
B(  5-N , 10-C ) :   0.1213 B(  5-N , 11-C ) :   0.3622 B(  5-N , 17-C ) :   1.1544
B(  5-N , 27-H ) :   1.0996 B(  6-N ,  8-C ) :  -0.1670 B(  6-N , 10-C ) :   0.1410
B(  6-N , 14-C ) :   1.1365 B(  6-N , 16-C ) :   0.9180 B(  6-N , 28-H ) :   1.1123
B(  7-N , 15-C ) :   1.0995 B(  7-N , 17-C ) :   0.9859 B(  7-N , 29-H ) :   1.0627
B(  8-C ,  9-C ) :   0.1296 B(  8-C , 10-C ) :   0.6223 B(  8-C , 11-C ) :   0.1502
B(  8-C , 12-C ) :   0.2946 B(  8-C , 14-C ) :   0.7375 B(  8-C , 18-H ) :  -0.1158
B(  8-C , 20-H ) :  -0.1261 B(  9-C , 10-C ) :   0.2235 B(  9-C , 11-C ) :   0.5937
B(  9-C , 13-C ) :   0.3303 B(  9-C , 15-C ) :   0.7019 B(  9-C , 19-H ) :  -0.1705
B(  9-C , 24-H ) :  -0.1656 B( 10-C , 11-C ) :   0.5635 B( 10-C , 14-C ) :  -0.1403
B( 10-C , 16-C ) :  -0.1352 B( 10-C , 18-H ) :   0.7893 B( 10-C , 19-H ) :  -0.1029
B( 11-C , 12-C ) :   0.1184 B( 11-C , 17-C ) :  -0.1905 B( 11-C , 19-H ) :   0.7232
B( 12-C , 20-H ) :   0.9579 B( 12-C , 21-H ) :   1.0217 B( 12-C , 22-H ) :   0.8652
B( 13-C , 23-H ) :   0.7450 B( 13-C , 24-H ) :   1.0268 B( 13-C , 25-H ) :   1.0799

Dispersion correction           -0.058494096
FINAL SINGLE POINT ENERGY      -908.774607906248

DIPOLE MOMENT
-------------

Method             : TDA/CIS
Type of density    : Electron Density
Level              : Relaxed density
State              :   1
Multiplicity       :   3
Irrep              :   0
Energy             :     0.0000000000000000 Eh
Relativity type    :
Basis              : AO
                                X                 Y                 Z
Electronic contribution:     -9.838922815      -5.056214062      -1.153617867
Nuclear contribution   :     11.604429525       6.021314131       2.798394225
                        -----------------------------------------
Total Dipole Moment    :      1.765506710       0.965100069       1.644776358
                        -----------------------------------------
Magnitude (a.u.)       :      2.598792287
Magnitude (Debye)      :      6.605605038

Rotational constants in cm-1:             0.021742             0.011699             0.011183
Rotational constants in MHz :           651.821111           350.733431           335.254781

                             ****ORCA TERMINATED NORMALLY****
TOTAL RUN TIME: 0 days 0 hours 5 minutes 26 seconds 670 msec
