                         Program Version 6.0.0  -   RELEASE  -
|  1> ! Engrad def2-TZVPPD wB97M-D3BJ
|  2> %pal nprocs 8 end%pal nprocs 64 end
|  3> %tddft Nroots 2 Iroot 2
|  4> sf true
|  5> end
|  6> *xyz 0 3
|  7> O   2.60273929 1.159078 -0.54894271
|  8> O   -0.59399202 0.84177914 -2.28166542
|  9> O   0.70402521 -2.86460801 -1.45472998
| 10> O   -2.58099667 -1.6523211 0.96870044
| 11> N   0.58514369 -2.05873514 0.66661138
| 12> N   -1.97352755 0.49369226 1.44372776
| 13> N   1.71284332 -0.88287778 -0.95908437
| 14> N   -1.64164274 -0.35298471 -0.6591375
| 15> C   1.33998617 0.15500154 1.18036695
| 16> C   -0.77573069 1.83718499 -0.15027167
| 17> C   0.73178106 -0.98752471 1.52564745
| 18> C   -1.33509465 1.6548893 1.11495189
| 19> C   1.60805728 1.27492192 2.1329399
| 20> C   -0.07784913 3.08318888 -0.53595243
| 21> C   1.94092435 0.22376215 -0.15352562
| 22> C   -0.96800879 0.79175701 -1.11539204
| 23> C   0.97197794 -2.00178943 -0.65231803
| 24> C   -2.10722392 -0.58690997 0.60663583
| 25> H   0.31350052 -1.14949271 2.51826234
| 26> H   -1.27248152 2.40725716 1.86389464
| 27> H   1.38106953 2.24685464 1.70048934
| 28> H   1.01221313 1.13943887 3.05620635
| 29> H   2.67068161 1.29371142 2.39400869
| 30> H   -0.54999576 3.51442588 -1.42209622
| 31> H   -0.07646733 3.81902651 0.26100502
| 32> H   0.96136232 2.87932209 -0.83503645
| 33> H   -0.02200633 -2.83348152 0.91104583
| 34> H   -2.35062783 0.37616192 2.35929118
| 35> H   2.02177522 -0.79971012 -1.92226226
| 36> H   -1.71083829 -1.12706088 -1.3057741
| 37> *
| 38>
| 39>                          ****END OF INPUT****

CARTESIAN COORDINATES (ANGSTROEM)
---------------------------------
  O      2.602739    1.159078   -0.548943
  O     -0.593992    0.841779   -2.281665
  O      0.704025   -2.864608   -1.454730
  O     -2.580997   -1.652321    0.968700
  N      0.585144   -2.058735    0.666611
  N     -1.973528    0.493692    1.443728
  N      1.712843   -0.882878   -0.959084
  N     -1.641643   -0.352985   -0.659138
  C      1.339986    0.155002    1.180367
  C     -0.775731    1.837185   -0.150272
  C      0.731781   -0.987525    1.525647
  C     -1.335095    1.654889    1.114952
  C      1.608057    1.274922    2.132940
  C     -0.077849    3.083189   -0.535952
  C      1.940924    0.223762   -0.153526
  C     -0.968009    0.791757   -1.115392
  C      0.971978   -2.001789   -0.652318
  C     -2.107224   -0.586910    0.606636
  H      0.313501   -1.149493    2.518262
  H     -1.272482    2.407257    1.863895
  H      1.381070    2.246855    1.700489
  H      1.012213    1.139439    3.056206
  H      2.670682    1.293711    2.394009
  H     -0.549996    3.514426   -1.422096
  H     -0.076467    3.819027    0.261005
  H      0.961362    2.879322   -0.835036
  H     -0.022006   -2.833482    0.911046
  H     -2.350628    0.376162    2.359291
  H      2.021775   -0.799710   -1.922262
  H     -1.710838   -1.127061   -1.305774

 Total Charge           Charge          ....    0
 Multiplicity           Mult            ....    3
 Number of Electrons    NEL             ....  132
 Basis Dimension        Dim             ....  882

ORBITAL ENERGIES
----------------
                 SPIN UP ORBITALS
  NO   OCC          E(Eh)            E(eV)
   0   1.0000     -19.336276      -526.1668
   1   1.0000     -19.323546      -525.8204
   2   1.0000     -19.320698      -525.7429
   3   1.0000     -19.319315      -525.7053
   4   1.0000     -14.593820      -397.1180
   5   1.0000     -14.578071      -396.6895
   6   1.0000     -14.564574      -396.3222
   7   1.0000     -14.557559      -396.1313
   8   1.0000     -10.515620      -286.1446
   9   1.0000     -10.506051      -285.8842
  10   1.0000     -10.476187      -285.0715
  11   1.0000     -10.461897      -284.6827
  12   1.0000     -10.433579      -283.9121
  13   1.0000     -10.412640      -283.3423
  14   1.0000     -10.404908      -283.1319
  15   1.0000     -10.380694      -282.4730
  16   1.0000     -10.365204      -282.0515
  17   1.0000     -10.362801      -281.9862
  18   1.0000      -1.228854       -33.4388
  19   1.0000      -1.220760       -33.2186
  20   1.0000      -1.191386       -32.4193
  21   1.0000      -1.187593       -32.3160
  22   1.0000      -1.128814       -30.7166
  23   1.0000      -1.117373       -30.4053
  24   1.0000      -1.066515       -29.0213
  25   1.0000      -1.064734       -28.9729
  26   1.0000      -0.973964       -26.5029
  27   1.0000      -0.956445       -26.0262
  28   1.0000      -0.857244       -23.3268
  29   1.0000      -0.848492       -23.0886
  30   1.0000      -0.818339       -22.2681
  31   1.0000      -0.807343       -21.9689
  32   1.0000      -0.794132       -21.6094
  33   1.0000      -0.789553       -21.4848
  34   1.0000      -0.701006       -19.0753
  35   1.0000      -0.697916       -18.9912
  36   1.0000      -0.692337       -18.8395
  37   1.0000      -0.688405       -18.7325
  38   1.0000      -0.646711       -17.5979
  39   1.0000      -0.637894       -17.3580
  40   1.0000      -0.634563       -17.2674
  41   1.0000      -0.599398       -16.3105
  42   1.0000      -0.598410       -16.2836
  43   1.0000      -0.593000       -16.1363
  44   1.0000      -0.576875       -15.6976
  45   1.0000      -0.572797       -15.5866
  46   1.0000      -0.560680       -15.2569
  47   1.0000      -0.551936       -15.0189
  48   1.0000      -0.551022       -14.9941
  49   1.0000      -0.547700       -14.9037
  50   1.0000      -0.532874       -14.5002
  51   1.0000      -0.523032       -14.2324
  52   1.0000      -0.521742       -14.1973
  53   1.0000      -0.516957       -14.0671
  54   1.0000      -0.506055       -13.7705
  55   1.0000      -0.503125       -13.6907
  56   1.0000      -0.493454       -13.4276
  57   1.0000      -0.473356       -12.8807
  58   1.0000      -0.424951       -11.5635
  59   1.0000      -0.412551       -11.2261
  60   1.0000      -0.410455       -11.1690
  61   1.0000      -0.396872       -10.7994
  62   1.0000      -0.389863       -10.6087
  63   1.0000      -0.387776       -10.5519
  64   1.0000      -0.381596       -10.3838
  65   1.0000      -0.344726        -9.3805
  66   1.0000      -0.222513        -6.0549
  67   0.0000       0.011672         0.3176
  68   0.0000       0.021209         0.5771
  69   0.0000       0.032892         0.8950
  70   0.0000       0.039068         1.0631
  71   0.0000       0.040981         1.1151

                 SPIN DOWN ORBITALS
  NO   OCC          E(Eh)            E(eV)
   0   1.0000     -19.334482      -526.1180
   1   1.0000     -19.320722      -525.7436
   2   1.0000     -19.319243      -525.7033
   3   1.0000     -19.316937      -525.6406
   4   1.0000     -14.589865      -397.0104
   5   1.0000     -14.577831      -396.6829
   6   1.0000     -14.564589      -396.3226
   7   1.0000     -14.556608      -396.1054
   8   1.0000     -10.515846      -286.1507
   9   1.0000     -10.506061      -285.8844
  10   1.0000     -10.476164      -285.0709
  11   1.0000     -10.461724      -284.6780
  12   1.0000     -10.433129      -283.8999
  13   1.0000     -10.403295      -283.0881
  14   1.0000     -10.394063      -282.8368
  15   1.0000     -10.380794      -282.4758
  16   1.0000     -10.365084      -282.0483
  17   1.0000     -10.363198      -281.9969
  18   1.0000      -1.225115       -33.3371
  19   1.0000      -1.220228       -33.2041
  20   1.0000      -1.191184       -32.4138
  21   1.0000      -1.178170       -32.0596
  22   1.0000      -1.119297       -30.4576
  23   1.0000      -1.116730       -30.3878
  24   1.0000      -1.064750       -28.9733
  25   1.0000      -1.061100       -28.8740
  26   1.0000      -0.959256       -26.1027
  27   1.0000      -0.947441       -25.7812
  28   1.0000      -0.848133       -23.0789
  29   1.0000      -0.844855       -22.9897
  30   1.0000      -0.809391       -22.0247
  31   1.0000      -0.805334       -21.9143
  32   1.0000      -0.789534       -21.4843
  33   1.0000      -0.787348       -21.4248
  34   1.0000      -0.692788       -18.8517
  35   1.0000      -0.692081       -18.8325
  36   1.0000      -0.688400       -18.7323
  37   1.0000      -0.686533       -18.6815
  38   1.0000      -0.637722       -17.3533
  39   1.0000      -0.633945       -17.2505
  40   1.0000      -0.629795       -17.1376
  41   1.0000      -0.594290       -16.1714
  42   1.0000      -0.590135       -16.0584
  43   1.0000      -0.588687       -16.0190
  44   1.0000      -0.566935       -15.4271
  45   1.0000      -0.564102       -15.3500
  46   1.0000      -0.559926       -15.2364
  47   1.0000      -0.549856       -14.9623
  48   1.0000      -0.544999       -14.8302
  49   1.0000      -0.533975       -14.5302
  50   1.0000      -0.524913       -14.2836
  51   1.0000      -0.521783       -14.1984
  52   1.0000      -0.514885       -14.0107
  53   1.0000      -0.503703       -13.7064
  54   1.0000      -0.502774       -13.6812
  55   1.0000      -0.498475       -13.5642
  56   1.0000      -0.471264       -12.8237
  57   1.0000      -0.454313       -12.3625
  58   1.0000      -0.420828       -11.4513
  59   1.0000      -0.412023       -11.2117
  60   1.0000      -0.397435       -10.8147
  61   1.0000      -0.385812       -10.4985
  62   1.0000      -0.383323       -10.4308
  63   1.0000      -0.381436       -10.3794
  64   1.0000      -0.344144        -9.3646
  65   0.0000      -0.103111        -2.8058
  66   0.0000       0.011282         0.3070
  67   0.0000       0.024298         0.6612
  68   0.0000       0.030486         0.8296
  69   0.0000       0.036930         1.0049

----------------------------------------------------------------------------------------------------
          SPIN FLIP ABSORPTION SPECTRUM VIA TRANSITION ELECTRIC DIPOLE MOMENTS
----------------------------------------------------------------------------------------------------
     Transition      Energy     Energy  Wavelength fosc(D2)      D2        DX        DY        DZ
                      (eV)      (cm-1)    (nm)                 (au**2)    (au)      (au)      (au)
----------------------------------------------------------------------------------------------------
  1-3A  ->  2-3A    3.730169   30085.8   332.4   0.000802695   0.00878  -0.01835   0.05252   0.07542

Dispersion correction             ... done (  0.1 sec)

MULLIKEN ATOMIC CHARGES AND SPIN DENSITIES
------------------------------------------
   0 O :   -0.684658   -0.001561
   1 O :   -0.699595    0.010264
   2 O :   -0.649562   -0.000073
   3 O :   -0.659402   -0.000468
   4 N :   -0.047432   -0.000603
   5 N :    0.086268    0.021393
   6 N :    0.044263   -0.002750
   7 N :   -0.004063   -0.007162
   8 C :    0.959777   -0.011369
   9 C :    0.992580    0.034769
  10 C :    0.011092   -0.002118
  11 C :   -0.303661    0.092825
  12 C :   -1.447557   -0.002519
  13 C :   -1.433265   -0.027143
  14 C :    0.182863    0.011702
  15 C :    0.402435   -0.133124
  16 C :    0.392166    0.000904
  17 C :    0.459140   -0.002755
  18 H :    0.184197    0.000559
  19 H :    0.172691   -0.000870
  20 H :    0.232294    0.005028
  21 H :    0.326200   -0.003228
  22 H :    0.377384   -0.002502
  23 H :    0.376170    0.006271
  24 H :    0.332802   -0.000960
  25 H :    0.241856    0.012579
  26 H :    0.075305    0.000358
  27 H :    0.017260    0.001654
  28 H :    0.037293   -0.000470
  29 H :    0.025158    0.001367
Sum of atomic charges       :   -0.0000000

LOEWDIN ATOMIC CHARGES AND SPIN DENSITIES
-----------------------------------------
   0 O :    0.087180   -0.000579
   1 O :    0.074781    0.008260
   2 O :    0.091531    0.000026
   3 O :    0.084086   -0.000785
   4 N :    0.277990   -0.000379
   5 N :    0.297107    0.013284
   6 N :    0.343744   -0.000116
   7 N :    0.322364   -0.004611
   8 C :   -0.150900   -0.000532
   9 C :   -0.095305    0.003786
  10 C :    0.044152   -0.000499
  11 C :    0.024919   -0.006962
  12 C :    0.167612   -0.000650
  13 C :    0.205226    0.001022
  14 C :   -0.405651   -0.000294
  15 C :   -0.425554   -0.005149
  16 C :   -0.488516   -0.000054
  17 C :   -0.484324   -0.002983
  18 H :    0.048619    0.000038
  19 H :   -0.008744   -0.004626
  20 H :   -0.019848   -0.000059
  21 H :    0.008917   -0.000189
  22 H :    0.006617   -0.000183
  23 H :    0.018796    0.000644
  24 H :   -0.003766   -0.000221
  25 H :    0.006298    0.000804
  26 H :   -0.009275   -0.000030
  27 H :   -0.016408    0.001589
  28 H :    0.007690   -0.000040
  29 H :   -0.009335   -0.000511

  Mayer bond orders larger than 0.100000
B(  0-O , 14-C ) :   1.4418 B(  1-O , 15-C ) :   1.1948 B(  2-O , 16-C ) :   1.5575
B(  3-O , 17-C ) :   1.5352 B(  4-N , 10-C ) :   0.8371 B(  4-N , 16-C ) :   1.0198
B(  4-N , 26-H ) :   1.0997 B(  5-N , 11-C ) :   0.9391 B(  5-N , 17-C ) :   0.9889
B(  5-N , 27-H ) :   1.1192 B(  6-N ,  8-C ) :  -0.1063 B(  6-N , 14-C ) :   1.0671
B(  6-N , 16-C ) :   0.9179 B(  6-N , 28-H ) :   1.0933 B(  7-N , 15-C ) :   0.8666
B(  7-N , 17-C ) :   0.9391 B(  7-N , 29-H ) :   1.1297 B(  8-C , 10-C ) :   1.0049
B(  8-C , 12-C ) :   0.4195 B(  8-C , 14-C ) :   0.6322 B(  9-C , 11-C ) :   0.3764
B(  9-C , 13-C ) :   0.3867 B(  9-C , 15-C ) :   0.9251 B(  9-C , 19-H ) :  -0.1341
B(  9-C , 24-H ) :  -0.1298 B( 10-C , 12-C ) :  -0.1717 B( 10-C , 18-H ) :   1.1343
B( 11-C , 13-C ) :  -0.1975 B( 11-C , 19-H ) :   1.1623 B( 12-C , 14-C ) :  -0.1188
B( 12-C , 20-H ) :   1.0241 B( 12-C , 21-H ) :   1.0096 B( 12-C , 22-H ) :   0.8624
B( 13-C , 23-H ) :   0.8246 B( 13-C , 24-H ) :   1.0609 B( 13-C , 25-H ) :   0.9607

Dispersion correction           -0.061375828
FINAL SINGLE POINT ENERGY      -908.780871082265

DIPOLE MOMENT
-------------

Method             : TDA/CIS
Type of density    : Electron Density
Level              : Relaxed density
State              :   2
Multiplicity       :   3
Irrep              :   0
Energy             :     0.0000000000000000 Eh
Relativity type    :
Basis              : AO
                                X                 Y                 Z
Electronic contribution:     -2.560381406     -10.117356845      -5.910596388
Nuclear contribution   :      2.135214135      11.086746413       8.447478495
                        -----------------------------------------
Total Dipole Moment    :     -0.425167271       0.969389569       2.536882107
                        -----------------------------------------
Magnitude (a.u.)       :      2.748864160
Magnitude (Debye)      :      6.987057423

Rotational constants in cm-1:             0.017386             0.016970             0.013596
Rotational constants in MHz :           521.204939           508.736505           407.611745

                             ****ORCA TERMINATED NORMALLY****
TOTAL RUN TIME: 0 days 0 hours 5 minutes 7 seconds 451 msec
