                         Program Version 6.0.0  -   RELEASE  -
|  1> ! Opt wB97M-D3BJ def2-TZVPPD
|  2> %pal nprocs 8 end %pal nprocs 64 end
|  3> %geom
|  4> Constraints
|  5>     {A 2 1 0 111.81818181818181 C }
|  6> end
|  7> MaxIter 500
|  8> end
|  9> *xyz 0 1
| 10> O   -0.0007 0.8141 0.0
| 11> C   0.7509 -0.4065 0.0
| 12> C   -0.7502 -0.4076 0.0
| 13> H   1.2625 -0.6786 0.9136
| 14> H   1.2625 -0.6787 -0.9136
| 15> H   -1.2614 -0.6806 -0.9136
| 16> H   -1.2614 -0.6805 0.9136
| 17> *
| 18>
| 19>                          ****END OF INPUT****
 Total Charge           Charge          ....    0
 Multiplicity           Mult            ....    1
 Number of Electrons    NEL             ....   24
Dispersion correction           -0.005796197
FINAL SINGLE POINT ENERGY      -153.671883616664
Dispersion correction             ... done (  0.1 sec)
Dispersion correction           -0.005681351
FINAL SINGLE POINT ENERGY      -153.734893283801
Dispersion correction             ... done (  0.1 sec)
Dispersion correction           -0.005614367
FINAL SINGLE POINT ENERGY      -153.753087503379
Dispersion correction             ... done (  0.1 sec)
FINAL SINGLE POINT ENERGY      -153.762379080886
FINAL SINGLE POINT ENERGY      -153.765730398351
FINAL SINGLE POINT ENERGY      -153.766555988290
FINAL SINGLE POINT ENERGY      -153.766852803834
FINAL SINGLE POINT ENERGY      -153.767186956380
FINAL SINGLE POINT ENERGY      -153.767428988221
FINAL SINGLE POINT ENERGY      -153.767727535486
FINAL SINGLE POINT ENERGY      -153.923726595736
FINAL SINGLE POINT ENERGY      -153.923819231614
FINAL SINGLE POINT ENERGY      -153.923864418121
FINAL SINGLE POINT ENERGY      -153.923891352355
FINAL SINGLE POINT ENERGY      -153.923897586277
FINAL SINGLE POINT ENERGY      -153.923903596907
FINAL SINGLE POINT ENERGY      -153.923909754496
Dispersion correction             ... done (  0.1 sec)
Dispersion correction           -0.005561975
FINAL SINGLE POINT ENERGY      -153.923913271038
Dispersion correction             ... done (  0.1 sec)
Dispersion correction           -0.005561812
FINAL SINGLE POINT ENERGY      -153.923914216791
Dispersion correction             ... done (  0.1 sec)
                    ***********************HURRAY********************

CARTESIAN COORDINATES (ANGSTROEM)
---------------------------------
  O      0.594144    1.187684    0.319086
  C      0.600393    0.162325   -0.321654
  C     -0.441764   -0.821704    0.178254
  H      0.041728   -1.513794    0.870602
  H      1.295588   -0.050397   -1.145974
  H     -0.891079   -1.425104   -0.611344
  H     -1.196810   -0.257411    0.711030

 Multiplicity           Mult            ....    1
 Number of Electrons    NEL             ....   24
 Basis Dimension        Dim             ....  182

ORBITAL ENERGIES
----------------

  NO   OCC          E(Eh)            E(eV)
   0   2.0000     -19.336319      -526.1680
   1   2.0000     -10.444392      -284.2064
   2   2.0000     -10.351000      -281.6650
   3   2.0000      -1.186073       -32.2747
   4   2.0000      -0.868744       -23.6397
   5   2.0000      -0.711065       -19.3490
   6   2.0000      -0.598201       -16.2779
   7   2.0000      -0.555676       -15.1207
   8   2.0000      -0.544279       -14.8106
   9   2.0000      -0.506657       -13.7868
  10   2.0000      -0.469324       -12.7710
  11   2.0000      -0.365894        -9.9565
  12   0.0000       0.039269         1.0686
  13   0.0000       0.047013         1.2793
  14   0.0000       0.058701         1.5973
  15   0.0000       0.084119         2.2890
  16   0.0000       0.087741         2.3876

MULLIKEN ATOMIC CHARGES
-----------------------
   0 O :   -0.469077
   1 C :    0.233908
   2 C :   -0.673287
   3 H :    0.193675
   4 H :    0.242222
   5 H :    0.239460
   6 H :    0.233100
Sum of atomic charges:   -0.0000000

LOEWDIN ATOMIC CHARGES
----------------------
   0 O :    0.046028
   1 C :   -0.184680
   2 C :    0.161838
   3 H :   -0.011833
   4 H :    0.022275
   5 H :   -0.020521
   6 H :   -0.013108

  Mayer bond orders larger than 0.100000
B(  0-O ,  1-C ) :   1.7780 B(  1-C ,  2-C ) :   0.8034 B(  1-C ,  4-H ) :   0.9767
B(  2-C ,  3-H ) :   0.9773 B(  2-C ,  5-H ) :   1.0031 B(  2-C ,  6-H ) :   0.9599

Dispersion correction           -0.005561817
FINAL SINGLE POINT ENERGY      -153.923914471914

DIPOLE MOMENT
-------------

Method             : SCF
Type of density    : Electron Density
Multiplicity       :   1
Irrep              :   0
Energy             :  -153.9183526544715050 Eh
Relativity type    :
Basis              : AO
                                X                 Y                 Z
Electronic contribution:      1.504652111       2.748976449      -0.003579286
Nuclear contribution   :     -1.606568516      -3.696281385      -0.434253476
                        -----------------------------------------
Total Dipole Moment    :     -0.101916405      -0.947304936      -0.437832762
                        -----------------------------------------
Magnitude (a.u.)       :      1.048556685
Magnitude (Debye)      :      2.665219286

Rotational constants in cm-1:             1.599626             0.376955             0.323148
Rotational constants in MHz :         47955.582306         11300.820604          9687.719974

                             ****ORCA TERMINATED NORMALLY****
TOTAL RUN TIME: 0 days 0 hours 10 minutes 25 seconds 806 msec
