                         Program Version 6.0.0  -   RELEASE  -
|  1> ! opt def2-TZVPPD wB97M-D3BJ
|  2> %pal nprocs 24 end%geom Constraints
|  3> {B 9 8 3.0 C}
|  4> {A 8 9 11 61.42857142857143 C}
|  5>  end
|  6>  end
|  7> *xyz 0 1
|  8> O   2.98579685529314 0.88758230159078 -0.86184571092411
|  9> O   -0.03983205397054 0.68929041702508 -2.10362336723772
| 10> O   0.93431434349854 -3.13274393337945 -0.68767288184107
| 11> O   -3.75829998830163 -0.84727300865116 -0.0472717177755
| 12> N   0.21184538946282 -1.54604804365365 0.7617588924445
| 13> N   -2.13631993928911 0.03188773433438 1.27350571071531
| 14> N   2.02598672506387 -1.14318467211666 -0.64531219127023
| 15> N   -1.91814233924584 0.03137116037665 -1.04498946748291
| 16> C   1.18097737274226 0.71693507080484 0.70173889017321
| 17> C   -0.20686880480777 1.27024627933494 0.21345042231937
| 18> C   0.41441080275909 -0.34173258966541 1.52336266615173
| 19> C   -0.82922175114212 0.58960593673968 1.44434972027296
| 20> C   1.92822011286806 1.69488653817281 1.5963734975385
| 21> C   -0.37809776891576 2.77134929626422 0.04819649358288
| 22> C   2.1403947470937 0.1972384729179 -0.35038567829864
| 23> C   -0.67361678962426 0.6214190571346 -1.0793014500539
| 24> C   1.04142578622994 -2.02697492875068 -0.21027082435993
| 25> C   -2.68467002550422 -0.30396816036989 0.07167054343891
| 26> H   0.80817443950001 -0.54572267081061 2.51895215321335
| 27> H   -0.83785272399001 1.27240685039143 2.28901317073582
| 28> H   2.31167340578204 2.52284411740894 1.00913016264629
| 29> H   1.28982602448342 2.08257620823614 2.38710022492991
| 30> H   2.77390820759972 1.19140411795486 2.06045858523949
| 31> H   -1.41857211141493 3.00964947214868 -0.16882755561625
| 32> H   -0.09065531563179 3.29799318042223 0.95389844358819
| 33> H   0.23426221611057 3.12492645074476 -0.77764887675592
| 34> H   -0.46772570547622 -2.21560145172536 1.0787081584806
| 35> H   -2.71769301149571 -0.17090724573546 2.06627440900372
| 36> H   2.60065167263658 -1.49057255715425 -1.3966820077142
| 37> H   -2.27169977231386 -0.32388339999036 -1.91951041514436
| 38> *
| 39>
| 40>                          ****END OF INPUT****
 Total Charge           Charge          ....    0
 Multiplicity           Mult            ....    1
 Number of Electrons    NEL             ....  132
Dispersion correction           -0.052511366
FINAL SINGLE POINT ENERGY      -908.691516968046
Dispersion correction             ... done (  0.1 sec)
Dispersion correction           -0.053465181
FINAL SINGLE POINT ENERGY      -908.721101001423
Dispersion correction             ... done (  0.1 sec)
Dispersion correction           -0.054408025
FINAL SINGLE POINT ENERGY      -908.741997356749
Dispersion correction             ... done (  0.0 sec)
FINAL SINGLE POINT ENERGY      -908.761060521575
FINAL SINGLE POINT ENERGY      -908.770631345249
FINAL SINGLE POINT ENERGY      -908.773964083148
FINAL SINGLE POINT ENERGY      -908.776201637554
FINAL SINGLE POINT ENERGY      -908.777577517201
FINAL SINGLE POINT ENERGY      -908.778556148554
FINAL SINGLE POINT ENERGY      -908.779129771387
FINAL SINGLE POINT ENERGY      -908.781804590743
FINAL SINGLE POINT ENERGY      -908.782054185758
FINAL SINGLE POINT ENERGY      -908.782169873545
FINAL SINGLE POINT ENERGY      -908.782220772930
FINAL SINGLE POINT ENERGY      -908.782239651662
FINAL SINGLE POINT ENERGY      -908.782246503976
FINAL SINGLE POINT ENERGY      -908.782250989443
Dispersion correction             ... done (  0.0 sec)
Dispersion correction           -0.058301711
FINAL SINGLE POINT ENERGY      -908.782253414218
Dispersion correction             ... done (  0.0 sec)
Dispersion correction           -0.058304624
FINAL SINGLE POINT ENERGY      -908.782254386808
Dispersion correction             ... done (  0.0 sec)
                    ***********************HURRAY********************

CARTESIAN COORDINATES (ANGSTROEM)
---------------------------------
  O      3.346558    0.460258   -0.665436
  O     -0.741209    1.331116   -2.436317
  O      0.438642   -2.979094   -0.680609
  O     -3.132585   -1.641205   -0.072711
  N      0.291658   -1.482818    1.019355
  N     -2.092887    0.023356    1.083967
  N      1.689872   -1.086092   -0.792800
  N     -1.597633   -0.350278   -1.158851
  C      1.746028    0.450690    1.060775
  C     -0.770290    1.614858   -0.085025
  C      0.396992   -0.131895    1.524256
  C     -0.866748    0.776099    1.201449
  C      2.426377    1.466545    1.878634
  C     -0.745771    3.083410   -0.039395
  C      2.340508   -0.022745   -0.177420
  C     -1.006870    0.900262   -1.332722
  C      0.768720   -1.924894   -0.187766
  C     -2.335343   -0.736115   -0.039821
  H      0.430630   -0.214839    2.615178
  H     -0.976744    1.468672    2.034090
  H      3.362109    1.763955    1.417363
  H      1.797713    2.354932    2.012247
  H      2.616992    1.079054    2.885044
  H     -1.685003    3.464228    0.380886
  H      0.051255    3.443163    0.617568
  H     -0.617938    3.495083   -1.035684
  H     -0.393744   -2.100417    1.418506
  H     -2.604738   -0.274064    1.896623
  H      2.101695   -1.433171   -1.643195
  H     -1.785646   -0.883052   -1.993587

 Multiplicity           Mult            ....    1
 Number of Electrons    NEL             ....  132
 Basis Dimension        Dim             ....  882

ORBITAL ENERGIES
----------------

  NO   OCC          E(Eh)            E(eV)
   0   2.0000     -19.333881      -526.1016
   1   2.0000     -19.327623      -525.9314
   2   2.0000     -19.323208      -525.8112
   3   2.0000     -19.313633      -525.5507
   4   2.0000     -14.566339      -396.3702
   5   2.0000     -14.563455      -396.2917
   6   2.0000     -14.554484      -396.0476
   7   2.0000     -14.553628      -396.0244
   8   2.0000     -10.509446      -285.9766
   9   2.0000     -10.498671      -285.6834
  10   2.0000     -10.484218      -285.2901
  11   2.0000     -10.477174      -285.0984
  12   2.0000     -10.443675      -284.1869
  13   2.0000     -10.442456      -284.1537
  14   2.0000     -10.433638      -283.9137
  15   2.0000     -10.428021      -283.7609
  16   2.0000     -10.380185      -282.4592
  17   2.0000     -10.376543      -282.3601
  18   2.0000      -1.224255       -33.3137
  19   2.0000      -1.211999       -32.9802
  20   2.0000      -1.197818       -32.5943
  21   2.0000      -1.187333       -32.3090
  22   2.0000      -1.118449       -30.4345
  23   2.0000      -1.094351       -29.7788
  24   2.0000      -1.065089       -28.9825
  25   2.0000      -1.052266       -28.6336
  26   2.0000      -0.971353       -26.4319
  27   2.0000      -0.948549       -25.8113
  28   2.0000      -0.887411       -24.1477
  29   2.0000      -0.837938       -22.8015
  30   2.0000      -0.826204       -22.4822
  31   2.0000      -0.800448       -21.7813
  32   2.0000      -0.785143       -21.3648
  33   2.0000      -0.775379       -21.0991
  34   2.0000      -0.698033       -18.9944
  35   2.0000      -0.690206       -18.7815
  36   2.0000      -0.682554       -18.5732
  37   2.0000      -0.660846       -17.9825
  38   2.0000      -0.650829       -17.7099
  39   2.0000      -0.642383       -17.4801
  40   2.0000      -0.617994       -16.8165
  41   2.0000      -0.600353       -16.3364
  42   2.0000      -0.585916       -15.9436
  43   2.0000      -0.580680       -15.8011
  44   2.0000      -0.573980       -15.6188
  45   2.0000      -0.568827       -15.4786
  46   2.0000      -0.565426       -15.3860
  47   2.0000      -0.557625       -15.1737
  48   2.0000      -0.554801       -15.0969
  49   2.0000      -0.549188       -14.9442
  50   2.0000      -0.546701       -14.8765
  51   2.0000      -0.542708       -14.7678
  52   2.0000      -0.529444       -14.4069
  53   2.0000      -0.519005       -14.1228
  54   2.0000      -0.510855       -13.9011
  55   2.0000      -0.506153       -13.7731
  56   2.0000      -0.486823       -13.2471
  57   2.0000      -0.422532       -11.4977
  58   2.0000      -0.414349       -11.2750
  59   2.0000      -0.407256       -11.0820
  60   2.0000      -0.397563       -10.8182
  61   2.0000      -0.391825       -10.6621
  62   2.0000      -0.390104       -10.6153
  63   2.0000      -0.383867       -10.4456
  64   2.0000      -0.376463       -10.2441
  65   2.0000      -0.285416        -7.7666
  66   0.0000      -0.111767        -3.0413
  67   0.0000       0.005236         0.1425
  68   0.0000       0.027602         0.7511
  69   0.0000       0.031808         0.8655
  70   0.0000       0.038592         1.0501

MULLIKEN ATOMIC CHARGES
-----------------------
   0 O :   -0.677644
   1 O :   -0.660592
   2 O :   -0.658625
   3 O :   -0.626031
   4 N :   -0.293298
   5 N :   -0.343325
   6 N :    0.068954
   7 N :    0.064732
   8 C :    0.125607
   9 C :    0.329702
  10 C :    0.073444
  11 C :    0.739479
  12 C :   -1.282326
  13 C :   -1.439553
  14 C :    0.448778
  15 C :    0.193428
  16 C :    0.419492
  17 C :    0.323805
  18 H :    0.676926
  19 H :    0.471826
  20 H :    0.295174
  21 H :    0.263685
  22 H :    0.330490
  23 H :    0.349018
  24 H :    0.228757
  25 H :    0.362109
  26 H :    0.064323
  27 H :    0.091081
  28 H :    0.028923
  29 H :    0.031661
Sum of atomic charges:   -0.0000000

LOEWDIN ATOMIC CHARGES
----------------------
   0 O :    0.088576
   1 O :    0.105516
   2 O :    0.090891
   3 O :    0.104874
   4 N :    0.272678
   5 N :    0.275969
   6 N :    0.324272
   7 N :    0.329485
   8 C :    0.011463
   9 C :    0.011676
  10 C :   -0.107275
  11 C :   -0.110862
  12 C :    0.183492
  13 C :    0.185701
  14 C :   -0.410237
  15 C :   -0.406913
  16 C :   -0.497809
  17 C :   -0.486507
  18 H :    0.041081
  19 H :    0.045835
  20 H :   -0.003435
  21 H :   -0.001343
  22 H :    0.011364
  23 H :    0.017877
  24 H :   -0.003940
  25 H :    0.001882
  26 H :   -0.029999
  27 H :   -0.028431
  28 H :   -0.010830
  29 H :   -0.005052

  Mayer bond orders larger than 0.100000
B(  0-O , 14-C ) :   1.3154 B(  1-O , 15-C ) :   1.4065 B(  2-O , 16-C ) :   1.5355
B(  3-O , 17-C ) :   1.5613 B(  4-N ,  8-C ) :   0.2869 B(  4-N , 10-C ) :   0.3065
B(  4-N , 16-C ) :   1.0335 B(  4-N , 26-H ) :   1.0998 B(  5-N ,  9-C ) :   0.3573
B(  5-N , 10-C ) :   0.1132 B(  5-N , 17-C ) :   1.1540 B(  5-N , 27-H ) :   1.0307
B(  6-N ,  8-C ) :  -0.1343 B(  6-N , 10-C ) :   0.1137 B(  6-N , 14-C ) :   1.1039
B(  6-N , 16-C ) :   0.9322 B(  6-N , 28-H ) :   1.0972 B(  7-N , 11-C ) :   0.1269
B(  7-N , 15-C ) :   0.9868 B(  7-N , 17-C ) :   0.9844 B(  7-N , 29-H ) :   1.0803
B(  8-C ,  9-C ) :   0.5435 B(  8-C , 12-C ) :   0.5777 B(  8-C , 14-C ) :   0.7953
B(  8-C , 16-C ) :   0.1236 B(  8-C , 18-H ) :  -0.1946 B(  8-C , 20-H ) :  -0.1165
B(  9-C , 10-C ) :   0.2577 B(  9-C , 11-C ) :  -0.1166 B(  9-C , 13-C ) :   0.4182
B(  9-C , 14-C ) :   0.1482 B(  9-C , 15-C ) :   0.8171 B(  9-C , 25-H ) :  -0.1062
B( 10-C , 11-C ) :   0.6168 B( 10-C , 16-C ) :  -0.1659 B( 10-C , 18-H ) :   0.6685
B( 11-C , 13-C ) :  -0.1503 B( 11-C , 15-C ) :  -0.2498 B( 11-C , 17-C ) :  -0.2107
B( 11-C , 19-H ) :   0.9178 B( 12-C , 20-H ) :   1.0506 B( 12-C , 21-H ) :   0.8909
B( 12-C , 22-H ) :   0.8976 B( 13-C , 23-H ) :   0.8766 B( 13-C , 24-H ) :   1.0325
B( 13-C , 25-H ) :   0.9284

Dispersion correction           -0.058304653
FINAL SINGLE POINT ENERGY      -908.782254751073

DIPOLE MOMENT
-------------

Method             : SCF
Type of density    : Electron Density
Multiplicity       :   1
Irrep              :   0
Energy             :  -908.7239500977826765 Eh
Relativity type    :
Basis              : AO
                                X                 Y                 Z
Electronic contribution:     -2.513946015     -10.062187783      -7.353428101
Nuclear contribution   :      2.124796047      11.703802919      10.036428872
                        -----------------------------------------
Total Dipole Moment    :     -0.389149968       1.641615136       2.683000771
                        -----------------------------------------
Magnitude (a.u.)       :      3.169358151
Magnitude (Debye)      :      8.055868208

Rotational constants in cm-1:             0.019191             0.014697             0.012190
Rotational constants in MHz :           575.317348           440.619022           365.449949

                             ****ORCA TERMINATED NORMALLY****
TOTAL RUN TIME: 0 days 2 hours 5 minutes 14 seconds 164 msec
