                         Program Version 6.0.0  -   RELEASE  -
|  1> ! Engrad def2-TZVPPD wB97M-D3BJ
|  2> %pal nprocs 8 end%pal nprocs 32 end
|  3>  %tddft nroots 2 Iroot 2
|  4> sf true
|  5> end
|  6> *xyz 0 3
|  7> O   3.25192023198798 0.63582386951652 -0.58798252816589
|  8> O   -0.53660703117632 1.1046072043261 -2.4182851941418
|  9> O   0.49649746376537 -2.94607163692126 -0.87969276641324
| 10> O   -3.32185487104226 -1.40596147482627 0.0810485905516
| 11> N   0.25441097437788 -1.56786606435264 0.90412824037084
| 12> N   -2.0660306325477 0.14932588356447 1.17627098115704
| 13> N   1.78708243815737 -1.08187588945558 -0.77492526036281
| 14> N   -1.69014895454726 -0.32694848646729 -1.08062333772613
| 15> C   1.5518995615401 0.48714632630723 1.04404485005354
| 16> C   -0.55305136133428 1.52077027708462 -0.0788100384594
| 17> C   0.37647539686274 -0.27792330656505 1.5366534364194
| 18> C   -0.73034737189402 0.73031399946167 1.23830981848025
| 19> C   2.15802151116015 1.54256017774481 1.88323134926508
| 20> C   -0.54577104833331 2.99803671607441 -0.09075338746694
| 21> C   2.281687851397 0.05104603329412 -0.15063734753909
| 22> C   -0.88238754208675 0.78209825056031 -1.30327615949524
| 23> C   0.8081739604981 -1.93627987268752 -0.29167859236972
| 24> C   -2.42731671960576 -0.59341838209738 0.0757758664379
| 25> H   0.43763762719676 -0.43855715200646 2.6167768181436
| 26> H   -0.7296133824697 1.45717482922147 2.04777352216635
| 27> H   2.81919777973793 2.16393107496694 1.28810616911617
| 28> H   1.40704449306445 2.15999909991779 2.37536380977675
| 29> H   2.7544582084556 1.07839932693606 2.6765291493282
| 30> H   -1.53690610733666 3.38563584419582 0.17158534582025
| 31> H   0.1598898212424 3.39583104707559 0.63866267096206
| 32> H   -0.29147195838626 3.3625501679036 -1.08199585740178
| 33> H   -0.49180533566995 -2.17443961281568 1.19747553175526
| 34> H   -2.56853584408886 -0.10467123915068 2.01005138270927
| 35> H   2.23323712965233 -1.36436862450678 -1.63180616199393
| 36> H   -1.95318628857708 -0.87186838629898 -1.88672090097763
| 37> *
| 38>
| 39>                          ****END OF INPUT****

CARTESIAN COORDINATES (ANGSTROEM)
---------------------------------
  O      3.251920    0.635824   -0.587983
  O     -0.536607    1.104607   -2.418285
  O      0.496497   -2.946072   -0.879693
  O     -3.321855   -1.405961    0.081049
  N      0.254411   -1.567866    0.904128
  N     -2.066031    0.149326    1.176271
  N      1.787082   -1.081876   -0.774925
  N     -1.690149   -0.326948   -1.080623
  C      1.551900    0.487146    1.044045
  C     -0.553051    1.520770   -0.078810
  C      0.376475   -0.277923    1.536653
  C     -0.730347    0.730314    1.238310
  C      2.158022    1.542560    1.883231
  C     -0.545771    2.998037   -0.090753
  C      2.281688    0.051046   -0.150637
  C     -0.882388    0.782098   -1.303276
  C      0.808174   -1.936280   -0.291679
  C     -2.427317   -0.593418    0.075776
  H      0.437638   -0.438557    2.616777
  H     -0.729613    1.457175    2.047774
  H      2.819198    2.163931    1.288106
  H      1.407044    2.159999    2.375364
  H      2.754458    1.078399    2.676529
  H     -1.536906    3.385636    0.171585
  H      0.159890    3.395831    0.638663
  H     -0.291472    3.362550   -1.081996
  H     -0.491805   -2.174440    1.197476
  H     -2.568536   -0.104671    2.010051
  H      2.233237   -1.364369   -1.631806
  H     -1.953186   -0.871868   -1.886721

 Total Charge           Charge          ....    0
 Multiplicity           Mult            ....    3
 Number of Electrons    NEL             ....  132
 Basis Dimension        Dim             ....  882

ORBITAL ENERGIES
----------------
                 SPIN UP ORBITALS
  NO   OCC          E(Eh)            E(eV)
   0   1.0000     -19.332579      -526.0662
   1   1.0000     -19.330766      -526.0169
   2   1.0000     -19.322603      -525.7947
   3   1.0000     -19.315895      -525.6122
   4   1.0000     -14.564207      -396.3122
   5   1.0000     -14.560584      -396.2136
   6   1.0000     -14.560390      -396.2084
   7   1.0000     -14.558382      -396.1537
   8   1.0000     -10.506237      -285.8893
   9   1.0000     -10.502857      -285.7973
  10   1.0000     -10.479834      -285.1708
  11   1.0000     -10.479344      -285.1575
  12   1.0000     -10.444863      -284.2192
  13   1.0000     -10.441436      -284.1259
  14   1.0000     -10.415875      -283.4304
  15   1.0000     -10.414954      -283.4053
  16   1.0000     -10.375672      -282.3364
  17   1.0000     -10.374024      -282.2915
  18   1.0000      -1.222167       -33.2569
  19   1.0000      -1.216585       -33.1050
  20   1.0000      -1.198202       -32.6047
  21   1.0000      -1.195476       -32.5306
  22   1.0000      -1.121203       -30.5095
  23   1.0000      -1.097048       -29.8522
  24   1.0000      -1.065905       -29.0047
  25   1.0000      -1.056594       -28.7514
  26   1.0000      -0.991035       -26.9674
  27   1.0000      -0.949335       -25.8327
  28   1.0000      -0.894422       -24.3385
  29   1.0000      -0.838101       -22.8059
  30   1.0000      -0.829180       -22.5631
  31   1.0000      -0.800295       -21.7771
  32   1.0000      -0.785766       -21.3818
  33   1.0000      -0.782112       -21.2824
  34   1.0000      -0.702507       -19.1162
  35   1.0000      -0.698037       -18.9946
  36   1.0000      -0.692278       -18.8378
  37   1.0000      -0.669473       -18.2173
  38   1.0000      -0.657763       -17.8986
  39   1.0000      -0.642933       -17.4951
  40   1.0000      -0.620520       -16.8852
  41   1.0000      -0.601414       -16.3653
  42   1.0000      -0.590592       -16.0708
  43   1.0000      -0.584908       -15.9162
  44   1.0000      -0.581932       -15.8352
  45   1.0000      -0.575727       -15.6663
  46   1.0000      -0.566907       -15.4263
  47   1.0000      -0.561475       -15.2785
  48   1.0000      -0.557719       -15.1763
  49   1.0000      -0.553708       -15.0671
  50   1.0000      -0.548781       -14.9331
  51   1.0000      -0.545575       -14.8458
  52   1.0000      -0.532977       -14.5030
  53   1.0000      -0.524486       -14.2720
  54   1.0000      -0.513618       -13.9762
  55   1.0000      -0.508064       -13.8251
  56   1.0000      -0.490345       -13.3430
  57   1.0000      -0.420340       -11.4380
  58   1.0000      -0.418895       -11.3987
  59   1.0000      -0.411821       -11.2062
  60   1.0000      -0.402239       -10.9455
  61   1.0000      -0.399676       -10.8757
  62   1.0000      -0.392879       -10.6908
  63   1.0000      -0.389302       -10.5935
  64   1.0000      -0.384092       -10.4517
  65   1.0000      -0.357402        -9.7254
  66   1.0000      -0.310992        -8.4625
  67   0.0000       0.005191         0.1413
  68   0.0000       0.028077         0.7640
  69   0.0000       0.031374         0.8537
  70   0.0000       0.037402         1.0178
  71   0.0000       0.055036         1.4976

                 SPIN DOWN ORBITALS
  NO   OCC          E(Eh)            E(eV)
   0   1.0000     -19.328964      -525.9679
   1   1.0000     -19.326565      -525.9026
   2   1.0000     -19.322307      -525.7867
   3   1.0000     -19.315865      -525.6114
   4   1.0000     -14.563322      -396.2881
   5   1.0000     -14.560092      -396.2003
   6   1.0000     -14.560025      -396.1984
   7   1.0000     -14.558271      -396.1507
   8   1.0000     -10.506243      -285.8894
   9   1.0000     -10.502892      -285.7982
  10   1.0000     -10.480771      -285.1963
  11   1.0000     -10.480218      -285.1812
  12   1.0000     -10.444204      -284.2012
  13   1.0000     -10.441634      -284.1313
  14   1.0000     -10.403466      -283.0927
  15   1.0000     -10.403150      -283.0841
  16   1.0000     -10.376240      -282.3518
  17   1.0000     -10.374600      -282.3072
  18   1.0000      -1.220518       -33.2120
  19   1.0000      -1.214851       -33.0578
  20   1.0000      -1.193725       -32.4829
  21   1.0000      -1.190828       -32.4041
  22   1.0000      -1.118306       -30.4307
  23   1.0000      -1.094910       -29.7940
  24   1.0000      -1.064118       -28.9561
  25   1.0000      -1.055070       -28.7099
  26   1.0000      -0.977574       -26.6012
  27   1.0000      -0.932400       -25.3719
  28   1.0000      -0.888523       -24.1779
  29   1.0000      -0.832861       -22.6633
  30   1.0000      -0.820342       -22.3226
  31   1.0000      -0.795134       -21.6367
  32   1.0000      -0.784197       -21.3391
  33   1.0000      -0.780377       -21.2351
  34   1.0000      -0.697675       -18.9847
  35   1.0000      -0.688697       -18.7404
  36   1.0000      -0.685319       -18.6485
  37   1.0000      -0.660592       -17.9756
  38   1.0000      -0.648957       -17.6590
  39   1.0000      -0.639224       -17.3942
  40   1.0000      -0.616689       -16.7810
  41   1.0000      -0.597350       -16.2547
  42   1.0000      -0.584444       -15.9035
  43   1.0000      -0.578920       -15.7532
  44   1.0000      -0.575566       -15.6619
  45   1.0000      -0.564309       -15.3556
  46   1.0000      -0.562903       -15.3174
  47   1.0000      -0.557328       -15.1657
  48   1.0000      -0.552373       -15.0308
  49   1.0000      -0.543444       -14.7879
  50   1.0000      -0.541495       -14.7348
  51   1.0000      -0.538016       -14.6402
  52   1.0000      -0.525780       -14.3072
  53   1.0000      -0.515731       -14.0338
  54   1.0000      -0.506584       -13.7849
  55   1.0000      -0.501413       -13.6442
  56   1.0000      -0.483956       -13.1691
  57   1.0000      -0.416616       -11.3367
  58   1.0000      -0.415804       -11.3146
  59   1.0000      -0.405813       -11.0427
  60   1.0000      -0.392102       -10.6696
  61   1.0000      -0.388481       -10.5711
  62   1.0000      -0.387772       -10.5518
  63   1.0000      -0.384023       -10.4498
  64   1.0000      -0.376334       -10.2406
  65   0.0000      -0.073157        -1.9907
  66   0.0000      -0.021830        -0.5940
  67   0.0000       0.004792         0.1304
  68   0.0000       0.028162         0.7663
  69   0.0000       0.031261         0.8507

----------------------------------------------------------------------------------------------------
          SPIN FLIP ABSORPTION SPECTRUM VIA TRANSITION ELECTRIC DIPOLE MOMENTS
----------------------------------------------------------------------------------------------------
     Transition      Energy     Energy  Wavelength fosc(D2)      D2        DX        DY        DZ
                      (eV)      (cm-1)    (nm)                 (au**2)    (au)      (au)      (au)
----------------------------------------------------------------------------------------------------
  1-3A  ->  2-3A    0.694921    5604.9  1784.1   0.000082077   0.00482  -0.03075   0.04081  -0.04701

Dispersion correction             ... done (  0.0 sec)

MULLIKEN ATOMIC CHARGES AND SPIN DENSITIES
------------------------------------------
   0 O :   -0.690231    0.009691
   1 O :   -0.668123   -0.011521
   2 O :   -0.663201   -0.000208
   3 O :   -0.641696   -0.000317
   4 N :   -0.249555    0.006670
   5 N :   -0.336716   -0.002546
   6 N :    0.038504    0.000963
   7 N :    0.071793    0.001278
   8 C :    0.614130    0.484951
   9 C :    1.001900    0.323992
  10 C :    0.104884   -0.257872
  11 C :    0.274079   -0.190065
  12 C :   -1.493642    0.063673
  13 C :   -1.497175    0.028646
  14 C :    0.262508   -0.304125
  15 C :   -0.166220   -0.251118
  16 C :    0.478225    0.025324
  17 C :    0.321741    0.016351
  18 H :    0.478167    0.004339
  19 H :    0.495485    0.001530
  20 H :    0.297819   -0.004538
  21 H :    0.336732    0.010910
  22 H :    0.411462    0.013878
  23 H :    0.360256    0.006749
  24 H :    0.288894    0.022115
  25 H :    0.362353   -0.006167
  26 H :    0.045350    0.001257
  27 H :    0.109382    0.001141
  28 H :    0.014718    0.003903
  29 H :    0.038178    0.001118
Sum of atomic charges       :    0.0000000

LOEWDIN ATOMIC CHARGES AND SPIN DENSITIES
-----------------------------------------
   0 O :    0.091295    0.009358
   1 O :    0.099378   -0.012884
   2 O :    0.091192    0.000002
   3 O :    0.091466   -0.000041
   4 N :    0.291540   -0.000695
   5 N :    0.286693   -0.002347
   6 N :    0.336525   -0.001179
   7 N :    0.327292   -0.002133
   8 C :   -0.041926    0.057030
   9 C :   -0.003983   -0.036359
  10 C :   -0.120604    0.001955
  11 C :   -0.116732   -0.003617
  12 C :    0.191523    0.006812
  13 C :    0.198035   -0.007995
  14 C :   -0.400055    0.002523
  15 C :   -0.418873   -0.010154
  16 C :   -0.489935   -0.000239
  17 C :   -0.488015   -0.000175
  18 H :    0.066506    0.000335
  19 H :    0.046635    0.000053
  20 H :    0.002095    0.000194
  21 H :   -0.007730    0.000896
  22 H :    0.019834    0.003149
  23 H :    0.019485   -0.002681
  24 H :   -0.006380   -0.001057
  25 H :    0.004810   -0.000130
  26 H :   -0.027978   -0.000025
  27 H :   -0.029502   -0.000316
  28 H :   -0.006615   -0.000095
  29 H :   -0.005975   -0.000183

  Mayer bond orders larger than 0.100000
B(  0-O , 14-C ) :   1.2161 B(  1-O ,  9-C ) :  -0.1041 B(  1-O , 15-C ) :   1.4362
B(  2-O , 16-C ) :   1.5321 B(  3-O , 17-C ) :   1.5782 B(  4-N ,  8-C ) :   0.2289
B(  4-N , 10-C ) :   0.4174 B(  4-N , 16-C ) :   1.0519 B(  4-N , 26-H ) :   1.0995
B(  5-N ,  9-C ) :   0.2296 B(  5-N , 10-C ) :   0.1553 B(  5-N , 11-C ) :  -0.1232
B(  5-N , 17-C ) :   1.2274 B(  5-N , 27-H ) :   1.0166 B(  6-N , 10-C ) :   0.1043
B(  6-N , 14-C ) :   1.0181 B(  6-N , 16-C ) :   0.9123 B(  6-N , 28-H ) :   1.1204
B(  7-N , 11-C ) :   0.1566 B(  7-N , 15-C ) :   0.9052 B(  7-N , 17-C ) :   0.9893
B(  7-N , 29-H ) :   1.0960 B(  8-C ,  9-C ) :   0.1111 B(  8-C , 10-C ) :   0.5798
B(  8-C , 11-C ) :   0.2067 B(  8-C , 12-C ) :   0.3216 B(  8-C , 14-C ) :   0.6939
B(  8-C , 15-C ) :   0.1019 B(  8-C , 18-H ) :  -0.1719 B(  8-C , 20-H ) :  -0.1322
B(  8-C , 21-H ) :  -0.1114 B(  9-C , 11-C ) :   0.3547 B(  9-C , 13-C ) :   0.3630
B(  9-C , 15-C ) :   0.4226 B(  9-C , 24-H ) :  -0.1144 B( 10-C , 11-C ) :   0.6415
B( 10-C , 12-C ) :  -0.1888 B( 10-C , 16-C ) :  -0.1140 B( 10-C , 18-H ) :   0.8934
B( 11-C , 12-C ) :   0.1033 B( 11-C , 13-C ) :  -0.2146 B( 11-C , 17-C ) :  -0.2212
B( 11-C , 18-H ) :  -0.1075 B( 11-C , 19-H ) :   0.9240 B( 12-C , 20-H ) :   1.0658
B( 12-C , 21-H ) :   0.9641 B( 12-C , 22-H ) :   0.8028 B( 13-C , 23-H ) :   0.8384
B( 13-C , 24-H ) :   1.0344 B( 13-C , 25-H ) :   0.9262 B( 15-C , 17-C ) :  -0.1215

Dispersion correction           -0.060091402
FINAL SINGLE POINT ENERGY      -908.790805419649

DIPOLE MOMENT
-------------

Method             : TDA/CIS
Type of density    : Electron Density
Level              : Relaxed density
State              :   2
Multiplicity       :   3
Irrep              :   0
Energy             :     0.0000000000000000 Eh
Relativity type    :
Basis              : AO
                                X                 Y                 Z
Electronic contribution:     -2.215638590      -9.981045667      -6.998725541
Nuclear contribution   :      2.047655973      11.499051478       9.759467801
                        -----------------------------------------
Total Dipole Moment    :     -0.167982617       1.518005811       2.760742260
                        -----------------------------------------
Magnitude (a.u.)       :      3.155036867
Magnitude (Debye)      :      8.019466397

Rotational constants in cm-1:             0.019805             0.014997             0.012670
Rotational constants in MHz :           593.751903           449.604697           379.849655

                             ****ORCA TERMINATED NORMALLY****
TOTAL RUN TIME: 0 days 0 hours 21 minutes 49 seconds 545 msec
