                         Program Version 6.0.0  -   RELEASE  -
|  1> ! EnGrad wB97M-D3BJ def2-TZVPPD
|  2> %pal nprocs 8 end%pal nprocs 16 end
|  3> %tddft
|  4>  sf true
|  5>  nroots 2 Iroot 2 end
|  6> *xyz 0 3
|  7> O   -0.05924163238638 0.75846556792912 -3.471658508e-05
|  8> C   0.76850995608389 -0.48300439332803 -9.49881394e-06
|  9> C   -0.73872822505863 -0.38872364213842 1.865207576e-05
| 10> H   1.28637876922032 -0.65253606340211 0.93001425883008
| 11> H   1.286398141137 -0.65260305757444 -0.93000831953725
| 12> H   -1.27052801128851 -0.65003803359934 -0.91260930807657
| 13> H   -1.2705889977077 -0.64996037788676 0.912628932107
| 14> *
| 15>
| 16>                          ****END OF INPUT****

CARTESIAN COORDINATES (ANGSTROEM)
---------------------------------
  O     -0.059242    0.758466   -0.000035
  C      0.768510   -0.483004   -0.000009
  C     -0.738728   -0.388724    0.000019
  H      1.286379   -0.652536    0.930014
  H      1.286398   -0.652603   -0.930008
  H     -1.270528   -0.650038   -0.912609
  H     -1.270589   -0.649960    0.912629

 Total Charge           Charge          ....    0
 Multiplicity           Mult            ....    3
 Number of Electrons    NEL             ....   24
 Basis Dimension        Dim             ....  182

ORBITAL ENERGIES
----------------
                 SPIN UP ORBITALS
  NO   OCC          E(Eh)            E(eV)
   0   1.0000     -19.486381      -530.2514
   1   1.0000     -10.431505      -283.8557
   2   1.0000     -10.386895      -282.6418
   3   1.0000      -1.329241       -36.1705
   4   1.0000      -0.852163       -23.1885
   5   1.0000      -0.804286       -21.8857
   6   1.0000      -0.705974       -19.2105
   7   1.0000      -0.663447       -18.0533
   8   1.0000      -0.599112       -16.3027
   9   1.0000      -0.517323       -14.0771
  10   1.0000      -0.506931       -13.7943
  11   1.0000      -0.455207       -12.3868
  12   1.0000      -0.128142        -3.4869
  13   0.0000       0.033634         0.9152
  14   0.0000       0.059313         1.6140
  15   0.0000       0.068550         1.8653
  16   0.0000       0.083362         2.2684
  17   0.0000       0.108289         2.9467

                 SPIN DOWN ORBITALS
  NO   OCC          E(Eh)            E(eV)
   0   1.0000     -19.455455      -529.4099
   1   1.0000     -10.430956      -283.8407
   2   1.0000     -10.380142      -282.4580
   3   1.0000      -1.268793       -34.5256
   4   1.0000      -0.819436       -22.2980
   5   1.0000      -0.783480       -21.3196
   6   1.0000      -0.643359       -17.5067
   7   1.0000      -0.634828       -17.2745
   8   1.0000      -0.559709       -15.2305
   9   1.0000      -0.498835       -13.5740
  10   1.0000      -0.427889       -11.6435
  11   0.0000      -0.134221        -3.6523
  12   0.0000       0.031214         0.8494
  13   0.0000       0.057450         1.5633
  14   0.0000       0.064087         1.7439
  15   0.0000       0.068398         1.8612

----------------------------------------------------------------------------------------------------
          SPIN FLIP ABSORPTION SPECTRUM VIA TRANSITION ELECTRIC DIPOLE MOMENTS
----------------------------------------------------------------------------------------------------
     Transition      Energy     Energy  Wavelength fosc(D2)      D2        DX        DY        DZ
                      (eV)      (cm-1)    (nm)                 (au**2)    (au)      (au)      (au)
----------------------------------------------------------------------------------------------------
  1-3A  ->  2-3A    6.803768   54876.1   182.2   0.005835629   0.03501  -0.00003   0.00003   0.18711

Dispersion correction             ... done (  0.0 sec)

MULLIKEN ATOMIC CHARGES AND SPIN DENSITIES
------------------------------------------
   0 O :    0.869012    1.327831
   1 C :   -2.331962   -1.704582
   2 C :   -1.602657   -1.881278
   3 H :    0.989012    0.701821
   4 H :    0.982113    0.708375
   5 H :    0.540699    0.430135
   6 H :    0.553784    0.417699
Sum of atomic charges       :   -0.0000000

LOEWDIN ATOMIC CHARGES AND SPIN DENSITIES
-----------------------------------------
   0 O :    0.322380    0.601405
   1 C :   -0.097399   -0.236587
   2 C :   -0.206942   -0.181022
   3 H :   -0.024401   -0.071508
   4 H :   -0.024588   -0.071333
   5 H :    0.015532   -0.020547
   6 H :    0.015418   -0.020408

  Mayer bond orders larger than 0.100000
B(  0-O ,  1-C ) :  -2.3824 B(  0-O ,  2-C ) :  -1.3191 B(  0-O ,  3-H ) :   1.1001
B(  0-O ,  4-H ) :   1.0993 B(  0-O ,  5-H ) :   0.5592 B(  0-O ,  6-H ) :   0.5447
B(  1-C ,  2-C ) :   9.4725 B(  1-C ,  3-H ) :  -1.7526 B(  1-C ,  4-H ) :  -1.7150
B(  1-C ,  5-H ) :  -2.0070 B(  1-C ,  6-H ) :  -1.9802 B(  2-C ,  3-H ) :  -2.9768
B(  2-C ,  4-H ) :  -3.0118 B(  3-H ,  4-H ) :   0.7929 B(  3-H ,  5-H ) :   0.6115
B(  3-H ,  6-H ) :   0.7740 B(  4-H ,  5-H ) :   0.7773 B(  4-H ,  6-H ) :   0.6164
B(  5-H ,  6-H ) :   0.1767

Dispersion correction           -0.005198900
FINAL SINGLE POINT ENERGY      -153.620049086076

DIPOLE MOMENT
-------------

Method             : TDA/CIS
Type of density    : Electron Density
Level              : Relaxed density
State              :   2
Multiplicity       :   3
Irrep              :   0
Energy             :     0.0000000000000000 Eh
Relativity type    :
Basis              : AO
                                X                 Y                 Z
Electronic contribution:     -0.379565183       2.348772799       0.000109841
Nuclear contribution   :      0.076563484      -2.350622440       0.000059365
                        -----------------------------------------
Total Dipole Moment    :     -0.303001699      -0.001849642       0.000169206
                        -----------------------------------------
Magnitude (a.u.)       :      0.303007392
Magnitude (Debye)      :      0.770183582

Rotational constants in cm-1:             0.918680             0.693909             0.470909
Rotational constants in MHz :         27541.327574         20802.882969         14117.504682

                             ****ORCA TERMINATED NORMALLY****
TOTAL RUN TIME: 0 days 0 hours 0 minutes 21 seconds 866 msec
