                         Program Version 6.0.0  -   RELEASE  -
|  1> ! Engrad def2-TZVPPD wB97M-D3BJ
|  2> %pal nprocs 8 end%pal nprocs 64 end
|  3> %tddft Nroots 2 Iroot 1
|  4> sf true
|  5> end
|  6> *xyz 0 3
|  7> O   2.30753612 -0.30662332 -1.14833427
|  8> O   -0.13813496 2.78188581 -2.40657163
|  9> O   0.22902517 -3.80745167 0.80279416
| 10> O   -2.09964155 -1.05920502 -1.45460444
| 11> N   0.38594236 -1.91481128 2.02757175
| 12> N   -1.29109372 -0.10363931 0.50803421
| 13> N   1.01198133 -1.91954123 -0.25304022
| 14> N   -0.81413356 0.7370378 -1.60172032
| 15> C   1.198738 0.22284585 0.92065265
| 16> C   -0.54088173 2.55604688 -0.08425117
| 17> C   0.57872981 -0.52352234 2.14105662
| 18> C   -0.21772068 0.43535759 1.23950468
| 19> C   2.22219993 1.27537259 1.2123121
| 20> C   -1.51496403 3.45636409 0.49044841
| 21> C   1.55967769 -0.65057186 -0.25608283
| 22> C   -0.33084225 2.06023411 -1.41134862
| 23> C   0.52402733 -2.64773045 0.88743259
| 24> C   -1.45553744 -0.23364704 -0.83036771
| 25> H   0.82957776 -0.17226368 3.16658635
| 26> H   -0.44135906 1.33308022 1.74635237
| 27> H   2.36065961 1.90704773 0.32871361
| 28> H   1.95884629 1.89912239 2.06072106
| 29> H   3.15076692 0.73270054 1.39993289
| 30> H   -2.51246706 2.97998882 0.50385003
| 31> H   -1.22873022 3.74998288 1.52559661
| 32> H   -1.60849286 4.32554773 -0.20005913
| 33> H   -0.00570864 -2.47670526 2.78566628
| 34> H   -1.88235103 -0.79378005 1.03022285
| 35> H   1.22096011 -2.46299079 -1.07954681
| 36> H   -0.90827823 0.58175139 -2.5595844
| 37> *
| 38>
| 39>                          ****END OF INPUT****

CARTESIAN COORDINATES (ANGSTROEM)
---------------------------------
  O      2.307536   -0.306623   -1.148334
  O     -0.138135    2.781886   -2.406572
  O      0.229025   -3.807452    0.802794
  O     -2.099642   -1.059205   -1.454604
  N      0.385942   -1.914811    2.027572
  N     -1.291094   -0.103639    0.508034
  N      1.011981   -1.919541   -0.253040
  N     -0.814134    0.737038   -1.601720
  C      1.198738    0.222846    0.920653
  C     -0.540882    2.556047   -0.084251
  C      0.578730   -0.523522    2.141057
  C     -0.217721    0.435358    1.239505
  C      2.222200    1.275373    1.212312
  C     -1.514964    3.456364    0.490448
  C      1.559678   -0.650572   -0.256083
  C     -0.330842    2.060234   -1.411349
  C      0.524027   -2.647730    0.887433
  C     -1.455537   -0.233647   -0.830368
  H      0.829578   -0.172264    3.166586
  H     -0.441359    1.333080    1.746352
  H      2.360660    1.907048    0.328714
  H      1.958846    1.899122    2.060721
  H      3.150767    0.732701    1.399933
  H     -2.512467    2.979989    0.503850
  H     -1.228730    3.749983    1.525597
  H     -1.608493    4.325548   -0.200059
  H     -0.005709   -2.476705    2.785666
  H     -1.882351   -0.793780    1.030223
  H      1.220960   -2.462991   -1.079547
  H     -0.908278    0.581751   -2.559584

 Total Charge           Charge          ....    0
 Multiplicity           Mult            ....    3
 Number of Electrons    NEL             ....  132
 Basis Dimension        Dim             ....  882

ORBITAL ENERGIES
----------------
                 SPIN UP ORBITALS
  NO   OCC          E(Eh)            E(eV)
   0   1.0000     -19.339341      -526.2502
   1   1.0000     -19.334960      -526.1310
   2   1.0000     -19.324708      -525.8520
   3   1.0000     -19.318990      -525.6965
   4   1.0000     -14.573097      -396.5541
   5   1.0000     -14.568049      -396.4168
   6   1.0000     -14.565735      -396.3538
   7   1.0000     -14.550698      -395.9446
   8   1.0000     -10.511891      -286.0431
   9   1.0000     -10.506983      -285.9095
  10   1.0000     -10.491431      -285.4863
  11   1.0000     -10.490572      -285.4630
  12   1.0000     -10.444524      -284.2099
  13   1.0000     -10.433336      -283.9055
  14   1.0000     -10.417324      -283.4698
  15   1.0000     -10.404032      -283.1081
  16   1.0000     -10.388410      -282.6830
  17   1.0000     -10.367160      -282.1048
  18   1.0000      -1.224803       -33.3286
  19   1.0000      -1.212018       -32.9807
  20   1.0000      -1.201066       -32.6827
  21   1.0000      -1.186007       -32.2729
  22   1.0000      -1.132212       -30.8090
  23   1.0000      -1.093997       -29.7692
  24   1.0000      -1.062481       -28.9116
  25   1.0000      -1.055741       -28.7282
  26   1.0000      -1.013743       -27.5853
  27   1.0000      -0.942898       -25.6576
  28   1.0000      -0.882729       -24.0203
  29   1.0000      -0.832124       -22.6432
  30   1.0000      -0.816821       -22.2268
  31   1.0000      -0.813883       -22.1469
  32   1.0000      -0.786180       -21.3930
  33   1.0000      -0.772027       -21.0079
  34   1.0000      -0.724978       -19.7276
  35   1.0000      -0.696014       -18.9395
  36   1.0000      -0.682426       -18.5698
  37   1.0000      -0.667910       -18.1747
  38   1.0000      -0.635920       -17.3042
  39   1.0000      -0.627558       -17.0767
  40   1.0000      -0.613588       -16.6966
  41   1.0000      -0.604623       -16.4526
  42   1.0000      -0.597891       -16.2694
  43   1.0000      -0.588448       -16.0125
  44   1.0000      -0.576787       -15.6952
  45   1.0000      -0.573217       -15.5980
  46   1.0000      -0.563837       -15.3428
  47   1.0000      -0.562100       -15.2955
  48   1.0000      -0.555783       -15.1236
  49   1.0000      -0.553551       -15.0629
  50   1.0000      -0.547668       -14.9028
  51   1.0000      -0.543158       -14.7801
  52   1.0000      -0.529612       -14.4115
  53   1.0000      -0.520555       -14.1650
  54   1.0000      -0.512871       -13.9559
  55   1.0000      -0.478864       -13.0306
  56   1.0000      -0.453718       -12.3463
  57   1.0000      -0.433212       -11.7883
  58   1.0000      -0.423139       -11.5142
  59   1.0000      -0.411079       -11.1860
  60   1.0000      -0.398353       -10.8397
  61   1.0000      -0.395401       -10.7594
  62   1.0000      -0.392352       -10.6765
  63   1.0000      -0.386697       -10.5226
  64   1.0000      -0.371559       -10.1106
  65   1.0000      -0.350711        -9.5433
  66   1.0000      -0.319900        -8.7049
  67   0.0000       0.006537         0.1779
  68   0.0000       0.026268         0.7148
  69   0.0000       0.032076         0.8728
  70   0.0000       0.038422         1.0455
  71   0.0000       0.044870         1.2210

                 SPIN DOWN ORBITALS
  NO   OCC          E(Eh)            E(eV)
   0   1.0000     -19.334961      -526.1310
   1   1.0000     -19.334110      -526.1079
   2   1.0000     -19.324664      -525.8508
   3   1.0000     -19.318785      -525.6909
   4   1.0000     -14.572946      -396.5500
   5   1.0000     -14.567976      -396.4148
   6   1.0000     -14.565719      -396.3534
   7   1.0000     -14.550007      -395.9258
   8   1.0000     -10.511888      -286.0430
   9   1.0000     -10.507006      -285.9102
  10   1.0000     -10.492340      -285.5111
  11   1.0000     -10.490588      -285.4634
  12   1.0000     -10.443941      -284.1941
  13   1.0000     -10.432906      -283.8938
  14   1.0000     -10.417134      -283.4646
  15   1.0000     -10.389163      -282.7035
  16   1.0000     -10.377803      -282.3944
  17   1.0000     -10.367060      -282.1021
  18   1.0000      -1.224664       -33.3248
  19   1.0000      -1.210753       -32.9463
  20   1.0000      -1.201024       -32.6815
  21   1.0000      -1.178014       -32.0554
  22   1.0000      -1.131582       -30.7919
  23   1.0000      -1.093203       -29.7476
  24   1.0000      -1.062131       -28.9021
  25   1.0000      -1.052833       -28.6491
  26   1.0000      -1.012806       -27.5598
  27   1.0000      -0.912362       -24.8266
  28   1.0000      -0.882151       -24.0046
  29   1.0000      -0.823873       -22.4187
  30   1.0000      -0.813591       -22.1389
  31   1.0000      -0.808191       -21.9920
  32   1.0000      -0.784337       -21.3429
  33   1.0000      -0.768574       -20.9140
  34   1.0000      -0.722058       -19.6482
  35   1.0000      -0.694169       -18.8893
  36   1.0000      -0.672951       -18.3119
  37   1.0000      -0.665079       -18.0977
  38   1.0000      -0.628284       -17.0965
  39   1.0000      -0.621003       -16.8983
  40   1.0000      -0.609782       -16.5930
  41   1.0000      -0.602587       -16.3972
  42   1.0000      -0.583415       -15.8755
  43   1.0000      -0.581113       -15.8129
  44   1.0000      -0.572978       -15.5915
  45   1.0000      -0.565912       -15.3992
  46   1.0000      -0.560792       -15.2599
  47   1.0000      -0.557032       -15.1576
  48   1.0000      -0.549405       -14.9501
  49   1.0000      -0.548236       -14.9183
  50   1.0000      -0.537450       -14.6248
  51   1.0000      -0.535665       -14.5762
  52   1.0000      -0.528518       -14.3817
  53   1.0000      -0.512680       -13.9507
  54   1.0000      -0.507457       -13.8086
  55   1.0000      -0.476719       -12.9722
  56   1.0000      -0.451220       -12.2783
  57   1.0000      -0.423784       -11.5317
  58   1.0000      -0.421957       -11.4820
  59   1.0000      -0.407443       -11.0871
  60   1.0000      -0.395738       -10.7686
  61   1.0000      -0.390326       -10.6213
  62   1.0000      -0.383029       -10.4228
  63   1.0000      -0.380349       -10.3498
  64   1.0000      -0.359807        -9.7909
  65   0.0000      -0.045511        -1.2384
  66   0.0000       0.006061         0.1649
  67   0.0000       0.008940         0.2433
  68   0.0000       0.026889         0.7317
  69   0.0000       0.033475         0.9109

----------------------------------------------------------------------------------------------------
          SPIN FLIP ABSORPTION SPECTRUM VIA TRANSITION ELECTRIC DIPOLE MOMENTS
----------------------------------------------------------------------------------------------------
     Transition      Energy     Energy  Wavelength fosc(D2)      D2        DX        DY        DZ
                      (eV)      (cm-1)    (nm)                 (au**2)    (au)      (au)      (au)
----------------------------------------------------------------------------------------------------
  1-3A  ->  2-3A    0.872602    7038.0  1420.9   0.000035884   0.00168  -0.02529   0.02740   0.01697

Dispersion correction             ... done (  0.1 sec)

MULLIKEN ATOMIC CHARGES AND SPIN DENSITIES
------------------------------------------
   0 O :   -0.654024   -0.000431
   1 O :   -0.686810   -0.033366
   2 O :   -0.627199    0.000054
   3 O :   -0.690342   -0.000869
   4 N :   -0.117961   -0.000065
   5 N :   -0.139885    0.003389
   6 N :    0.019827   -0.000495
   7 N :    0.068732   -0.014453
   8 C :    2.529837    0.084922
   9 C :    0.371293    0.208212
  10 C :   -0.437136   -0.020674
  11 C :   -1.250308   -0.265438
  12 C :   -1.835144   -0.021902
  13 C :   -0.996170    0.113795
  14 C :   -0.064056    0.027339
  15 C :    0.475711   -0.192933
  16 C :    0.413983    0.000470
  17 C :    0.620061    0.030955
  18 H :    0.229107   -0.001779
  19 H :    0.573958    0.076913
  20 H :    0.304667   -0.018201
  21 H :    0.357544   -0.003654
  22 H :    0.424206   -0.006257
  23 H :    0.266465   -0.007589
  24 H :    0.299350    0.048465
  25 H :    0.333237   -0.014613
  26 H :    0.063898   -0.000491
  27 H :    0.136757   -0.000336
  28 H :    0.047279   -0.000007
  29 H :   -0.036879    0.009037
Sum of atomic charges       :   -0.0000000

LOEWDIN ATOMIC CHARGES AND SPIN DENSITIES
-----------------------------------------
   0 O :    0.111072   -0.000032
   1 O :    0.052627   -0.032415
   2 O :    0.100462    0.000113
   3 O :    0.085314   -0.001144
   4 N :    0.264070    0.000339
   5 N :    0.267864    0.001182
   6 N :    0.341767   -0.000075
   7 N :    0.332496   -0.000129
   8 C :   -0.222100   -0.000393
   9 C :    0.167332    0.053643
  10 C :   -0.008629    0.001009
  11 C :   -0.147215    0.001163
  12 C :    0.193970   -0.004896
  13 C :    0.121080    0.000196
  14 C :   -0.368514   -0.000088
  15 C :   -0.442958   -0.014368
  16 C :   -0.460420    0.000072
  17 C :   -0.488736   -0.000587
  18 H :    0.074321    0.000075
  19 H :   -0.003520    0.000281
  20 H :    0.002806   -0.002386
  21 H :    0.003691   -0.000579
  22 H :    0.012135   -0.000759
  23 H :    0.019879   -0.003049
  24 H :    0.001780    0.001007
  25 H :    0.036532    0.001845
  26 H :   -0.005612    0.000011
  27 H :    0.025751   -0.000025
  28 H :   -0.007366   -0.000007
  29 H :   -0.059878   -0.000004

  Mayer bond orders larger than 0.100000
B(  0-O ,  8-C ) :  -0.1185 B(  0-O , 14-C ) :   1.5268 B(  1-O ,  9-C ) :   0.2316
B(  1-O , 15-C ) :   1.1880 B(  2-O , 16-C ) :   1.5998 B(  3-O , 17-C ) :   1.4780
B(  4-N , 10-C ) :   0.7600 B(  4-N , 11-C ) :  -0.1268 B(  4-N , 16-C ) :   1.1077
B(  4-N , 26-H ) :   1.1018 B(  5-N , 10-C ) :  -0.1152 B(  5-N , 11-C ) :   0.6798
B(  5-N , 17-C ) :   0.9823 B(  5-N , 19-H ) :  -0.1540 B(  5-N , 27-H ) :   1.0195
B(  6-N , 14-C ) :   1.0394 B(  6-N , 16-C ) :   0.9354 B(  6-N , 28-H ) :   1.1038
B(  7-N , 11-C ) :   0.1106 B(  7-N , 15-C ) :   0.8406 B(  7-N , 17-C ) :   0.9589
B(  7-N , 29-H ) :   1.1313 B(  8-C ,  9-C ) :  -0.2251 B(  8-C , 10-C ) :   0.5218
B(  8-C , 11-C ) :  -0.7586 B(  8-C , 19-H ) :  -0.1015 B(  8-C , 20-H ) :  -0.1161
B(  9-C , 11-C ) :   0.2262 B(  9-C , 13-C ) :   0.5959 B(  9-C , 15-C ) :   0.9586
B( 10-C , 11-C ) :   0.7347 B( 10-C , 12-C ) :  -0.1527 B( 10-C , 16-C ) :  -0.1268
B( 10-C , 18-H ) :   1.1264 B( 11-C , 15-C ) :   0.1051 B( 11-C , 17-C ) :  -0.1582
B( 11-C , 19-H ) :   0.8236 B( 12-C , 20-H ) :   1.0406 B( 12-C , 21-H ) :   1.0333
B( 12-C , 22-H ) :   0.7844 B( 13-C , 23-H ) :   0.9594 B( 13-C , 24-H ) :   1.0246
B( 13-C , 25-H ) :   0.8894 B( 14-C , 16-C ) :  -0.1035 B( 15-C , 17-C ) :  -0.1063

Dispersion correction           -0.057463833
FINAL SINGLE POINT ENERGY      -908.698207422538

DIPOLE MOMENT
-------------

Method             : TDA/CIS
Type of density    : Electron Density
Level              : Relaxed density
State              :   1
Multiplicity       :   3
Irrep              :   0
Energy             :     0.0000000000000000 Eh
Relativity type    :
Basis              : AO
                                X                 Y                 Z
Electronic contribution:     -0.576885712      -9.600554848      -6.662544925
Nuclear contribution   :     -0.028158404      10.829744085       9.772739494
                        -----------------------------------------
Total Dipole Moment    :     -0.605044116       1.229189236       3.110194569
                        -----------------------------------------
Magnitude (a.u.)       :      3.398572468
Magnitude (Debye)      :      8.638484701

Rotational constants in cm-1:             0.022876             0.012302             0.011391
Rotational constants in MHz :           685.795941           368.798779           341.506144

                             ****ORCA TERMINATED NORMALLY****
TOTAL RUN TIME: 0 days 0 hours 4 minutes 52 seconds 575 msec
