                         Program Version 6.0.0  -   RELEASE  -
|  1> ! Engrad def2-TZVPPD wB97M-D3BJ
|  2> %pal nprocs 8 end%pal nprocs 64 end
|  3> %tddft
|  4>  Iroot 2 Nroots 3
|  5> sf true
|  6> end
|  7> *xyz 0 3
|  8> O   3.431337 -0.07677487 -1.04442822
|  9> O   -1.50176084 0.67774868 -2.45951122
| 10> O   0.30097387 -3.17526617 -0.42553053
| 11> O   -3.64010508 -0.37101421 1.43031059
| 12> N   0.23965949 -1.36823869 0.85202029
| 13> N   -1.72256149 0.75659898 1.5280249
| 14> N   1.6299578 -1.37954494 -0.91152563
| 15> N   -2.55778383 0.01416724 -0.56147417
| 16> C   1.89668731 0.28944554 0.7313257
| 17> C   -0.41388706 1.35744968 -0.54134152
| 18> C   0.58548365 -0.02026986 1.30388286
| 19> C   -0.43783631 1.13556354 0.91076
| 20> C   2.67302415 1.39504222 1.36998953
| 21> C   0.60578856 2.03929704 -1.3544053
| 22> C   2.42443605 -0.35504598 -0.47033348
| 23> C   -1.5505023 0.65898777 -1.25963745
| 24> C   0.64086329 -2.07699242 -0.1804787
| 25> C   -2.65305436 0.06691491 0.81860941
| 26> H   0.57909488 -0.00172806 2.39238484
| 27> H   -0.08182285 1.94234141 1.57725408
| 28> H   3.59963673 1.53530422 0.82870917
| 29> H   2.30628356 2.3894319 1.46889082
| 30> H   3.01813585 1.05835155 2.33185449
| 31> H   0.17828958 2.68101784 -2.14612551
| 32> H   1.36545362 2.61776111 -0.73935763
| 33> H   1.31344227 1.29002949 -1.81295998
| 34> H   -0.29130433 -1.84873878 1.52638519
| 35> H   -1.70190985 0.52636459 2.49488743
| 36> H   2.08432254 -1.99295896 -1.53822764
| 37> H   -3.30667666 -0.36050272 -1.01259862
| 38> *
| 39>
| 40>                          ****END OF INPUT****

CARTESIAN COORDINATES (ANGSTROEM)
---------------------------------
  O      3.431337   -0.076775   -1.044428
  O     -1.501761    0.677749   -2.459511
  O      0.300974   -3.175266   -0.425531
  O     -3.640105   -0.371014    1.430311
  N      0.239659   -1.368239    0.852020
  N     -1.722561    0.756599    1.528025
  N      1.629958   -1.379545   -0.911526
  N     -2.557784    0.014167   -0.561474
  C      1.896687    0.289446    0.731326
  C     -0.413887    1.357450   -0.541342
  C      0.585484   -0.020270    1.303883
  C     -0.437836    1.135564    0.910760
  C      2.673024    1.395042    1.369990
  C      0.605789    2.039297   -1.354405
  C      2.424436   -0.355046   -0.470333
  C     -1.550502    0.658988   -1.259637
  C      0.640863   -2.076992   -0.180479
  C     -2.653054    0.066915    0.818609
  H      0.579095   -0.001728    2.392385
  H     -0.081823    1.942341    1.577254
  H      3.599637    1.535304    0.828709
  H      2.306284    2.389432    1.468891
  H      3.018136    1.058352    2.331854
  H      0.178290    2.681018   -2.146126
  H      1.365454    2.617761   -0.739358
  H      1.313442    1.290029   -1.812960
  H     -0.291304   -1.848739    1.526385
  H     -1.701910    0.526365    2.494887
  H      2.084323   -1.992959   -1.538228
  H     -3.306677   -0.360503   -1.012599

 Total Charge           Charge          ....    0
 Multiplicity           Mult            ....    3
 Number of Electrons    NEL             ....  132
 Basis Dimension        Dim             ....  882

ORBITAL ENERGIES
----------------
                 SPIN UP ORBITALS
  NO   OCC          E(Eh)            E(eV)
   0   1.0000     -19.336743      -526.1795
   1   1.0000     -19.331815      -526.0454
   2   1.0000     -19.322713      -525.7977
   3   1.0000     -19.313545      -525.5483
   4   1.0000     -14.569690      -396.4614
   5   1.0000     -14.566273      -396.3684
   6   1.0000     -14.559281      -396.1782
   7   1.0000     -14.552988      -396.0069
   8   1.0000     -10.506827      -285.9053
   9   1.0000     -10.501056      -285.7483
  10   1.0000     -10.484521      -285.2983
  11   1.0000     -10.481955      -285.2285
  12   1.0000     -10.449660      -284.3497
  13   1.0000     -10.447869      -284.3010
  14   1.0000     -10.423082      -283.6265
  15   1.0000     -10.418930      -283.5135
  16   1.0000     -10.381231      -282.4876
  17   1.0000     -10.370180      -282.1869
  18   1.0000      -1.238779       -33.7089
  19   1.0000      -1.220688       -33.2166
  20   1.0000      -1.217258       -33.1233
  21   1.0000      -1.195821       -32.5400
  22   1.0000      -1.127384       -30.6777
  23   1.0000      -1.099469       -29.9181
  24   1.0000      -1.079398       -29.3719
  25   1.0000      -1.063334       -28.9348
  26   1.0000      -0.992426       -27.0053
  27   1.0000      -0.952270       -25.9126
  28   1.0000      -0.894903       -24.3516
  29   1.0000      -0.848891       -23.0995
  30   1.0000      -0.827929       -22.5291
  31   1.0000      -0.808007       -21.9870
  32   1.0000      -0.792600       -21.5678
  33   1.0000      -0.785559       -21.3761
  34   1.0000      -0.711334       -19.3564
  35   1.0000      -0.702560       -19.1176
  36   1.0000      -0.695180       -18.9168
  37   1.0000      -0.690239       -18.7824
  38   1.0000      -0.657910       -17.9026
  39   1.0000      -0.639508       -17.4019
  40   1.0000      -0.628183       -17.0937
  41   1.0000      -0.609998       -16.5989
  42   1.0000      -0.602534       -16.3958
  43   1.0000      -0.591848       -16.1050
  44   1.0000      -0.584006       -15.8916
  45   1.0000      -0.575221       -15.6525
  46   1.0000      -0.570686       -15.5292
  47   1.0000      -0.564737       -15.3673
  48   1.0000      -0.561890       -15.2898
  49   1.0000      -0.556984       -15.1563
  50   1.0000      -0.552601       -15.0370
  51   1.0000      -0.541629       -14.7385
  52   1.0000      -0.534302       -14.5391
  53   1.0000      -0.529604       -14.4113
  54   1.0000      -0.516329       -14.0500
  55   1.0000      -0.498904       -13.5759
  56   1.0000      -0.488178       -13.2840
  57   1.0000      -0.432313       -11.7638
  58   1.0000      -0.420598       -11.4451
  59   1.0000      -0.409344       -11.1388
  60   1.0000      -0.408251       -11.1091
  61   1.0000      -0.399451       -10.8696
  62   1.0000      -0.397780       -10.8242
  63   1.0000      -0.390658       -10.6304
  64   1.0000      -0.384987       -10.4760
  65   1.0000      -0.348308        -9.4779
  66   1.0000      -0.323972        -8.8157
  67   0.0000       0.005342         0.1454
  68   0.0000       0.027552         0.7497
  69   0.0000       0.032955         0.8968
  70   0.0000       0.035575         0.9681
  71   0.0000       0.055114         1.4997

                 SPIN DOWN ORBITALS
  NO   OCC          E(Eh)            E(eV)
   0   1.0000     -19.333131      -526.0812
   1   1.0000     -19.328317      -525.9503
   2   1.0000     -19.322564      -525.7937
   3   1.0000     -19.313489      -525.5468
   4   1.0000     -14.569322      -396.4514
   5   1.0000     -14.565974      -396.3603
   6   1.0000     -14.559250      -396.1773
   7   1.0000     -14.552337      -395.9892
   8   1.0000     -10.506868      -285.9064
   9   1.0000     -10.501081      -285.7490
  10   1.0000     -10.485564      -285.3267
  11   1.0000     -10.482865      -285.2532
  12   1.0000     -10.448770      -284.3255
  13   1.0000     -10.447507      -284.2911
  14   1.0000     -10.411500      -283.3113
  15   1.0000     -10.407415      -283.2001
  16   1.0000     -10.381838      -282.5042
  17   1.0000     -10.370782      -282.2033
  18   1.0000      -1.237506       -33.6742
  19   1.0000      -1.217659       -33.1342
  20   1.0000      -1.212904       -33.0048
  21   1.0000      -1.193345       -32.4726
  22   1.0000      -1.124932       -30.6110
  23   1.0000      -1.097839       -29.8737
  24   1.0000      -1.077893       -29.3310
  25   1.0000      -1.061930       -28.8966
  26   1.0000      -0.979208       -26.6456
  27   1.0000      -0.934290       -25.4233
  28   1.0000      -0.888479       -24.1767
  29   1.0000      -0.843859       -22.9626
  30   1.0000      -0.820013       -22.3137
  31   1.0000      -0.803743       -21.8710
  32   1.0000      -0.791304       -21.5325
  33   1.0000      -0.783924       -21.3317
  34   1.0000      -0.704421       -19.1683
  35   1.0000      -0.696621       -18.9560
  36   1.0000      -0.689047       -18.7499
  37   1.0000      -0.684412       -18.6238
  38   1.0000      -0.645823       -17.5737
  39   1.0000      -0.634942       -17.2776
  40   1.0000      -0.624681       -16.9984
  41   1.0000      -0.601875       -16.3778
  42   1.0000      -0.597674       -16.2635
  43   1.0000      -0.586392       -15.9565
  44   1.0000      -0.576681       -15.6923
  45   1.0000      -0.566993       -15.4287
  46   1.0000      -0.565091       -15.3769
  47   1.0000      -0.557501       -15.1704
  48   1.0000      -0.555444       -15.1144
  49   1.0000      -0.551169       -14.9981
  50   1.0000      -0.541324       -14.7302
  51   1.0000      -0.532072       -14.4784
  52   1.0000      -0.527450       -14.3526
  53   1.0000      -0.524011       -14.2591
  54   1.0000      -0.508936       -13.8489
  55   1.0000      -0.494854       -13.4657
  56   1.0000      -0.482955       -13.1419
  57   1.0000      -0.428132       -11.6501
  58   1.0000      -0.413845       -11.2613
  59   1.0000      -0.403816       -10.9884
  60   1.0000      -0.398090       -10.8326
  61   1.0000      -0.393574       -10.7097
  62   1.0000      -0.392084       -10.6691
  63   1.0000      -0.384223       -10.4552
  64   1.0000      -0.377670       -10.2769
  65   0.0000      -0.062755        -1.7076
  66   0.0000      -0.049473        -1.3462
  67   0.0000       0.004948         0.1346
  68   0.0000       0.027105         0.7376
  69   0.0000       0.032676         0.8892

----------------------------------------------------------------------------------------------------
          SPIN FLIP ABSORPTION SPECTRUM VIA TRANSITION ELECTRIC DIPOLE MOMENTS
----------------------------------------------------------------------------------------------------
     Transition      Energy     Energy  Wavelength fosc(D2)      D2        DX        DY        DZ
                      (eV)      (cm-1)    (nm)                 (au**2)    (au)      (au)      (au)
----------------------------------------------------------------------------------------------------
  1-3A  ->  2-3A    0.051199     413.0  24216.0   0.000021276   0.01696  -0.12614   0.03046   0.01106
  1-3A  ->  3-1A    2.117277   17077.0   585.6   0.024327468   0.46899  -0.64839   0.16204  -0.14938

Dispersion correction             ... done (  0.1 sec)

MULLIKEN ATOMIC CHARGES AND SPIN DENSITIES
------------------------------------------
   0 O :   -0.636359   -0.042160
   1 O :   -0.642140    0.045259
   2 O :   -0.622999   -0.001040
   3 O :   -0.691037   -0.001323
   4 N :   -0.171272   -0.000477
   5 N :   -0.213976    0.002741
   6 N :    0.048745   -0.007766
   7 N :    0.125674    0.005673
   8 C :    0.706462    0.338645
   9 C :    0.005307    0.373893
  10 C :   -0.009813   -0.221072
  11 C :    0.677142   -0.116602
  12 C :   -1.590478   -0.036632
  13 C :   -1.325622   -0.009863
  14 C :   -0.023324   -0.336767
  15 C :    0.338917   -0.050633
  16 C :    0.491112    0.012035
  17 C :    0.446715    0.007823
  18 H :    0.675870   -0.018106
  19 H :    0.446909    0.003444
  20 H :    0.299288   -0.002544
  21 H :    0.349418    0.006469
  22 H :    0.441062    0.012771
  23 H :    0.368961    0.008138
  24 H :    0.244439    0.002263
  25 H :    0.246022    0.024706
  26 H :   -0.046365   -0.001781
  27 H :    0.069247    0.000284
  28 H :    0.032847    0.001772
  29 H :   -0.040752    0.000852
Sum of atomic charges       :   -0.0000000

LOEWDIN ATOMIC CHARGES AND SPIN DENSITIES
-----------------------------------------
   0 O :    0.111312   -0.036788
   1 O :    0.104470    0.040141
   2 O :    0.142326   -0.001294
   3 O :    0.049556   -0.001197
   4 N :    0.308905   -0.000614
   5 N :    0.285591   -0.002714
   6 N :    0.346088   -0.011058
   7 N :    0.375528    0.003935
   8 C :   -0.019032   -0.165577
   9 C :   -0.009606    0.186673
  10 C :   -0.099663   -0.009066
  11 C :   -0.099845    0.012498
  12 C :    0.196845   -0.025079
  13 C :    0.174068    0.022878
  14 C :   -0.472285   -0.034627
  15 C :   -0.375655    0.021411
  16 C :   -0.519839   -0.000335
  17 C :   -0.460241   -0.000377
  18 H :    0.058975   -0.003104
  19 H :    0.058941    0.003743
  20 H :   -0.004547    0.000355
  21 H :   -0.018059   -0.004924
  22 H :    0.000117   -0.006518
  23 H :    0.020092    0.003802
  24 H :    0.027213    0.000116
  25 H :    0.019638    0.009072
  26 H :   -0.044618   -0.000136
  27 H :   -0.044215   -0.000589
  28 H :   -0.037997   -0.001046
  29 H :   -0.074064    0.000420

  Mayer bond orders larger than 0.100000
B(  0-O , 14-C ) :   1.4087 B(  1-O , 15-C ) :   1.4627 B(  2-O , 16-C ) :   1.5419
B(  3-O , 17-C ) :   1.5215 B(  4-N ,  8-C ) :   0.1234 B(  4-N , 10-C ) :   0.4974
B(  4-N , 16-C ) :   1.0208 B(  4-N , 26-H ) :   1.2224 B(  5-N ,  9-C ) :   0.1048
B(  5-N , 11-C ) :   0.2067 B(  5-N , 17-C ) :   1.1075 B(  5-N , 27-H ) :   1.0685
B(  6-N ,  8-C ) :  -0.1395 B(  6-N , 10-C ) :   0.1144 B(  6-N , 14-C ) :   1.0361
B(  6-N , 16-C ) :   0.9568 B(  6-N , 28-H ) :   1.0573 B(  7-N , 15-C ) :   1.0112
B(  7-N , 17-C ) :   0.9816 B(  7-N , 29-H ) :   1.1636 B(  8-C ,  9-C ) :   0.2349
B(  8-C , 10-C ) :   0.8430 B(  8-C , 11-C ) :   0.1108 B(  8-C , 12-C ) :   0.3374
B(  8-C , 14-C ) :   0.3411 B(  8-C , 18-H ) :  -0.1111 B(  8-C , 20-H ) :  -0.1313
B(  9-C , 10-C ) :   0.2328 B(  9-C , 11-C ) :   0.4145 B(  9-C , 13-C ) :   0.3479
B(  9-C , 15-C ) :   0.7879 B(  9-C , 19-H ) :  -0.2442 B(  9-C , 24-H ) :  -0.1477
B( 10-C , 11-C ) :   0.3394 B( 10-C , 18-H ) :   0.5872 B( 10-C , 26-H ) :  -0.1040
B( 11-C , 13-C ) :  -0.1367 B( 11-C , 17-C ) :  -0.1558 B( 11-C , 18-H ) :  -0.1174
B( 11-C , 19-H ) :   0.9274 B( 12-C , 20-H ) :   1.0822 B( 12-C , 21-H ) :   0.8167
B( 12-C , 22-H ) :   0.8371 B( 13-C , 14-C ) :   0.2123 B( 13-C , 23-H ) :   0.9117
B( 13-C , 24-H ) :   1.0851 B( 13-C , 25-H ) :   0.9325

Dispersion correction           -0.059305317
FINAL SINGLE POINT ENERGY      -908.763973501756

DIPOLE MOMENT
-------------

Method             : TDA/CIS
Type of density    : Electron Density
Level              : Relaxed density
State              :   2
Multiplicity       :   3
Irrep              :   0
Energy             :     0.0000000000000000 Eh
Relativity type    :
Basis              : AO
                                X                 Y                 Z
Electronic contribution:     -7.551775284      -8.125984918      -3.374583938
Nuclear contribution   :      8.553468220       9.667014841       5.272758401
                        -----------------------------------------
Total Dipole Moment    :      1.001692937       1.541029923       1.898174463
                        -----------------------------------------
Magnitude (a.u.)       :      2.642201403
Magnitude (Debye)      :      6.715942242

Rotational constants in cm-1:             0.021374             0.012456             0.011731
Rotational constants in MHz :           640.786653           373.418892           351.692004

                             ****ORCA TERMINATED NORMALLY****
TOTAL RUN TIME: 0 days 0 hours 4 minutes 46 seconds 427 msec
