                         Program Version 6.0.0  -   RELEASE  -
|  1> ! opt def2-TZVPPD wB97M-D3BJ
|  2> %pal nprocs 8 end%pal nprocs 32 end
|  3> %geom Constraints
|  4> {B 9 8 3.3 C}
|  5> {A 8 9 11 43.14285714285714 C}
|  6> end
|  7> MaxIter 300
|  8> end
|  9> *xyz 0 1
| 10> O   2.98579685529314 0.88758230159078 -0.86184571092411
| 11> O   -0.03983205397054 0.68929041702508 -2.10362336723772
| 12> O   0.93431434349854 -3.13274393337945 -0.68767288184107
| 13> O   -3.75829998830163 -0.84727300865116 -0.0472717177755
| 14> N   0.21184538946282 -1.54604804365365 0.7617588924445
| 15> N   -2.13631993928911 0.03188773433438 1.27350571071531
| 16> N   2.02598672506387 -1.14318467211666 -0.64531219127023
| 17> N   -1.91814233924584 0.03137116037665 -1.04498946748291
| 18> C   1.18097737274226 0.71693507080484 0.70173889017321
| 19> C   -0.20686880480777 1.27024627933494 0.21345042231937
| 20> C   0.41441080275909 -0.34173258966541 1.52336266615173
| 21> C   -0.82922175114212 0.58960593673968 1.44434972027296
| 22> C   1.92822011286806 1.69488653817281 1.5963734975385
| 23> C   -0.37809776891576 2.77134929626422 0.04819649358288
| 24> C   2.1403947470937 0.1972384729179 -0.35038567829864
| 25> C   -0.67361678962426 0.6214190571346 -1.0793014500539
| 26> C   1.04142578622994 -2.02697492875068 -0.21027082435993
| 27> C   -2.68467002550422 -0.30396816036989 0.07167054343891
| 28> H   0.80817443950001 -0.54572267081061 2.51895215321335
| 29> H   -0.83785272399001 1.27240685039143 2.28901317073582
| 30> H   2.31167340578204 2.52284411740894 1.00913016264629
| 31> H   1.28982602448342 2.08257620823614 2.38710022492991
| 32> H   2.77390820759972 1.19140411795486 2.06045858523949
| 33> H   -1.41857211141493 3.00964947214868 -0.16882755561625
| 34> H   -0.09065531563179 3.29799318042223 0.95389844358819
| 35> H   0.23426221611057 3.12492645074476 -0.77764887675592
| 36> H   -0.46772570547622 -2.21560145172536 1.0787081584806
| 37> H   -2.71769301149571 -0.17090724573546 2.06627440900372
| 38> H   2.60065167263658 -1.49057255715425 -1.3966820077142
| 39> H   -2.27169977231386 -0.32388339999036 -1.91951041514436
| 40> *
| 41>
| 42>                          ****END OF INPUT****
 Total Charge           Charge          ....    0
 Multiplicity           Mult            ....    1
 Number of Electrons    NEL             ....  132
Dispersion correction           -0.052397437
FINAL SINGLE POINT ENERGY      -908.569203962473
Dispersion correction             ... done (  0.0 sec)
Dispersion correction           -0.052815825
FINAL SINGLE POINT ENERGY      -908.613056775795
Dispersion correction             ... done (  0.0 sec)
Dispersion correction           -0.053332268
FINAL SINGLE POINT ENERGY      -908.644673013530
Dispersion correction             ... done (  0.0 sec)
FINAL SINGLE POINT ENERGY      -908.679778462911
FINAL SINGLE POINT ENERGY      -908.715127441846
FINAL SINGLE POINT ENERGY      -908.732453893746
FINAL SINGLE POINT ENERGY      -908.740026438394
FINAL SINGLE POINT ENERGY      -908.745962079671
FINAL SINGLE POINT ENERGY      -908.748062038840
FINAL SINGLE POINT ENERGY      -908.749153762989
FINAL SINGLE POINT ENERGY      -908.752606909107
FINAL SINGLE POINT ENERGY      -908.752640845029
FINAL SINGLE POINT ENERGY      -908.752664728020
FINAL SINGLE POINT ENERGY      -908.752699741623
FINAL SINGLE POINT ENERGY      -908.752730790008
FINAL SINGLE POINT ENERGY      -908.752746078518
FINAL SINGLE POINT ENERGY      -908.752752705813
Dispersion correction             ... done (  0.0 sec)
Dispersion correction           -0.056524410
FINAL SINGLE POINT ENERGY      -908.752755752901
Dispersion correction             ... done (  0.0 sec)
Dispersion correction           -0.056525988
FINAL SINGLE POINT ENERGY      -908.752757354956
Dispersion correction             ... done (  0.0 sec)
                    ***********************HURRAY********************

CARTESIAN COORDINATES (ANGSTROEM)
---------------------------------
  O      4.079724    0.020981    0.716969
  O     -1.826911    1.136726   -2.506971
  O      1.257763   -2.771490   -1.464814
  O     -3.714587   -0.924631    0.974964
  N      0.337611   -1.197704   -0.111278
  N     -1.916940    0.411076    1.392576
  N      2.638649   -1.436541   -0.252402
  N     -2.436634   -0.224362   -0.781017
  C      1.781319    0.281173    1.188603
  C     -0.841468    1.516273   -0.387950
  C      0.430714   -0.313577    1.023277
  C     -0.565960    0.818102    0.950731
  C      2.044657    1.364260    2.154313
  C     -0.671280    2.974174   -0.498860
  C      2.929033   -0.348667    0.555377
  C     -1.696180    0.825667   -1.341595
  C      1.386122   -1.875211   -0.663047
  C     -2.762205   -0.294829    0.578081
  H      0.221116   -0.885604    1.949283
  H     -0.258412    1.585553    1.651119
  H      1.804271    2.350950    1.736848
  H      1.441928    1.254579    3.059317
  H      3.099886    1.374375    2.408763
  H     -1.433771    3.494969    0.097853
  H      0.298069    3.298170   -0.115723
  H     -0.794370    3.288651   -1.531531
  H     -0.560455   -1.582094   -0.347122
  H     -2.126396    0.309383    2.370909
  H      3.419710   -1.880038   -0.708742
  H     -3.112400   -0.655316   -1.393331

 Multiplicity           Mult            ....    1
 Number of Electrons    NEL             ....  132
 Basis Dimension        Dim             ....  882

ORBITAL ENERGIES
----------------

  NO   OCC          E(Eh)            E(eV)
   0   2.0000     -19.338610      -526.2303
   1   2.0000     -19.330986      -526.0229
   2   2.0000     -19.329383      -525.9792
   3   2.0000     -19.316045      -525.6163
   4   2.0000     -14.569418      -396.4540
   5   2.0000     -14.566685      -396.3797
   6   2.0000     -14.566559      -396.3762
   7   2.0000     -14.559736      -396.1906
   8   2.0000     -10.512995      -286.0731
   9   2.0000     -10.503811      -285.8232
  10   2.0000     -10.488392      -285.4037
  11   2.0000     -10.483235      -285.2633
  12   2.0000     -10.449265      -284.3389
  13   2.0000     -10.445067      -284.2247
  14   2.0000     -10.433160      -283.9007
  15   2.0000     -10.429760      -283.8082
  16   2.0000     -10.384642      -282.5805
  17   2.0000     -10.381600      -282.4977
  18   2.0000      -1.227634       -33.4056
  19   2.0000      -1.217901       -33.1408
  20   2.0000      -1.202257       -32.7151
  21   2.0000      -1.193396       -32.4739
  22   2.0000      -1.123151       -30.5625
  23   2.0000      -1.101536       -29.9743
  24   2.0000      -1.069271       -29.0964
  25   2.0000      -1.060861       -28.8675
  26   2.0000      -0.984879       -26.7999
  27   2.0000      -0.958050       -26.0699
  28   2.0000      -0.897460       -24.4211
  29   2.0000      -0.848591       -23.0913
  30   2.0000      -0.830520       -22.5996
  31   2.0000      -0.801755       -21.8169
  32   2.0000      -0.788429       -21.4543
  33   2.0000      -0.784484       -21.3469
  34   2.0000      -0.704352       -19.1664
  35   2.0000      -0.698389       -19.0041
  36   2.0000      -0.692244       -18.8369
  37   2.0000      -0.682665       -18.5762
  38   2.0000      -0.648985       -17.6598
  39   2.0000      -0.635567       -17.2946
  40   2.0000      -0.625926       -17.0323
  41   2.0000      -0.605900       -16.4874
  42   2.0000      -0.599046       -16.3009
  43   2.0000      -0.587725       -15.9928
  44   2.0000      -0.577515       -15.7150
  45   2.0000      -0.572999       -15.5921
  46   2.0000      -0.568064       -15.4578
  47   2.0000      -0.564491       -15.3606
  48   2.0000      -0.561797       -15.2873
  49   2.0000      -0.557485       -15.1699
  50   2.0000      -0.554960       -15.1012
  51   2.0000      -0.544953       -14.8289
  52   2.0000      -0.530192       -14.4273
  53   2.0000      -0.523320       -14.2403
  54   2.0000      -0.518761       -14.1162
  55   2.0000      -0.507863       -13.8196
  56   2.0000      -0.498507       -13.5651
  57   2.0000      -0.429901       -11.6982
  58   2.0000      -0.421884       -11.4800
  59   2.0000      -0.406133       -11.0514
  60   2.0000      -0.400532       -10.8990
  61   2.0000      -0.399670       -10.8756
  62   2.0000      -0.395778       -10.7697
  63   2.0000      -0.388703       -10.5772
  64   2.0000      -0.384185       -10.4542
  65   2.0000      -0.274686        -7.4746
  66   0.0000      -0.132154        -3.5961
  67   0.0000       0.007765         0.2113
  68   0.0000       0.028617         0.7787
  69   0.0000       0.030370         0.8264
  70   0.0000       0.032537         0.8854

MULLIKEN ATOMIC CHARGES
-----------------------
   0 O :   -0.660465
   1 O :   -0.638191
   2 O :   -0.658056
   3 O :   -0.644148
   4 N :   -0.051231
   5 N :   -0.287421
   6 N :   -0.039569
   7 N :   -0.041762
   8 C :    0.397989
   9 C :    0.308281
  10 C :    0.402530
  11 C :    0.533074
  12 C :   -1.867964
  13 C :   -1.430394
  14 C :    0.561658
  15 C :    0.188637
  16 C :    0.413247
  17 C :    0.411126
  18 H :    0.348862
  19 H :    0.543493
  20 H :    0.328944
  21 H :    0.373195
  22 H :    0.316088
  23 H :    0.341557
  24 H :    0.262669
  25 H :    0.370423
  26 H :    0.036522
  27 H :    0.063049
  28 H :    0.054039
  29 H :    0.063820
Sum of atomic charges:    0.0000000

LOEWDIN ATOMIC CHARGES
----------------------
   0 O :    0.081494
   1 O :    0.107358
   2 O :    0.091629
   3 O :    0.095487
   4 N :    0.300503
   5 N :    0.286689
   6 N :    0.332856
   7 N :    0.306424
   8 C :    0.007946
   9 C :    0.018683
  10 C :   -0.153183
  11 C :   -0.121938
  12 C :    0.181146
  13 C :    0.183379
  14 C :   -0.395706
  15 C :   -0.406938
  16 C :   -0.470199
  17 C :   -0.489566
  18 H :    0.078014
  19 H :    0.021908
  20 H :    0.007918
  21 H :    0.011093
  22 H :   -0.000216
  23 H :    0.022084
  24 H :   -0.004028
  25 H :    0.002468
  26 H :   -0.043206
  27 H :   -0.030924
  28 H :   -0.009707
  29 H :   -0.011467

  Mayer bond orders larger than 0.100000
B(  0-O , 14-C ) :   1.2889 B(  1-O ,  9-C ) :  -0.1132 B(  1-O , 15-C ) :   1.5083
B(  2-O , 16-C ) :   1.5856 B(  3-O , 17-C ) :   1.5667 B(  4-N , 10-C ) :   0.5086
B(  4-N , 16-C ) :   1.0885 B(  4-N , 26-H ) :   1.1337 B(  5-N ,  9-C ) :   0.2300
B(  5-N , 10-C ) :   0.1364 B(  5-N , 17-C ) :   1.1963 B(  5-N , 27-H ) :   1.0612
B(  6-N , 14-C ) :   1.0158 B(  6-N , 16-C ) :   0.9271 B(  6-N , 28-H ) :   1.1166
B(  7-N , 15-C ) :   0.9719 B(  7-N , 17-C ) :   0.9798 B(  7-N , 29-H ) :   1.0579
B(  8-C ,  9-C ) :   0.5518 B(  8-C , 10-C ) :   0.3453 B(  8-C , 11-C ) :   0.1300
B(  8-C , 14-C ) :   0.8423 B(  8-C , 20-H ) :  -0.1228 B(  8-C , 21-H ) :  -0.1122
B(  8-C , 22-H ) :  -0.1064 B(  9-C , 10-C ) :   0.2498 B(  9-C , 13-C ) :   0.3119
B(  9-C , 15-C ) :   0.8729 B(  9-C , 24-H ) :  -0.1069 B(  9-C , 25-H ) :  -0.1031
B( 10-C , 11-C ) :   0.5965 B( 10-C , 12-C ) :  -0.2939 B( 10-C , 14-C ) :   0.1554
B( 10-C , 18-H ) :   0.9855 B( 11-C , 15-C ) :  -0.1810 B( 11-C , 17-C ) :  -0.1656
B( 11-C , 19-H ) :   0.7475 B( 12-C , 14-C ) :  -0.3339 B( 12-C , 20-H ) :   0.9207
B( 12-C , 21-H ) :   0.9092 B( 12-C , 22-H ) :   1.0670 B( 13-C , 15-C ) :  -0.1074
B( 13-C , 23-H ) :   0.8507 B( 13-C , 24-H ) :   1.0452 B( 13-C , 25-H ) :   0.9568
B( 18-H , 19-H ) :   0.1078

Dispersion correction           -0.056528319
FINAL SINGLE POINT ENERGY      -908.752757803955

DIPOLE MOMENT
-------------

Method             : SCF
Type of density    : Electron Density
Multiplicity       :   1
Irrep              :   0
Energy             :  -908.6962294853733511 Eh
Relativity type    :
Basis              : AO
                                X                 Y                 Z
Electronic contribution:     -1.788306693      -9.792498688      -5.695667009
Nuclear contribution   :      1.689713052      11.317412657       7.723996051
                        -----------------------------------------
Total Dipole Moment    :     -0.098593641       1.524913969       2.028329042
                        -----------------------------------------
Magnitude (a.u.)       :      2.539527914
Magnitude (Debye)      :      6.454966972

Rotational constants in cm-1:             0.021059             0.010799             0.009686
Rotational constants in MHz :           631.324079           323.738396           290.374007

                             ****ORCA TERMINATED NORMALLY****
TOTAL RUN TIME: 0 days 1 hours 32 minutes 40 seconds 653 msec
