                         Program Version 6.0.0  -   RELEASE  -
|  1> ! Engrad def2-TZVPPD wB97M-D3BJ
|  2> %pal nprocs 8 end%pal nprocs 64 end
|  3> %tddft Nroots 2 Iroot 1
|  4> sf true
|  5> end
|  6> *xyz 0 3
|  7> O   3.27428701 0.27979375 -0.92001842
|  8> O   -0.77364316 1.6335434 -2.32451693
|  9> O   0.40191359 -3.07434921 -0.22387721
| 10> O   -2.95529207 -1.84894249 -0.5035081
| 11> N   0.3709954 -1.37952509 1.27827694
| 12> N   -2.15703397 -0.26366794 0.91384147
| 13> N   1.535357 -1.16599315 -0.7293528
| 14> N   -1.53332555 -0.26844402 -1.30994807
| 15> C   1.83458431 0.49985733 0.95903917
| 16> C   -0.99083049 1.63548175 0.02353112
| 17> C   0.4186364 0.0260148 1.5470161
| 18> C   -1.15176599 0.72791738 1.18573323
| 19> C   2.59133115 1.55567513 1.65046171
| 20> C   -0.7518741 3.0841355 0.21144802
| 21> C   2.29872137 -0.0807686 -0.28216663
| 22> C   -1.07019069 1.05468952 -1.29210086
| 23> C   0.73546468 -1.9531259 0.07883551
| 24> C   -2.26287328 -0.87760151 -0.30158229
| 25> H   0.4600699 0.17579403 2.6116595
| 26> H   -1.45183673 1.27142411 2.07161435
| 27> H   3.57130224 1.67092872 1.23047163
| 28> H   2.07237229 2.50870095 1.57264102
| 29> H   2.64144075 1.326172 2.70638934
| 30> H   -1.61408485 3.55488935 0.67604
| 31> H   0.09202163 3.26897878 0.84413613
| 32> H   -0.56479259 3.5500375 -0.7465977
| 33> H   -0.2243561 -1.97295081 1.81243765
| 34> H   -2.66937412 -0.70895665 1.65374974
| 35> H   1.85513494 -1.61726423 -1.57635374
| 36> H   -1.62966521 -0.69246075 -2.21892318
| 37> *
| 38>
| 39>                          ****END OF INPUT****

CARTESIAN COORDINATES (ANGSTROEM)
---------------------------------
  O      3.274287    0.279794   -0.920018
  O     -0.773643    1.633543   -2.324517
  O      0.401914   -3.074349   -0.223877
  O     -2.955292   -1.848942   -0.503508
  N      0.370995   -1.379525    1.278277
  N     -2.157034   -0.263668    0.913841
  N      1.535357   -1.165993   -0.729353
  N     -1.533326   -0.268444   -1.309948
  C      1.834584    0.499857    0.959039
  C     -0.990830    1.635482    0.023531
  C      0.418636    0.026015    1.547016
  C     -1.151766    0.727917    1.185733
  C      2.591331    1.555675    1.650462
  C     -0.751874    3.084135    0.211448
  C      2.298721   -0.080769   -0.282167
  C     -1.070191    1.054690   -1.292101
  C      0.735465   -1.953126    0.078836
  C     -2.262873   -0.877602   -0.301582
  H      0.460070    0.175794    2.611660
  H     -1.451837    1.271424    2.071614
  H      3.571302    1.670929    1.230472
  H      2.072372    2.508701    1.572641
  H      2.641441    1.326172    2.706389
  H     -1.614085    3.554889    0.676040
  H      0.092022    3.268979    0.844136
  H     -0.564793    3.550037   -0.746598
  H     -0.224356   -1.972951    1.812438
  H     -2.669374   -0.708957    1.653750
  H      1.855135   -1.617264   -1.576354
  H     -1.629665   -0.692461   -2.218923

 Total Charge           Charge          ....    0
 Multiplicity           Mult            ....    3
 Number of Electrons    NEL             ....  132
 Basis Dimension        Dim             ....  882

ORBITAL ENERGIES
----------------
                 SPIN UP ORBITALS
  NO   OCC          E(Eh)            E(eV)
   0   1.0000     -19.335606      -526.1486
   1   1.0000     -19.331910      -526.0480
   2   1.0000     -19.314999      -525.5879
   3   1.0000     -19.314888      -525.5848
   4   1.0000     -14.564747      -396.3269
   5   1.0000     -14.557530      -396.1305
   6   1.0000     -14.557416      -396.1274
   7   1.0000     -14.556718      -396.1084
   8   1.0000     -10.500364      -285.7294
   9   1.0000     -10.499230      -285.6986
  10   1.0000     -10.481012      -285.2028
  11   1.0000     -10.476840      -285.0893
  12   1.0000     -10.452636      -284.4307
  13   1.0000     -10.448784      -284.3259
  14   1.0000     -10.428792      -283.7819
  15   1.0000     -10.412114      -283.3280
  16   1.0000     -10.373026      -282.2644
  17   1.0000     -10.369494      -282.1683
  18   1.0000      -1.218375       -33.1537
  19   1.0000      -1.214279       -33.0422
  20   1.0000      -1.194755       -32.5109
  21   1.0000      -1.192332       -32.4450
  22   1.0000      -1.114206       -30.3191
  23   1.0000      -1.096700       -29.8427
  24   1.0000      -1.063137       -28.9294
  25   1.0000      -1.053768       -28.6745
  26   1.0000      -0.971977       -26.4488
  27   1.0000      -0.954940       -25.9852
  28   1.0000      -0.878601       -23.9079
  29   1.0000      -0.842264       -22.9192
  30   1.0000      -0.830000       -22.5854
  31   1.0000      -0.806645       -21.9499
  32   1.0000      -0.783939       -21.3321
  33   1.0000      -0.775475       -21.1017
  34   1.0000      -0.697606       -18.9828
  35   1.0000      -0.692009       -18.8305
  36   1.0000      -0.682358       -18.5679
  37   1.0000      -0.660383       -17.9699
  38   1.0000      -0.648247       -17.6397
  39   1.0000      -0.645858       -17.5747
  40   1.0000      -0.617669       -16.8076
  41   1.0000      -0.603549       -16.4234
  42   1.0000      -0.592229       -16.1154
  43   1.0000      -0.585491       -15.9320
  44   1.0000      -0.581014       -15.8102
  45   1.0000      -0.568689       -15.4748
  46   1.0000      -0.560958       -15.2645
  47   1.0000      -0.557787       -15.1782
  48   1.0000      -0.554756       -15.0957
  49   1.0000      -0.553167       -15.0524
  50   1.0000      -0.546319       -14.8661
  51   1.0000      -0.538034       -14.6406
  52   1.0000      -0.533408       -14.5148
  53   1.0000      -0.525672       -14.3043
  54   1.0000      -0.517106       -14.0712
  55   1.0000      -0.507043       -13.7973
  56   1.0000      -0.491676       -13.3792
  57   1.0000      -0.421688       -11.4747
  58   1.0000      -0.416673       -11.3383
  59   1.0000      -0.410117       -11.1598
  60   1.0000      -0.406563       -11.0631
  61   1.0000      -0.393789       -10.7156
  62   1.0000      -0.391431       -10.6514
  63   1.0000      -0.387656       -10.5486
  64   1.0000      -0.380810       -10.3624
  65   1.0000      -0.338656        -9.2153
  66   1.0000      -0.325212        -8.8495
  67   0.0000       0.006201         0.1687
  68   0.0000       0.028071         0.7638
  69   0.0000       0.031825         0.8660
  70   0.0000       0.039555         1.0763
  71   0.0000       0.056092         1.5263

                 SPIN DOWN ORBITALS
  NO   OCC          E(Eh)            E(eV)
   0   1.0000     -19.330843      -526.0190
   1   1.0000     -19.327114      -525.9175
   2   1.0000     -19.314794      -525.5823
   3   1.0000     -19.314566      -525.5761
   4   1.0000     -14.564296      -396.3146
   5   1.0000     -14.557137      -396.1198
   6   1.0000     -14.557084      -396.1184
   7   1.0000     -14.556078      -396.0910
   8   1.0000     -10.500400      -285.7304
   9   1.0000     -10.499263      -285.6995
  10   1.0000     -10.482094      -285.2323
  11   1.0000     -10.477832      -285.1163
  12   1.0000     -10.451926      -284.4114
  13   1.0000     -10.448847      -284.3276
  14   1.0000     -10.417322      -283.4698
  15   1.0000     -10.401038      -283.0266
  16   1.0000     -10.373562      -282.2790
  17   1.0000     -10.370042      -282.1832
  18   1.0000      -1.216569       -33.1045
  19   1.0000      -1.212197       -32.9856
  20   1.0000      -1.189301       -32.3625
  21   1.0000      -1.186673       -32.2910
  22   1.0000      -1.111882       -30.2558
  23   1.0000      -1.094279       -29.7768
  24   1.0000      -1.061338       -28.8805
  25   1.0000      -1.052194       -28.6317
  26   1.0000      -0.957419       -26.0527
  27   1.0000      -0.938427       -25.5359
  28   1.0000      -0.874890       -23.8070
  29   1.0000      -0.837076       -22.7780
  30   1.0000      -0.820945       -22.3390
  31   1.0000      -0.801088       -21.7987
  32   1.0000      -0.782687       -21.2980
  33   1.0000      -0.773918       -21.0594
  34   1.0000      -0.691649       -18.8207
  35   1.0000      -0.686092       -18.6695
  36   1.0000      -0.677386       -18.4326
  37   1.0000      -0.654379       -17.8066
  38   1.0000      -0.643054       -17.4984
  39   1.0000      -0.636155       -17.3107
  40   1.0000      -0.615542       -16.7498
  41   1.0000      -0.598581       -16.2882
  42   1.0000      -0.584520       -15.9056
  43   1.0000      -0.575539       -15.6612
  44   1.0000      -0.569263       -15.4904
  45   1.0000      -0.564144       -15.3511
  46   1.0000      -0.556594       -15.1457
  47   1.0000      -0.554366       -15.0851
  48   1.0000      -0.545666       -14.8483
  49   1.0000      -0.542417       -14.7599
  50   1.0000      -0.541445       -14.7335
  51   1.0000      -0.531747       -14.4696
  52   1.0000      -0.526800       -14.3350
  53   1.0000      -0.515091       -14.0163
  54   1.0000      -0.504660       -13.7325
  55   1.0000      -0.501516       -13.6469
  56   1.0000      -0.485975       -13.2240
  57   1.0000      -0.416632       -11.3371
  58   1.0000      -0.412221       -11.2171
  59   1.0000      -0.402454       -10.9513
  60   1.0000      -0.392848       -10.6899
  61   1.0000      -0.386033       -10.5045
  62   1.0000      -0.383351       -10.4315
  63   1.0000      -0.379711       -10.3325
  64   1.0000      -0.367590       -10.0026
  65   0.0000      -0.060238        -1.6392
  66   0.0000      -0.051890        -1.4120
  67   0.0000       0.005803         0.1579
  68   0.0000       0.027861         0.7581
  69   0.0000       0.031521         0.8577

----------------------------------------------------------------------------------------------------
          SPIN FLIP ABSORPTION SPECTRUM VIA TRANSITION ELECTRIC DIPOLE MOMENTS
----------------------------------------------------------------------------------------------------
     Transition      Energy     Energy  Wavelength fosc(D2)      D2        DX        DY        DZ
                      (eV)      (cm-1)    (nm)                 (au**2)    (au)      (au)      (au)
----------------------------------------------------------------------------------------------------
  1-3A  ->  2-3A    0.044742     360.9  27710.9   0.000000279   0.00025  -0.01570   0.00250  -0.00116

Dispersion correction             ... done (  0.1 sec)

MULLIKEN ATOMIC CHARGES AND SPIN DENSITIES
------------------------------------------
   0 O :   -0.660649    0.168830
   1 O :   -0.698404   -0.170920
   2 O :   -0.645453    0.006877
   3 O :   -0.655052   -0.001183
   4 N :   -0.273806    0.005912
   5 N :   -0.263565   -0.010444
   6 N :    0.073725    0.009594
   7 N :    0.071805   -0.016221
   8 C :   -0.015165    0.385338
   9 C :    1.155028    0.381804
  10 C :    0.389026    0.014044
  11 C :   -0.071327   -0.372888
  12 C :   -1.269674    0.010960
  13 C :   -1.234716   -0.041180
  14 C :    0.528264    0.159574
  15 C :   -0.228875   -0.611958
  16 C :    0.341788   -0.015127
  17 C :    0.400142    0.027063
  18 H :    0.535058    0.025802
  19 H :    0.570077   -0.010241
  20 H :    0.327196    0.008807
  21 H :    0.206726    0.020044
  22 H :    0.303188    0.015550
  23 H :    0.343193   -0.001594
  24 H :    0.298278    0.020256
  25 H :    0.292886   -0.014018
  26 H :    0.052260    0.001073
  27 H :    0.048358    0.000115
  28 H :    0.045902   -0.001002
  29 H :    0.033786    0.005134
Sum of atomic charges       :    0.0000000

LOEWDIN ATOMIC CHARGES AND SPIN DENSITIES
-----------------------------------------
   0 O :    0.100503    0.149304
   1 O :    0.076574   -0.154163
   2 O :    0.098179    0.006582
   3 O :    0.093460   -0.000969
   4 N :    0.255595    0.000060
   5 N :    0.267838   -0.001159
   6 N :    0.318927    0.009997
   7 N :    0.328107   -0.018000
   8 C :    0.013386    0.502463
   9 C :   -0.022881   -0.448991
  10 C :    0.002830   -0.018962
  11 C :   -0.058375   -0.027174
  12 C :    0.189504    0.079716
  13 C :    0.204641   -0.069747
  14 C :   -0.395888    0.081259
  15 C :   -0.417032   -0.088916
  16 C :   -0.494060   -0.001134
  17 C :   -0.498652   -0.000296
  18 H :    0.014881   -0.004337
  19 H :    0.038881   -0.001115
  20 H :   -0.008541   -0.000519
  21 H :   -0.009373    0.025068
  22 H :   -0.001562    0.016087
  23 H :    0.010909   -0.020160
  24 H :   -0.026434   -0.015372
  25 H :   -0.000376    0.001357
  26 H :   -0.039315    0.000177
  27 H :   -0.027420   -0.000192
  28 H :   -0.006017    0.000704
  29 H :   -0.008291   -0.001567

  Mayer bond orders larger than 0.100000
B(  0-O , 14-C ) :   1.3667 B(  1-O , 15-C ) :   1.3636 B(  2-O , 16-C ) :   1.5063
B(  3-O , 17-C ) :   1.5197 B(  4-N ,  5-N ) :   0.1248 B(  4-N ,  8-C ) :   0.2728
B(  4-N , 10-C ) :   0.2754 B(  4-N , 16-C ) :   1.0488 B(  4-N , 18-H ) :  -0.1074
B(  4-N , 26-H ) :   1.0988 B(  5-N ,  9-C ) :   0.2559 B(  5-N , 11-C ) :   0.2273
B(  5-N , 17-C ) :   1.1206 B(  5-N , 27-H ) :   1.0946 B(  6-N ,  8-C ) :  -0.1192
B(  6-N , 10-C ) :   0.1025 B(  6-N , 14-C ) :   1.0954 B(  6-N , 16-C ) :   0.9806
B(  6-N , 28-H ) :   1.0712 B(  7-N , 11-C ) :   0.1304 B(  7-N , 15-C ) :   0.9799
B(  7-N , 17-C ) :   0.9547 B(  7-N , 29-H ) :   1.0953 B(  8-C , 10-C ) :  -0.3661
B(  8-C , 12-C ) :   0.6325 B(  8-C , 14-C ) :   0.6998 B(  8-C , 16-C ) :   0.1249
B(  8-C , 18-H ) :  -0.1874 B(  8-C , 20-H ) :  -0.1121 B(  9-C , 11-C ) :   0.2826
B(  9-C , 13-C ) :   0.5580 B(  9-C , 15-C ) :   0.2335 B(  9-C , 25-H ) :  -0.1040
B( 10-C , 11-C ) :   0.7268 B( 10-C , 16-C ) :  -0.1215 B( 10-C , 18-H ) :   0.8324
B( 11-C , 15-C ) :   0.1241 B( 11-C , 17-C ) :  -0.1885 B( 11-C , 19-H ) :   0.7058
B( 12-C , 20-H ) :   0.9849 B( 12-C , 21-H ) :   0.9600 B( 12-C , 22-H ) :   0.9454
B( 13-C , 23-H ) :   0.9398 B( 13-C , 24-H ) :   0.7707 B( 13-C , 25-H ) :   1.0346
B( 15-C , 17-C ) :  -0.1122

Dispersion correction           -0.057234999
FINAL SINGLE POINT ENERGY      -908.783468692541

DIPOLE MOMENT
-------------

Method             : TDA/CIS
Type of density    : Electron Density
Level              : Relaxed density
State              :   1
Multiplicity       :   3
Irrep              :   0
Energy             :     0.0000000000000000 Eh
Relativity type    :
Basis              : AO
                                X                 Y                 Z
Electronic contribution:     -2.627001173     -10.340623811      -7.185640696
Nuclear contribution   :      2.525406620      11.992292582      10.159086498
                        -----------------------------------------
Total Dipole Moment    :     -0.101594552       1.651668771       2.973445802
                        -----------------------------------------
Magnitude (a.u.)       :      3.402897459
Magnitude (Debye)      :      8.649477956

Rotational constants in cm-1:             0.018615             0.014900             0.011850
Rotational constants in MHz :           558.071403           446.682526           355.244733

                             ****ORCA TERMINATED NORMALLY****
TOTAL RUN TIME: 0 days 0 hours 4 minutes 32 seconds 564 msec
