                         Program Version 6.0.0  -   RELEASE  -
|  1> ! Engrad def2-TZVPPD wB97M-D3BJ
|  2> %pal nprocs 8 end%pal nprocs 64 end
|  3>  %tddft nroots 2 Iroot 1
|  4> sf true
|  5> end
|  6> *xyz 0 3
|  7> O   2.57391985378839 1.17539192344165 -0.51793308304332
|  8> O   -0.61741297593929 0.85636942150997 -2.28274929910531
|  9> O   0.60885273778066 -2.79314488530621 -1.52620153528052
| 10> O   -2.49069870943825 -1.62849542469324 1.02858156122025
| 11> N   0.62244153413618 -2.10531757281336 0.64448097302873
| 12> N   -2.00310499775491 0.55705862838353 1.43799368926698
| 13> N   1.68610545019663 -0.85857058320489 -0.97514395527358
| 14> N   -1.61898576900091 -0.33974837345907 -0.64243884075709
| 15> C   1.46038700147991 0.04564598992341 1.24454224935899
| 16> C   -0.87107316150821 1.9062320000521 -0.1670218717158
| 17> C   0.83039381175268 -1.09471029569725 1.55352332186706
| 18> C   -1.40505398259737 1.73443238417498 1.04660385070167
| 19> C   1.72122197431814 1.14627029876202 2.22027161699737
| 20> C   -0.18353292311222 3.15668367766678 -0.61036153760931
| 21> C   1.96621073016732 0.20417327929302 -0.11926498833868
| 22> C   -1.00419717989303 0.81649263022928 -1.13660242259988
| 23> C   0.94781789403997 -1.98644857431247 -0.68974117117665
| 24> C   -2.07538542735432 -0.55774003497661 0.63539437627362
| 25> H   0.44012472959395 -1.28625421977416 2.54168530868013
| 26> H   -1.37407556389757 2.5055128540503 1.8012543306458
| 27> H   1.35592652165173 2.09426842330034 1.83050292305983
| 28> H   1.23726908116783 0.94158337931623 3.17306580327959
| 29> H   2.78947402513264 1.26786454825355 2.39077243774483
| 30> H   -0.66454842715695 3.56383047071209 -1.49730741327549
| 31> H   -0.2025256685826 3.90640474135593 0.17760801050587
| 32> H   0.8514480357816 2.94234595292109 -0.86961335438813
| 33> H   -0.01804008235998 -2.84972667094353 0.86197897251858
| 34> H   -2.3500598523816 0.43822810556483 2.37215520057242
| 35> H   1.90270939239088 -0.71511006323784 -1.94966237137139
| 36> H   -1.66300805240129 -1.1285220104925 -1.27177278178659
| 37> *
| 38>
| 39>                          ****END OF INPUT****

CARTESIAN COORDINATES (ANGSTROEM)
---------------------------------
  O      2.573920    1.175392   -0.517933
  O     -0.617413    0.856369   -2.282749
  O      0.608853   -2.793145   -1.526202
  O     -2.490699   -1.628495    1.028582
  N      0.622442   -2.105318    0.644481
  N     -2.003105    0.557059    1.437994
  N      1.686105   -0.858571   -0.975144
  N     -1.618986   -0.339748   -0.642439
  C      1.460387    0.045646    1.244542
  C     -0.871073    1.906232   -0.167022
  C      0.830394   -1.094710    1.553523
  C     -1.405054    1.734432    1.046604
  C      1.721222    1.146270    2.220272
  C     -0.183533    3.156684   -0.610362
  C      1.966211    0.204173   -0.119265
  C     -1.004197    0.816493   -1.136602
  C      0.947818   -1.986449   -0.689741
  C     -2.075385   -0.557740    0.635394
  H      0.440125   -1.286254    2.541685
  H     -1.374076    2.505513    1.801254
  H      1.355927    2.094268    1.830503
  H      1.237269    0.941583    3.173066
  H      2.789474    1.267865    2.390772
  H     -0.664548    3.563830   -1.497307
  H     -0.202526    3.906405    0.177608
  H      0.851448    2.942346   -0.869613
  H     -0.018040   -2.849727    0.861979
  H     -2.350060    0.438228    2.372155
  H      1.902709   -0.715110   -1.949662
  H     -1.663008   -1.128522   -1.271773

 Total Charge           Charge          ....    0
 Multiplicity           Mult            ....    3
 Number of Electrons    NEL             ....  132
 Basis Dimension        Dim             ....  882

ORBITAL ENERGIES
----------------
                 SPIN UP ORBITALS
  NO   OCC          E(Eh)            E(eV)
   0   1.0000     -19.340319      -526.2768
   1   1.0000     -19.320890      -525.7481
   2   1.0000     -19.320083      -525.7262
   3   1.0000     -19.318536      -525.6841
   4   1.0000     -14.600150      -397.2903
   5   1.0000     -14.574959      -396.6048
   6   1.0000     -14.562589      -396.2682
   7   1.0000     -14.556129      -396.0924
   8   1.0000     -10.517865      -286.2057
   9   1.0000     -10.505269      -285.8629
  10   1.0000     -10.475516      -285.0533
  11   1.0000     -10.459095      -284.6064
  12   1.0000     -10.430024      -283.8154
  13   1.0000     -10.409438      -283.2552
  14   1.0000     -10.403566      -283.0954
  15   1.0000     -10.378663      -282.4178
  16   1.0000     -10.361970      -281.9636
  17   1.0000     -10.360797      -281.9316
  18   1.0000      -1.233306       -33.5600
  19   1.0000      -1.218840       -33.1663
  20   1.0000      -1.193302       -32.4714
  21   1.0000      -1.189042       -32.3555
  22   1.0000      -1.131486       -30.7893
  23   1.0000      -1.116311       -30.3764
  24   1.0000      -1.066309       -29.0157
  25   1.0000      -1.063271       -28.9331
  26   1.0000      -0.977811       -26.6076
  27   1.0000      -0.955564       -26.0022
  28   1.0000      -0.857061       -23.3218
  29   1.0000      -0.847697       -23.0670
  30   1.0000      -0.813554       -22.1379
  31   1.0000      -0.807196       -21.9649
  32   1.0000      -0.795250       -21.6398
  33   1.0000      -0.787350       -21.4249
  34   1.0000      -0.705980       -19.2107
  35   1.0000      -0.695510       -18.9258
  36   1.0000      -0.691084       -18.8054
  37   1.0000      -0.687263       -18.7014
  38   1.0000      -0.644201       -17.5296
  39   1.0000      -0.636215       -17.3123
  40   1.0000      -0.634561       -17.2673
  41   1.0000      -0.600240       -16.3334
  42   1.0000      -0.599665       -16.3177
  43   1.0000      -0.592066       -16.1109
  44   1.0000      -0.576453       -15.6861
  45   1.0000      -0.574553       -15.6344
  46   1.0000      -0.559875       -15.2350
  47   1.0000      -0.551338       -15.0027
  48   1.0000      -0.550049       -14.9676
  49   1.0000      -0.548637       -14.9292
  50   1.0000      -0.529434       -14.4066
  51   1.0000      -0.525879       -14.3099
  52   1.0000      -0.519170       -14.1273
  53   1.0000      -0.516218       -14.0470
  54   1.0000      -0.505710       -13.7611
  55   1.0000      -0.503906       -13.7120
  56   1.0000      -0.498457       -13.5637
  57   1.0000      -0.472421       -12.8552
  58   1.0000      -0.427587       -11.6352
  59   1.0000      -0.412611       -11.2277
  60   1.0000      -0.410613       -11.1734
  61   1.0000      -0.395725       -10.7682
  62   1.0000      -0.392094       -10.6694
  63   1.0000      -0.388806       -10.5800
  64   1.0000      -0.383171       -10.4266
  65   1.0000      -0.344551        -9.3757
  66   1.0000      -0.212495        -5.7823
  67   0.0000       0.011809         0.3213
  68   0.0000       0.022130         0.6022
  69   0.0000       0.033857         0.9213
  70   0.0000       0.039457         1.0737
  71   0.0000       0.041077         1.1178

                 SPIN DOWN ORBITALS
  NO   OCC          E(Eh)            E(eV)
   0   1.0000     -19.338501      -526.2274
   1   1.0000     -19.320055      -525.7254
   2   1.0000     -19.318515      -525.6835
   3   1.0000     -19.314566      -525.5761
   4   1.0000     -14.595441      -397.1622
   5   1.0000     -14.574867      -396.6023
   6   1.0000     -14.562597      -396.2684
   7   1.0000     -14.555174      -396.0664
   8   1.0000     -10.518192      -286.2146
   9   1.0000     -10.505274      -285.8630
  10   1.0000     -10.475511      -285.0531
  11   1.0000     -10.458660      -284.5946
  12   1.0000     -10.429867      -283.8111
  13   1.0000     -10.400085      -283.0007
  14   1.0000     -10.393051      -282.8093
  15   1.0000     -10.378699      -282.4188
  16   1.0000     -10.362360      -281.9742
  17   1.0000     -10.360692      -281.9288
  18   1.0000      -1.229229       -33.4490
  19   1.0000      -1.218692       -33.1623
  20   1.0000      -1.189263       -32.3615
  21   1.0000      -1.183632       -32.2083
  22   1.0000      -1.120920       -30.5018
  23   1.0000      -1.116137       -30.3716
  24   1.0000      -1.063289       -28.9336
  25   1.0000      -1.060819       -28.8664
  26   1.0000      -0.956942       -26.0397
  27   1.0000      -0.951381       -25.8884
  28   1.0000      -0.847651       -23.0658
  29   1.0000      -0.845504       -23.0073
  30   1.0000      -0.807585       -21.9755
  31   1.0000      -0.803120       -21.8540
  32   1.0000      -0.788087       -21.4449
  33   1.0000      -0.787093       -21.4179
  34   1.0000      -0.694238       -18.8912
  35   1.0000      -0.691044       -18.8043
  36   1.0000      -0.687471       -18.7071
  37   1.0000      -0.686966       -18.6933
  38   1.0000      -0.636372       -17.3166
  39   1.0000      -0.632622       -17.2145
  40   1.0000      -0.627959       -17.0876
  41   1.0000      -0.593440       -16.1483
  42   1.0000      -0.591733       -16.1019
  43   1.0000      -0.589554       -16.0426
  44   1.0000      -0.569221       -15.4893
  45   1.0000      -0.561462       -15.2781
  46   1.0000      -0.558408       -15.1950
  47   1.0000      -0.549054       -14.9405
  48   1.0000      -0.543908       -14.8005
  49   1.0000      -0.537040       -14.6136
  50   1.0000      -0.520418       -14.1613
  51   1.0000      -0.519144       -14.1266
  52   1.0000      -0.515316       -14.0224
  53   1.0000      -0.505313       -13.7503
  54   1.0000      -0.503977       -13.7139
  55   1.0000      -0.500534       -13.6202
  56   1.0000      -0.471815       -12.8387
  57   1.0000      -0.454849       -12.3771
  58   1.0000      -0.423508       -11.5242
  59   1.0000      -0.411638       -11.2012
  60   1.0000      -0.396171       -10.7804
  61   1.0000      -0.386549       -10.5185
  62   1.0000      -0.383331       -10.4310
  63   1.0000      -0.380355       -10.3500
  64   1.0000      -0.343459        -9.3460
  65   0.0000      -0.109421        -2.9775
  66   0.0000       0.011454         0.3117
  67   0.0000       0.023836         0.6486
  68   0.0000       0.032034         0.8717
  69   0.0000       0.037524         1.0211

----------------------------------------------------------------------------------------------------
          SPIN FLIP ABSORPTION SPECTRUM VIA TRANSITION ELECTRIC DIPOLE MOMENTS
----------------------------------------------------------------------------------------------------
     Transition      Energy     Energy  Wavelength fosc(D2)      D2        DX        DY        DZ
                      (eV)      (cm-1)    (nm)                 (au**2)    (au)      (au)      (au)
----------------------------------------------------------------------------------------------------
  1-3A  ->  2-3A    4.241970   34213.8   292.3   0.001466314   0.01411  -0.03735   0.04280   0.10432

Dispersion correction             ... done (  0.1 sec)

MULLIKEN ATOMIC CHARGES AND SPIN DENSITIES
------------------------------------------
   0 O :   -0.678011   -0.001029
   1 O :   -0.670057    0.039136
   2 O :   -0.645494   -0.000141
   3 O :   -0.664934    0.006468
   4 N :   -0.055725   -0.001152
   5 N :    0.029957    0.056518
   6 N :    0.038142    0.000359
   7 N :    0.038952    0.006026
   8 C :    0.822310    0.003596
   9 C :    0.956717    0.564228
  10 C :    0.099213    0.015420
  11 C :   -0.174590   -0.394960
  12 C :   -1.471438   -0.006783
  13 C :   -1.455665   -0.043467
  14 C :    0.306155   -0.018294
  15 C :    0.308141   -0.325088
  16 C :    0.363199    0.002206
  17 C :    0.460617    0.015241
  18 H :    0.167704    0.000313
  19 H :    0.186782    0.040694
  20 H :    0.223080    0.000841
  21 H :    0.336669    0.001691
  22 H :    0.371292   -0.000576
  23 H :    0.376398    0.001776
  24 H :    0.331078    0.011804
  25 H :    0.242225    0.023100
  26 H :    0.064648   -0.000216
  27 H :    0.023671   -0.000193
  28 H :    0.036593    0.000390
  29 H :    0.032372    0.002094
Sum of atomic charges       :   -0.0000000

LOEWDIN ATOMIC CHARGES AND SPIN DENSITIES
-----------------------------------------
   0 O :    0.089894    0.000567
   1 O :    0.094309    0.030745
   2 O :    0.086532   -0.000138
   3 O :    0.076832    0.005430
   4 N :    0.277565   -0.000430
   5 N :    0.293685    0.024527
   6 N :    0.344318    0.000301
   7 N :    0.344393   -0.000250
   8 C :   -0.141541   -0.000483
   9 C :   -0.137853   -0.037255
  10 C :    0.042861   -0.000892
  11 C :    0.050979   -0.029178
  12 C :    0.176543   -0.000799
  13 C :    0.183036   -0.003486
  14 C :   -0.397714    0.000276
  15 C :   -0.405973    0.010224
  16 C :   -0.485695   -0.000075
  17 C :   -0.486454    0.000212
  18 H :    0.040160   -0.000095
  19 H :    0.037577   -0.001374
  20 H :   -0.015750   -0.000271
  21 H :   -0.005291    0.000022
  22 H :    0.003153   -0.000052
  23 H :    0.002560   -0.000187
  24 H :   -0.005005    0.000307
  25 H :   -0.014054   -0.000247
  26 H :   -0.021690   -0.000031
  27 H :   -0.016800    0.002378
  28 H :   -0.002413    0.000116
  29 H :   -0.008161    0.000138

  Mayer bond orders larger than 0.100000
B(  0-O , 14-C ) :   1.4569 B(  1-O , 15-C ) :   1.4143 B(  2-O , 16-C ) :   1.5685
B(  3-O , 17-C ) :   1.5362 B(  4-N , 10-C ) :   0.8431 B(  4-N , 16-C ) :   1.0072
B(  4-N , 26-H ) :   1.1103 B(  5-N , 11-C ) :   0.9576 B(  5-N , 17-C ) :   1.0232
B(  5-N , 27-H ) :   1.1301 B(  6-N , 14-C ) :   1.0207 B(  6-N , 16-C ) :   0.9118
B(  6-N , 28-H ) :   1.0999 B(  7-N , 15-C ) :   0.9406 B(  7-N , 17-C ) :   0.9502
B(  7-N , 29-H ) :   1.1215 B(  8-C , 10-C ) :   1.0919 B(  8-C , 12-C ) :   0.3389
B(  8-C , 14-C ) :   0.7384 B(  9-C , 11-C ) :   1.1585 B(  9-C , 13-C ) :   0.3188
B(  9-C , 15-C ) :   0.6515 B(  9-C , 17-C ) :   0.1018 B(  9-C , 24-H ) :  -0.1087
B( 10-C , 12-C ) :  -0.1580 B( 10-C , 18-H ) :   1.1253 B( 11-C , 13-C ) :  -0.2074
B( 11-C , 15-C ) :   0.1280 B( 11-C , 19-H ) :   1.0978 B( 12-C , 20-H ) :   1.0196
B( 12-C , 21-H ) :   1.0127 B( 12-C , 22-H ) :   0.9023 B( 13-C , 23-H ) :   0.8827
B( 13-C , 24-H ) :   1.0379 B( 13-C , 25-H ) :   0.9774

Dispersion correction           -0.059707536
FINAL SINGLE POINT ENERGY      -908.927670240997

DIPOLE MOMENT
-------------

Method             : TDA/CIS
Type of density    : Electron Density
Level              : Relaxed density
State              :   1
Multiplicity       :   3
Irrep              :   0
Energy             :     0.0000000000000000 Eh
Relativity type    :
Basis              : AO
                                X                 Y                 Z
Electronic contribution:     -2.716756303     -10.038968558      -5.782805577
Nuclear contribution   :      2.076258971      10.926787058       8.422056144
                        -----------------------------------------
Total Dipole Moment    :     -0.640497332       0.887818499       2.639250567
                        -----------------------------------------
Magnitude (a.u.)       :      2.857289288
Magnitude (Debye)      :      7.262652197

Rotational constants in cm-1:             0.017246             0.016329             0.013554
Rotational constants in MHz :           517.016932           489.517787           406.338014

                             ****ORCA TERMINATED NORMALLY****
TOTAL RUN TIME: 0 days 0 hours 6 minutes 39 seconds 115 msec
