                         Program Version 6.0.0  -   RELEASE  -
|  1> ! Engrad def2-TZVPPD wB97M-D3BJ
|  2> %pal nprocs 8 end%pal nprocs 64 end
|  3> %tddft
|  4>  Iroot 1 Nroots 3
|  5> sf true
|  6> end
|  7> *xyz 0 3
|  8> O   3.01659222 -0.89172976 -1.81392376
|  9> O   -1.6735808 1.0855834 -2.03139096
| 10> O   -0.96689652 -2.77889789 -0.70889288
| 11> O   -3.09276409 -0.06152237 2.12330924
| 12> N   0.11205046 -1.43293664 0.83351729
| 13> N   -1.04989672 0.9777657 1.91690583
| 14> N   0.80112778 -1.43611935 -1.3725535
| 15> N   -2.41848003 0.78237819 0.07043693
| 16> C   2.15547212 -0.32501898 0.2488995
| 17> C   -0.18636697 1.52529585 -0.28155225
| 18> C   0.96953937 -0.33680876 1.11478652
| 19> C   0.13385088 1.06155255 1.05099073
| 20> C   3.4436675 0.19286948 0.66527141
| 21> C   0.70777721 2.33242506 -1.15180507
| 22> C   2.06655496 -0.94550267 -1.08019884
| 23> C   -1.47786841 1.12720874 -0.83917664
| 24> C   -0.15497933 -1.96579425 -0.41061223
| 25> C   -2.2333943 0.49628251 1.43345145
| 26> H   1.27507769 -0.31239229 2.15812797
| 27> H   0.81557049 1.73471371 1.57855285
| 28> H   4.35357778 -0.37623677 0.44646294
| 29> H   3.73102869 1.0838051 0.0364704
| 30> H   3.42740852 0.5548048 1.6679602
| 31> H   0.78339452 1.91568525 -2.11215643
| 32> H   0.34228112 3.34213072 -1.37308917
| 33> H   1.67590007 2.46785333 -0.64778473
| 34> H   -0.70725551 -1.51470844 1.50215214
| 35> H   -0.90184322 0.80278894 2.91861773
| 36> H   0.67622428 -1.78000336 -2.28562622
| 37> H   -3.20482316 0.25789647 -0.35358088
| 38> *
| 39>
| 40>                          ****END OF INPUT****

CARTESIAN COORDINATES (ANGSTROEM)
---------------------------------
  O      3.016592   -0.891730   -1.813924
  O     -1.673581    1.085583   -2.031391
  O     -0.966897   -2.778898   -0.708893
  O     -3.092764   -0.061522    2.123309
  N      0.112050   -1.432937    0.833517
  N     -1.049897    0.977766    1.916906
  N      0.801128   -1.436119   -1.372553
  N     -2.418480    0.782378    0.070437
  C      2.155472   -0.325019    0.248899
  C     -0.186367    1.525296   -0.281552
  C      0.969539   -0.336809    1.114787
  C      0.133851    1.061553    1.050991
  C      3.443668    0.192869    0.665271
  C      0.707777    2.332425   -1.151805
  C      2.066555   -0.945503   -1.080199
  C     -1.477868    1.127209   -0.839177
  C     -0.154979   -1.965794   -0.410612
  C     -2.233394    0.496283    1.433451
  H      1.275078   -0.312392    2.158128
  H      0.815570    1.734714    1.578553
  H      4.353578   -0.376237    0.446463
  H      3.731029    1.083805    0.036470
  H      3.427409    0.554805    1.667960
  H      0.783395    1.915685   -2.112156
  H      0.342281    3.342131   -1.373089
  H      1.675900    2.467853   -0.647785
  H     -0.707256   -1.514708    1.502152
  H     -0.901843    0.802789    2.918618
  H      0.676224   -1.780003   -2.285626
  H     -3.204823    0.257896   -0.353581

 Total Charge           Charge          ....    0
 Multiplicity           Mult            ....    3
 Number of Electrons    NEL             ....  132
 Basis Dimension        Dim             ....  882

ORBITAL ENERGIES
----------------
                 SPIN UP ORBITALS
  NO   OCC          E(Eh)            E(eV)
   0   1.0000     -19.337432      -526.1983
   1   1.0000     -19.332621      -526.0673
   2   1.0000     -19.331857      -526.0466
   3   1.0000     -19.329868      -525.9925
   4   1.0000     -14.572644      -396.5418
   5   1.0000     -14.568807      -396.4374
   6   1.0000     -14.568560      -396.4307
   7   1.0000     -14.556367      -396.0989
   8   1.0000     -10.517420      -286.1935
   9   1.0000     -10.516735      -286.1749
  10   1.0000     -10.477087      -285.0960
  11   1.0000     -10.475556      -285.0544
  12   1.0000     -10.445051      -284.2243
  13   1.0000     -10.444883      -284.2197
  14   1.0000     -10.409905      -283.2679
  15   1.0000     -10.409715      -283.2628
  16   1.0000     -10.373043      -282.2648
  17   1.0000     -10.367311      -282.1089
  18   1.0000      -1.229587       -33.4588
  19   1.0000      -1.220898       -33.2223
  20   1.0000      -1.206050       -32.8183
  21   1.0000      -1.197396       -32.5828
  22   1.0000      -1.126997       -30.6671
  23   1.0000      -1.105810       -30.0906
  24   1.0000      -1.069144       -29.0929
  25   1.0000      -1.054470       -28.6936
  26   1.0000      -0.983155       -26.7530
  27   1.0000      -0.957796       -26.0630
  28   1.0000      -0.889712       -24.2103
  29   1.0000      -0.847360       -23.0578
  30   1.0000      -0.823357       -22.4047
  31   1.0000      -0.801143       -21.8002
  32   1.0000      -0.794962       -21.6320
  33   1.0000      -0.775129       -21.0923
  34   1.0000      -0.696454       -18.9515
  35   1.0000      -0.693255       -18.8644
  36   1.0000      -0.688967       -18.7477
  37   1.0000      -0.682392       -18.5688
  38   1.0000      -0.657695       -17.8968
  39   1.0000      -0.639231       -17.3944
  40   1.0000      -0.622088       -16.9279
  41   1.0000      -0.599706       -16.3188
  42   1.0000      -0.594253       -16.1705
  43   1.0000      -0.589903       -16.0521
  44   1.0000      -0.576451       -15.6860
  45   1.0000      -0.573993       -15.6191
  46   1.0000      -0.569771       -15.5043
  47   1.0000      -0.564955       -15.3732
  48   1.0000      -0.559683       -15.2298
  49   1.0000      -0.558099       -15.1867
  50   1.0000      -0.550847       -14.9893
  51   1.0000      -0.540813       -14.7163
  52   1.0000      -0.536026       -14.5860
  53   1.0000      -0.518238       -14.1020
  54   1.0000      -0.514813       -14.0088
  55   1.0000      -0.506643       -13.7865
  56   1.0000      -0.501559       -13.6481
  57   1.0000      -0.432407       -11.7664
  58   1.0000      -0.428839       -11.6693
  59   1.0000      -0.412211       -11.2168
  60   1.0000      -0.409718       -11.1490
  61   1.0000      -0.404928       -11.0186
  62   1.0000      -0.397911       -10.8277
  63   1.0000      -0.393026       -10.6948
  64   1.0000      -0.387979       -10.5574
  65   1.0000      -0.341913        -9.3039
  66   1.0000      -0.313727        -8.5370
  67   0.0000       0.005798         0.1578
  68   0.0000       0.029543         0.8039
  69   0.0000       0.033856         0.9213
  70   0.0000       0.036714         0.9990
  71   0.0000       0.055704         1.5158

                 SPIN DOWN ORBITALS
  NO   OCC          E(Eh)            E(eV)
   0   1.0000     -19.337301      -526.1947
   1   1.0000     -19.331769      -526.0442
   2   1.0000     -19.329180      -525.9737
   3   1.0000     -19.326479      -525.9002
   4   1.0000     -14.572216      -396.5302
   5   1.0000     -14.568531      -396.4299
   6   1.0000     -14.568016      -396.4159
   7   1.0000     -14.555566      -396.0771
   8   1.0000     -10.517465      -286.1948
   9   1.0000     -10.516779      -286.1761
  10   1.0000     -10.477977      -285.1202
  11   1.0000     -10.476446      -285.0786
  12   1.0000     -10.444346      -284.2051
  13   1.0000     -10.444261      -284.2028
  14   1.0000     -10.398518      -282.9581
  15   1.0000     -10.398452      -282.9563
  16   1.0000     -10.373716      -282.2832
  17   1.0000     -10.367829      -282.1230
  18   1.0000      -1.228789       -33.4370
  19   1.0000      -1.218795       -33.1651
  20   1.0000      -1.201201       -32.6863
  21   1.0000      -1.194149       -32.4944
  22   1.0000      -1.124375       -30.5958
  23   1.0000      -1.103751       -30.0346
  24   1.0000      -1.067305       -29.0429
  25   1.0000      -1.052788       -28.6478
  26   1.0000      -0.969617       -26.3846
  27   1.0000      -0.940786       -25.6001
  28   1.0000      -0.883922       -24.0528
  29   1.0000      -0.842644       -22.9295
  30   1.0000      -0.814541       -22.1648
  31   1.0000      -0.796332       -21.6693
  32   1.0000      -0.792620       -21.5683
  33   1.0000      -0.773219       -21.0403
  34   1.0000      -0.692209       -18.8360
  35   1.0000      -0.687720       -18.7138
  36   1.0000      -0.681643       -18.5484
  37   1.0000      -0.675191       -18.3729
  38   1.0000      -0.645815       -17.5735
  39   1.0000      -0.634344       -17.2614
  40   1.0000      -0.616546       -16.7771
  41   1.0000      -0.595857       -16.2141
  42   1.0000      -0.589927       -16.0527
  43   1.0000      -0.585566       -15.9341
  44   1.0000      -0.573476       -15.6051
  45   1.0000      -0.569946       -15.5090
  46   1.0000      -0.563053       -15.3214
  47   1.0000      -0.556487       -15.1428
  48   1.0000      -0.549004       -14.9391
  49   1.0000      -0.547271       -14.8920
  50   1.0000      -0.542554       -14.7636
  51   1.0000      -0.533148       -14.5077
  52   1.0000      -0.527043       -14.3416
  53   1.0000      -0.510633       -13.8950
  54   1.0000      -0.509885       -13.8747
  55   1.0000      -0.499623       -13.5954
  56   1.0000      -0.494144       -13.4463
  57   1.0000      -0.429457       -11.6861
  58   1.0000      -0.424106       -11.5405
  59   1.0000      -0.409060       -11.1311
  60   1.0000      -0.400376       -10.8948
  61   1.0000      -0.393434       -10.7059
  62   1.0000      -0.390857       -10.6358
  63   1.0000      -0.387632       -10.5480
  64   1.0000      -0.376803       -10.2533
  65   0.0000      -0.059203        -1.6110
  66   0.0000      -0.041693        -1.1345
  67   0.0000       0.005314         0.1446
  68   0.0000       0.029033         0.7900
  69   0.0000       0.033735         0.9180

----------------------------------------------------------------------------------------------------
          SPIN FLIP ABSORPTION SPECTRUM VIA TRANSITION ELECTRIC DIPOLE MOMENTS
----------------------------------------------------------------------------------------------------
     Transition      Energy     Energy  Wavelength fosc(D2)      D2        DX        DY        DZ
                      (eV)      (cm-1)    (nm)                 (au**2)    (au)      (au)      (au)
----------------------------------------------------------------------------------------------------
  1-3A  ->  2-3A    0.111128     896.3  11156.9   0.000028214   0.01036   0.08716  -0.05024  -0.01554
  1-3A  ->  3-1A    2.359852   19033.5   525.4   0.039985359   0.69160  -0.75781   0.33832   0.05362

Dispersion correction             ... done (  0.1 sec)

MULLIKEN ATOMIC CHARGES AND SPIN DENSITIES
------------------------------------------
   0 O :   -0.673326   -0.032118
   1 O :   -0.663037    0.030677
   2 O :   -0.593171   -0.000849
   3 O :   -0.640301   -0.001172
   4 N :   -0.301679   -0.012616
   5 N :   -0.249823    0.002644
   6 N :    0.108156   -0.009163
   7 N :   -0.075973    0.004231
   8 C :    0.397486    0.306674
   9 C :    0.166257    0.363501
  10 C :    0.187689   -0.285349
  11 C :    0.583656   -0.163229
  12 C :   -1.294361   -0.005023
  13 C :   -1.396621    0.014440
  14 C :    0.209457   -0.168875
  15 C :    0.206989   -0.081436
  16 C :    0.368682    0.010557
  17 C :    0.363354    0.007297
  18 H :    0.594049   -0.007455
  19 H :    0.398702   -0.000635
  20 H :    0.318654   -0.010554
  21 H :    0.268943    0.004265
  22 H :    0.354176    0.004179
  23 H :    0.313251    0.012264
  24 H :    0.370686    0.009763
  25 H :    0.294882   -0.000686
  26 H :    0.150851    0.001428
  27 H :    0.129100    0.000991
  28 H :    0.004955    0.004671
  29 H :    0.098315    0.001579
Sum of atomic charges       :   -0.0000000

LOEWDIN ATOMIC CHARGES AND SPIN DENSITIES
-----------------------------------------
   0 O :    0.098409   -0.026733
   1 O :    0.100441    0.026890
   2 O :    0.130871   -0.000913
   3 O :    0.064721   -0.001245
   4 N :    0.257542   -0.002877
   5 N :    0.265079   -0.000911
   6 N :    0.356091   -0.005373
   7 N :    0.316542    0.004257
   8 C :   -0.050209   -0.109965
   9 C :   -0.033215    0.130376
  10 C :   -0.116407   -0.008959
  11 C :   -0.101376    0.003928
  12 C :    0.169143   -0.021273
  13 C :    0.213707    0.019142
  14 C :   -0.425118   -0.020964
  15 C :   -0.450698    0.016889
  16 C :   -0.446941   -0.000355
  17 C :   -0.474115   -0.000778
  18 H :    0.051890   -0.001251
  19 H :    0.054567    0.001602
  20 H :    0.017130   -0.004761
  21 H :    0.032858   -0.007375
  22 H :   -0.020157    0.000343
  23 H :   -0.024770    0.004405
  24 H :    0.021420    0.006858
  25 H :    0.003985   -0.000585
  26 H :    0.018374   -0.000239
  27 H :   -0.004427   -0.000033
  28 H :   -0.048985   -0.000461
  29 H :    0.023648    0.000362

  Mayer bond orders larger than 0.100000
B(  0-O , 14-C ) :   1.4050 B(  1-O , 15-C ) :   1.4527 B(  2-O , 16-C ) :   1.6041
B(  3-O , 17-C ) :   1.5709 B(  4-N ,  8-C ) :   0.2448 B(  4-N ,  9-C ) :   0.1077
B(  4-N , 10-C ) :   0.2173 B(  4-N , 16-C ) :   1.0288 B(  4-N , 26-H ) :   0.9727
B(  5-N ,  9-C ) :   0.2391 B(  5-N , 10-C ) :   0.1507 B(  5-N , 11-C ) :   0.1059
B(  5-N , 17-C ) :   1.1332 B(  5-N , 27-H ) :   1.0059 B(  6-N ,  8-C ) :  -0.1270
B(  6-N , 10-C ) :   0.2428 B(  6-N , 11-C ) :  -0.1130 B(  6-N , 14-C ) :   1.0802
B(  6-N , 16-C ) :   0.9136 B(  6-N , 28-H ) :   1.1006 B(  7-N , 15-C ) :   0.9873
B(  7-N , 17-C ) :   0.9358 B(  7-N , 29-H ) :   1.0375 B(  8-C ,  9-C ) :   0.2272
B(  8-C , 10-C ) :   0.5303 B(  8-C , 11-C ) :   0.2909 B(  8-C , 12-C ) :   0.2686
B(  8-C , 14-C ) :   0.6883 B(  8-C , 16-C ) :   0.1208 B(  8-C , 18-H ) :  -0.2052
B(  8-C , 22-H ) :  -0.1473 B(  9-C , 10-C ) :   0.1964 B(  9-C , 11-C ) :   0.2210
B(  9-C , 13-C ) :   0.4385 B(  9-C , 15-C ) :   0.6751 B(  9-C , 19-H ) :  -0.2752
B(  9-C , 25-H ) :  -0.1173 B( 10-C , 11-C ) :   0.2077 B( 10-C , 16-C ) :  -0.1900
B( 10-C , 18-H ) :   0.7360 B( 11-C , 13-C ) :  -0.1043 B( 11-C , 15-C ) :  -0.1237
B( 11-C , 17-C ) :  -0.1170 B( 11-C , 19-H ) :   1.1090 B( 12-C , 20-H ) :   0.9036
B( 12-C , 21-H ) :   0.8752 B( 12-C , 22-H ) :   1.0326 B( 13-C , 23-H ) :   0.9699
B( 13-C , 24-H ) :   0.8529 B( 13-C , 25-H ) :   0.9599

Dispersion correction           -0.058889999
FINAL SINGLE POINT ENERGY      -908.785778801025

DIPOLE MOMENT
-------------

Method             : TDA/CIS
Type of density    : Electron Density
Level              : Relaxed density
State              :   1
Multiplicity       :   3
Irrep              :   0
Energy             :     0.0000000000000000 Eh
Relativity type    :
Basis              : AO
                                X                 Y                 Z
Electronic contribution:     -9.962312709      -6.727355140      -1.806277989
Nuclear contribution   :     11.532108789       8.149263000       3.560701331
                        -----------------------------------------
Total Dipole Moment    :      1.569796080       1.421907860       1.754423343
                        -----------------------------------------
Magnitude (a.u.)       :      2.750287796
Magnitude (Debye)      :      6.990676019

Rotational constants in cm-1:             0.021552             0.012673             0.012090
Rotational constants in MHz :           646.117599           379.924516           362.439178

                             ****ORCA TERMINATED NORMALLY****
TOTAL RUN TIME: 0 days 0 hours 4 minutes 50 seconds 582 msec
