                         Program Version 6.0.0  -   RELEASE  -
|  1> ! opt def2-TZVPPD wB97M-D3BJ
|  2> %pal nprocs 8 end%pal nprocs 32 end
|  3> %geom Constraints
|  4> {B 9 8 3.2 C}
|  5> {A 8 9 11 79.71428571428571 C}
|  6> end
|  7> MaxIter 300
|  8> end
|  9> *xyz 0 1
| 10> O   2.98579685529314 0.88758230159078 -0.86184571092411
| 11> O   -0.03983205397054 0.68929041702508 -2.10362336723772
| 12> O   0.93431434349854 -3.13274393337945 -0.68767288184107
| 13> O   -3.75829998830163 -0.84727300865116 -0.0472717177755
| 14> N   0.21184538946282 -1.54604804365365 0.7617588924445
| 15> N   -2.13631993928911 0.03188773433438 1.27350571071531
| 16> N   2.02598672506387 -1.14318467211666 -0.64531219127023
| 17> N   -1.91814233924584 0.03137116037665 -1.04498946748291
| 18> C   1.18097737274226 0.71693507080484 0.70173889017321
| 19> C   -0.20686880480777 1.27024627933494 0.21345042231937
| 20> C   0.41441080275909 -0.34173258966541 1.52336266615173
| 21> C   -0.82922175114212 0.58960593673968 1.44434972027296
| 22> C   1.92822011286806 1.69488653817281 1.5963734975385
| 23> C   -0.37809776891576 2.77134929626422 0.04819649358288
| 24> C   2.1403947470937 0.1972384729179 -0.35038567829864
| 25> C   -0.67361678962426 0.6214190571346 -1.0793014500539
| 26> C   1.04142578622994 -2.02697492875068 -0.21027082435993
| 27> C   -2.68467002550422 -0.30396816036989 0.07167054343891
| 28> H   0.80817443950001 -0.54572267081061 2.51895215321335
| 29> H   -0.83785272399001 1.27240685039143 2.28901317073582
| 30> H   2.31167340578204 2.52284411740894 1.00913016264629
| 31> H   1.28982602448342 2.08257620823614 2.38710022492991
| 32> H   2.77390820759972 1.19140411795486 2.06045858523949
| 33> H   -1.41857211141493 3.00964947214868 -0.16882755561625
| 34> H   -0.09065531563179 3.29799318042223 0.95389844358819
| 35> H   0.23426221611057 3.12492645074476 -0.77764887675592
| 36> H   -0.46772570547622 -2.21560145172536 1.0787081584806
| 37> H   -2.71769301149571 -0.17090724573546 2.06627440900372
| 38> H   2.60065167263658 -1.49057255715425 -1.3966820077142
| 39> H   -2.27169977231386 -0.32388339999036 -1.91951041514436
| 40> *
| 41>
| 42>                          ****END OF INPUT****
 Total Charge           Charge          ....    0
 Multiplicity           Mult            ....    1
 Number of Electrons    NEL             ....  132
Dispersion correction           -0.052443514
FINAL SINGLE POINT ENERGY      -908.612590475598
Dispersion correction             ... done (  0.0 sec)
Dispersion correction           -0.053159953
FINAL SINGLE POINT ENERGY      -908.645302403216
Dispersion correction             ... done (  0.0 sec)
Dispersion correction           -0.053915079
FINAL SINGLE POINT ENERGY      -908.666257019099
Dispersion correction             ... done (  0.0 sec)
FINAL SINGLE POINT ENERGY      -908.683153618334
FINAL SINGLE POINT ENERGY      -908.693118797040
FINAL SINGLE POINT ENERGY      -908.742272652705
FINAL SINGLE POINT ENERGY      -908.803337644503
FINAL SINGLE POINT ENERGY      -908.839408517522
FINAL SINGLE POINT ENERGY      -908.857018006823
FINAL SINGLE POINT ENERGY      -908.879042900913
FINAL SINGLE POINT ENERGY      -908.933409391466
FINAL SINGLE POINT ENERGY      -908.933668310428
FINAL SINGLE POINT ENERGY      -908.933844615021
FINAL SINGLE POINT ENERGY      -908.933981141943
FINAL SINGLE POINT ENERGY      -908.934060382690
FINAL SINGLE POINT ENERGY      -908.934089346110
FINAL SINGLE POINT ENERGY      -908.934101431284
Dispersion correction             ... done (  0.0 sec)
Dispersion correction           -0.060291024
FINAL SINGLE POINT ENERGY      -908.934105435699
Dispersion correction             ... done (  0.0 sec)
Dispersion correction           -0.060283133
FINAL SINGLE POINT ENERGY      -908.934106803552
Dispersion correction             ... done (  0.0 sec)
                    ***********************HURRAY********************

CARTESIAN COORDINATES (ANGSTROEM)
---------------------------------
  O      2.599808    1.156300   -0.519820
  O     -0.589905    0.871920   -2.279286
  O      0.643467   -2.823020   -1.507025
  O     -2.532666   -1.632771    0.976987
  N      0.596089   -2.089868    0.648461
  N     -2.000361    0.533696    1.428878
  N      1.703293   -0.875927   -0.966160
  N     -1.622169   -0.333585   -0.665097
  C      1.415274    0.074814    1.226650
  C     -0.835129    1.888847   -0.146294
  C      0.781324   -1.061521    1.542761
  C     -1.379535    1.706108    1.060973
  C      1.670858    1.184661    2.193449
  C     -0.130458    3.138323   -0.564946
  C      1.966806    0.200684   -0.122967
  C     -0.982777    0.819335   -1.135901
  C      0.957421   -1.998341   -0.678610
  C     -2.091973   -0.564621    0.605352
  H      0.369621   -1.235851    2.525349
  H     -1.340310    2.464018    1.828358
  H      1.362100    2.138015    1.770613
  H      1.135131    1.016622    3.125641
  H      2.733789    1.268344    2.413605
  H     -0.600513    3.564024   -1.449047
  H     -0.148938    3.876241    0.234223
  H      0.904426    2.918737   -0.819740
  H     -0.047963   -2.831563    0.864718
  H     -2.360458    0.407281    2.357061
  H      1.955940   -0.756137   -1.935041
  H     -1.679596   -1.109764   -1.308546

 Multiplicity           Mult            ....    1
 Number of Electrons    NEL             ....  132
 Basis Dimension        Dim             ....  882

ORBITAL ENERGIES
----------------

  NO   OCC          E(Eh)            E(eV)
   0   2.0000     -19.330112      -525.9991
   1   2.0000     -19.324094      -525.8353
   2   2.0000     -19.320187      -525.7290
   3   2.0000     -19.319223      -525.7028
   4   2.0000     -14.587110      -396.9354
   5   2.0000     -14.574754      -396.5992
   6   2.0000     -14.572013      -396.5246
   7   2.0000     -14.563453      -396.2917
   8   2.0000     -10.516580      -286.1707
   9   2.0000     -10.505789      -285.8770
  10   2.0000     -10.479671      -285.1663
  11   2.0000     -10.475441      -285.0512
  12   2.0000     -10.431695      -283.8609
  13   2.0000     -10.428850      -283.7834
  14   2.0000     -10.380313      -282.4627
  15   2.0000     -10.378727      -282.4195
  16   2.0000     -10.361244      -281.9438
  17   2.0000     -10.349569      -281.6261
  18   2.0000      -1.229425       -33.4544
  19   2.0000      -1.219227       -33.1769
  20   2.0000      -1.195201       -32.5231
  21   2.0000      -1.189242       -32.3609
  22   2.0000      -1.125279       -30.6204
  23   2.0000      -1.116413       -30.3791
  24   2.0000      -1.071823       -29.1658
  25   2.0000      -1.063818       -28.9480
  26   2.0000      -0.959558       -26.1109
  27   2.0000      -0.953547       -25.9473
  28   2.0000      -0.848647       -23.0929
  29   2.0000      -0.846508       -23.0346
  30   2.0000      -0.811769       -22.0894
  31   2.0000      -0.807115       -21.9627
  32   2.0000      -0.796065       -21.6620
  33   2.0000      -0.787756       -21.4359
  34   2.0000      -0.696847       -18.9622
  35   2.0000      -0.693530       -18.8719
  36   2.0000      -0.690976       -18.8024
  37   2.0000      -0.687475       -18.7071
  38   2.0000      -0.644112       -17.5272
  39   2.0000      -0.639677       -17.4065
  40   2.0000      -0.634076       -17.2541
  41   2.0000      -0.598632       -16.2896
  42   2.0000      -0.596497       -16.2315
  43   2.0000      -0.591416       -16.0932
  44   2.0000      -0.569547       -15.4982
  45   2.0000      -0.565234       -15.3808
  46   2.0000      -0.559912       -15.2360
  47   2.0000      -0.550916       -14.9912
  48   2.0000      -0.549803       -14.9609
  49   2.0000      -0.544327       -14.8119
  50   2.0000      -0.519834       -14.1454
  51   2.0000      -0.517913       -14.0931
  52   2.0000      -0.514579       -14.0024
  53   2.0000      -0.513131       -13.9630
  54   2.0000      -0.504932       -13.7399
  55   2.0000      -0.497251       -13.5309
  56   2.0000      -0.480424       -13.0730
  57   2.0000      -0.471499       -12.8301
  58   2.0000      -0.421954       -11.4820
  59   2.0000      -0.412139       -11.2149
  60   2.0000      -0.405994       -11.0477
  61   2.0000      -0.395954       -10.7745
  62   2.0000      -0.388135       -10.5617
  63   2.0000      -0.383605       -10.4384
  64   2.0000      -0.350356        -9.5337
  65   2.0000      -0.340916        -9.2768
  66   0.0000       0.010041         0.2732
  67   0.0000       0.017656         0.4805
  68   0.0000       0.024036         0.6541
  69   0.0000       0.034321         0.9339
  70   0.0000       0.040377         1.0987

MULLIKEN ATOMIC CHARGES
-----------------------
   0 O :   -0.675729
   1 O :   -0.661312
   2 O :   -0.647660
   3 O :   -0.670649
   4 N :   -0.059011
   5 N :    0.005654
   6 N :    0.042931
   7 N :    0.037077
   8 C :    0.907657
   9 C :    0.576704
  10 C :    0.077344
  11 C :    0.035963
  12 C :   -1.492016
  13 C :   -1.463716
  14 C :    0.244839
  15 C :    0.580168
  16 C :    0.376024
  17 C :    0.441278
  18 H :    0.174954
  19 H :    0.160919
  20 H :    0.229234
  21 H :    0.332002
  22 H :    0.377796
  23 H :    0.379005
  24 H :    0.325786
  25 H :    0.224031
  26 H :    0.064777
  27 H :    0.018836
  28 H :    0.031745
  29 H :    0.025371
Sum of atomic charges:    0.0000000

LOEWDIN ATOMIC CHARGES
----------------------
   0 O :    0.090254
   1 O :    0.104175
   2 O :    0.087113
   3 O :    0.073400
   4 N :    0.278626
   5 N :    0.284091
   6 N :    0.344615
   7 N :    0.346922
   8 C :   -0.142628
   9 C :   -0.140825
  10 C :    0.043118
  11 C :    0.042000
  12 C :    0.177424
  13 C :    0.183379
  14 C :   -0.398239
  15 C :   -0.392272
  16 C :   -0.484542
  17 C :   -0.492128
  18 H :    0.040782
  19 H :    0.039159
  20 H :   -0.016886
  21 H :   -0.004276
  22 H :    0.004136
  23 H :    0.002122
  24 H :   -0.004782
  25 H :   -0.015681
  26 H :   -0.021438
  27 H :   -0.019250
  28 H :   -0.002003
  29 H :   -0.006367

  Mayer bond orders larger than 0.100000
B(  0-O , 14-C ) :   1.4573 B(  1-O , 15-C ) :   1.4326 B(  2-O , 16-C ) :   1.5661
B(  3-O , 17-C ) :   1.5371 B(  4-N , 10-C ) :   0.8312 B(  4-N , 16-C ) :   1.0101
B(  4-N , 26-H ) :   1.1119 B(  5-N , 11-C ) :   0.9533 B(  5-N , 17-C ) :   1.0360
B(  5-N , 27-H ) :   1.1331 B(  6-N , 14-C ) :   1.0291 B(  6-N , 16-C ) :   0.9125
B(  6-N , 28-H ) :   1.1022 B(  7-N , 15-C ) :   0.9769 B(  7-N , 17-C ) :   0.9370
B(  7-N , 29-H ) :   1.1226 B(  8-C , 10-C ) :   1.0774 B(  8-C , 12-C ) :   0.3402
B(  8-C , 14-C ) :   0.6950 B(  8-C , 20-H ) :  -0.1009 B(  9-C , 11-C ) :   1.1945
B(  9-C , 13-C ) :   0.3382 B(  9-C , 15-C ) :   0.7410 B(  9-C , 24-H ) :  -0.1090
B( 10-C , 12-C ) :  -0.1716 B( 10-C , 18-H ) :   1.1259 B( 11-C , 13-C ) :  -0.2166
B( 11-C , 19-H ) :   1.1169 B( 12-C , 20-H ) :   1.0141 B( 12-C , 21-H ) :   1.0226
B( 12-C , 22-H ) :   0.8881 B( 13-C , 23-H ) :   0.8757 B( 13-C , 24-H ) :   1.0577
B( 13-C , 25-H ) :   0.9930

Dispersion correction           -0.060293215
FINAL SINGLE POINT ENERGY      -908.934106999543

DIPOLE MOMENT
-------------

Method             : SCF
Type of density    : Electron Density
Multiplicity       :   1
Irrep              :   0
Energy             :  -908.8738137844245557 Eh
Relativity type    :
Basis              : AO
                                X                 Y                 Z
Electronic contribution:     -2.640999076     -10.076500461      -5.977645550
Nuclear contribution   :      2.038738220      10.991253004       8.495380558
                        -----------------------------------------
Total Dipole Moment    :     -0.602260856       0.914752542       2.517735007
                        -----------------------------------------
Magnitude (a.u.)       :      2.745629239
Magnitude (Debye)      :      6.978834909

Rotational constants in cm-1:             0.017307             0.016551             0.013542
Rotational constants in MHz :           518.846352           496.193712           405.993387

                             ****ORCA TERMINATED NORMALLY****
TOTAL RUN TIME: 0 days 1 hours 46 minutes 49 seconds 831 msec
