                         Program Version 6.0.0  -   RELEASE  -
|  1> ! EnGrad wB97M-D3BJ def2-TZVPPD
|  2> %pal nprocs 8 end%pal nprocs 16 end
|  3> %tddft
|  4>  sf true
|  5>  nroots 2 Iroot 2 end
|  6> *xyz 0 3
|  7> O   0.29999190340835 0.986832922613 -0.00219002164951
|  8> C   0.63614871222565 -0.31086123999725 -0.0004945595414
|  9> C   -0.73792089194002 -0.69016385755063 0.0005062356883
| 10> H   1.19296206841044 -0.63816089031937 0.88702161462056
| 11> H   1.19350045568432 -0.64018632917431 -0.88684725341716
| 12> H   -1.29199897294028 -0.71460970380263 -0.92532387674534
| 13> H   -1.29048327484846 -0.7112509017688 0.92732786104456
| 14> *
| 15>
| 16>                          ****END OF INPUT****

CARTESIAN COORDINATES (ANGSTROEM)
---------------------------------
  O      0.299992    0.986833   -0.002190
  C      0.636149   -0.310861   -0.000495
  C     -0.737921   -0.690164    0.000506
  H      1.192962   -0.638161    0.887022
  H      1.193500   -0.640186   -0.886847
  H     -1.291999   -0.714610   -0.925324
  H     -1.290483   -0.711251    0.927328

 Total Charge           Charge          ....    0
 Multiplicity           Mult            ....    3
 Number of Electrons    NEL             ....   24
 Basis Dimension        Dim             ....  182

ORBITAL ENERGIES
----------------
                 SPIN UP ORBITALS
  NO   OCC          E(Eh)            E(eV)
   0   1.0000     -19.406402      -528.0750
   1   1.0000     -10.406896      -283.1860
   2   1.0000     -10.340490      -281.3790
   3   1.0000      -1.210950       -32.9516
   4   1.0000      -0.867687       -23.6110
   5   1.0000      -0.739972       -20.1357
   6   1.0000      -0.643573       -17.5125
   7   1.0000      -0.605852       -16.4861
   8   1.0000      -0.551385       -15.0040
   9   1.0000      -0.507576       -13.8119
  10   1.0000      -0.450629       -12.2622
  11   1.0000      -0.436220       -11.8702
  12   1.0000      -0.277359        -7.5473
  13   0.0000       0.040998         1.1156
  14   0.0000       0.063684         1.7329
  15   0.0000       0.072978         1.9858
  16   0.0000       0.086063         2.3419
  17   0.0000       0.116953         3.1824

                 SPIN DOWN ORBITALS
  NO   OCC          E(Eh)            E(eV)
   0   1.0000     -19.378386      -527.3127
   1   1.0000     -10.408091      -283.2186
   2   1.0000     -10.327838      -281.0348
   3   1.0000      -1.151267       -31.3276
   4   1.0000      -0.833520       -22.6812
   5   1.0000      -0.718298       -19.5459
   6   1.0000      -0.601262       -16.3612
   7   1.0000      -0.569713       -15.5027
   8   1.0000      -0.528133       -14.3712
   9   1.0000      -0.473997       -12.8981
  10   1.0000      -0.389302       -10.5935
  11   0.0000      -0.073923        -2.0115
  12   0.0000       0.029344         0.7985
  13   0.0000       0.039554         1.0763
  14   0.0000       0.064231         1.7478
  15   0.0000       0.071821         1.9543

----------------------------------------------------------------------------------------------------
          SPIN FLIP ABSORPTION SPECTRUM VIA TRANSITION ELECTRIC DIPOLE MOMENTS
----------------------------------------------------------------------------------------------------
     Transition      Energy     Energy  Wavelength fosc(D2)      D2        DX        DY        DZ
                      (eV)      (cm-1)    (nm)                 (au**2)    (au)      (au)      (au)
----------------------------------------------------------------------------------------------------
  1-3A  ->  2-3A    2.265284   18270.7   547.3   0.000672540   0.01212  -0.00049  -0.00068  -0.11008

Dispersion correction             ... done (  0.0 sec)

MULLIKEN ATOMIC CHARGES AND SPIN DENSITIES
------------------------------------------
   0 O :   -0.306611    0.739660
   1 C :    0.106686    0.244684
   2 C :   -0.460367   -0.782464
   3 H :    0.206579    0.021117
   4 H :    0.206792    0.021642
   5 H :    0.123168   -0.122497
   6 H :    0.123752   -0.122143
Sum of atomic charges       :   -0.0000000

LOEWDIN ATOMIC CHARGES AND SPIN DENSITIES
-----------------------------------------
   0 O :    0.107134    0.676484
   1 C :   -0.253962    0.044729
   2 C :    0.202164   -0.603075
   3 H :    0.040564    0.028971
   4 H :    0.040787    0.029372
   5 H :   -0.068351   -0.088284
   6 H :   -0.068336   -0.088198

  Mayer bond orders larger than 0.100000
B(  0-O ,  1-C ) :   0.8618 B(  0-O ,  2-C ) :   0.2266 B(  1-C ,  2-C ) :   0.6113
B(  1-C ,  3-H ) :   0.9820 B(  1-C ,  4-H ) :   0.9811 B(  2-C ,  5-H ) :   1.1157
B(  2-C ,  6-H ) :   1.1152

Dispersion correction           -0.005661098
FINAL SINGLE POINT ENERGY      -153.722189766154

DIPOLE MOMENT
-------------

Method             : TDA/CIS
Type of density    : Electron Density
Level              : Relaxed density
State              :   2
Multiplicity       :   3
Irrep              :   0
Energy             :     0.0000000000000000 Eh
Relativity type    :
Basis              : AO
                                X                 Y                 Z
Electronic contribution:      0.893306423       2.397262108      -0.005351068
Nuclear contribution   :     -0.468493863      -2.611302570       0.004808032
                        -----------------------------------------
Total Dipole Moment    :      0.424812559      -0.214040463      -0.000543036
                        -----------------------------------------
Magnitude (a.u.)       :      0.475688265
Magnitude (Debye)      :      1.209103479

Rotational constants in cm-1:             1.071739             0.495789             0.391135
Rotational constants in MHz :         32129.917829         14863.370551         11725.919764

                             ****ORCA TERMINATED NORMALLY****
TOTAL RUN TIME: 0 days 0 hours 0 minutes 16 seconds 809 msec
