                         Program Version 6.0.0  -   RELEASE  -
|  1> ! Engrad def2-TZVPPD wB97M-D3BJ
|  2> %pal nprocs 8 end%pal nprocs 64 end
|  3> %tddft Nroots 2 Iroot 2
|  4> sf true
|  5> end
|  6> *xyz 0 3
|  7> O   3.47524778 0.85806813 -0.6072545
|  8> O   -1.2621124 0.20936731 -2.05163337
|  9> O   1.42669362 -3.1861335 -1.39409807
| 10> O   -3.18310253 -1.01250083 1.99757933
| 11> N   0.88471931 -1.92759516 0.36764365
| 12> N   -2.10404366 1.08222025 1.74468806
| 13> N   2.30010342 -1.06249712 -1.18682484
| 14> N   -2.33721229 -0.2956355 -0.07253099
| 15> C   1.75652889 0.23465846 0.92570136
| 16> C   -1.20918144 1.8512491 -0.35875634
| 17> C   0.87423746 -0.8303728 1.18702218
| 18> C   -1.7006687 2.16173493 0.94902838
| 19> C   2.27960606 1.20364207 1.91812278
| 20> C   -0.50962768 2.84260418 -1.18101809
| 21> C   2.58810028 0.07734985 -0.31374886
| 22> C   -1.53770315 0.56730106 -0.87054784
| 23> C   1.52964217 -2.1306193 -0.79955642
| 24> C   -2.69285355 -0.1737705 1.31547445
| 25> H   0.32387626 -0.91763974 2.08501783
| 26> H   -1.64987977 3.11120222 1.40501263
| 27> H   3.18806852 1.68057652 1.48903801
| 28> H   1.58616665 2.07902489 1.94141425
| 29> H   2.55892288 0.84549722 2.88623863
| 30> H   -0.96187213 2.73185429 -2.23054663
| 31> H   -0.47816466 3.81025168 -0.82059251
| 32> H   0.57666932 2.59909988 -1.37772476
| 33> H   0.32115192 -2.72353498 0.71564063
| 34> H   -2.45281533 1.31600347 2.69239498
| 35> H   2.89050074 -1.16409093 -1.95442387
| 36> H   -2.52081655 -1.20028774 -0.39125099
| 37> *
| 38>
| 39>                          ****END OF INPUT****

CARTESIAN COORDINATES (ANGSTROEM)
---------------------------------
  O      3.475248    0.858068   -0.607254
  O     -1.262112    0.209367   -2.051633
  O      1.426694   -3.186133   -1.394098
  O     -3.183103   -1.012501    1.997579
  N      0.884719   -1.927595    0.367644
  N     -2.104044    1.082220    1.744688
  N      2.300103   -1.062497   -1.186825
  N     -2.337212   -0.295635   -0.072531
  C      1.756529    0.234658    0.925701
  C     -1.209181    1.851249   -0.358756
  C      0.874237   -0.830373    1.187022
  C     -1.700669    2.161735    0.949028
  C      2.279606    1.203642    1.918123
  C     -0.509628    2.842604   -1.181018
  C      2.588100    0.077350   -0.313749
  C     -1.537703    0.567301   -0.870548
  C      1.529642   -2.130619   -0.799556
  C     -2.692854   -0.173770    1.315474
  H      0.323876   -0.917640    2.085018
  H     -1.649880    3.111202    1.405013
  H      3.188069    1.680577    1.489038
  H      1.586167    2.079025    1.941414
  H      2.558923    0.845497    2.886239
  H     -0.961872    2.731854   -2.230547
  H     -0.478165    3.810252   -0.820593
  H      0.576669    2.599100   -1.377725
  H      0.321152   -2.723535    0.715641
  H     -2.452815    1.316003    2.692395
  H      2.890501   -1.164091   -1.954424
  H     -2.520817   -1.200288   -0.391251

 Total Charge           Charge          ....    0
 Multiplicity           Mult            ....    3
 Number of Electrons    NEL             ....  132
 Basis Dimension        Dim             ....  882

ORBITAL ENERGIES
----------------
                 SPIN UP ORBITALS
  NO   OCC          E(Eh)            E(eV)
   0   1.0000     -19.362931      -526.8921
   1   1.0000     -19.328327      -525.9505
   2   1.0000     -19.325161      -525.8644
   3   1.0000     -19.311096      -525.4816
   4   1.0000     -14.594674      -397.1413
   5   1.0000     -14.579633      -396.7320
   6   1.0000     -14.561053      -396.2264
   7   1.0000     -14.557630      -396.1332
   8   1.0000     -10.531798      -286.5848
   9   1.0000     -10.500803      -285.7414
  10   1.0000     -10.483166      -285.2615
  11   1.0000     -10.467867      -284.8451
  12   1.0000     -10.439018      -284.0601
  13   1.0000     -10.417695      -283.4799
  14   1.0000     -10.413903      -283.3767
  15   1.0000     -10.386964      -282.6437
  16   1.0000     -10.370766      -282.2029
  17   1.0000     -10.355771      -281.7949
  18   1.0000      -1.243311       -33.8322
  19   1.0000      -1.213771       -33.0284
  20   1.0000      -1.185892       -32.2698
  21   1.0000      -1.175141       -31.9772
  22   1.0000      -1.116506       -30.3817
  23   1.0000      -1.112539       -30.2737
  24   1.0000      -1.058765       -28.8105
  25   1.0000      -1.050460       -28.5845
  26   1.0000      -0.969987       -26.3947
  27   1.0000      -0.942133       -25.6367
  28   1.0000      -0.855501       -23.2794
  29   1.0000      -0.851571       -23.1724
  30   1.0000      -0.815660       -22.1952
  31   1.0000      -0.803568       -21.8662
  32   1.0000      -0.775038       -21.0899
  33   1.0000      -0.771071       -20.9819
  34   1.0000      -0.693926       -18.8827
  35   1.0000      -0.686964       -18.6932
  36   1.0000      -0.682604       -18.5746
  37   1.0000      -0.676970       -18.4213
  38   1.0000      -0.644913       -17.5490
  39   1.0000      -0.637558       -17.3488
  40   1.0000      -0.616339       -16.7714
  41   1.0000      -0.603847       -16.4315
  42   1.0000      -0.601767       -16.3749
  43   1.0000      -0.587903       -15.9977
  44   1.0000      -0.585876       -15.9425
  45   1.0000      -0.563522       -15.3342
  46   1.0000      -0.558983       -15.2107
  47   1.0000      -0.554285       -15.0829
  48   1.0000      -0.549427       -14.9507
  49   1.0000      -0.548698       -14.9308
  50   1.0000      -0.547748       -14.9050
  51   1.0000      -0.525224       -14.2921
  52   1.0000      -0.515225       -14.0200
  53   1.0000      -0.512104       -13.9351
  54   1.0000      -0.504368       -13.7245
  55   1.0000      -0.493308       -13.4236
  56   1.0000      -0.474267       -12.9055
  57   1.0000      -0.465986       -12.6801
  58   1.0000      -0.442833       -12.0501
  59   1.0000      -0.410607       -11.1732
  60   1.0000      -0.409377       -11.1397
  61   1.0000      -0.394030       -10.7221
  62   1.0000      -0.392148       -10.6709
  63   1.0000      -0.382339       -10.4040
  64   1.0000      -0.381727       -10.3873
  65   1.0000      -0.333061        -9.0631
  66   1.0000      -0.239254        -6.5104
  67   0.0000       0.009706         0.2641
  68   0.0000       0.012074         0.3286
  69   0.0000       0.026394         0.7182
  70   0.0000       0.034680         0.9437
  71   0.0000       0.041385         1.1262

                 SPIN DOWN ORBITALS
  NO   OCC          E(Eh)            E(eV)
   0   1.0000     -19.361829      -526.8621
   1   1.0000     -19.325107      -525.8629
   2   1.0000     -19.320476      -525.7369
   3   1.0000     -19.311090      -525.4815
   4   1.0000     -14.590424      -397.0256
   5   1.0000     -14.579621      -396.7317
   6   1.0000     -14.561056      -396.2265
   7   1.0000     -14.557000      -396.1161
   8   1.0000     -10.531639      -286.5805
   9   1.0000     -10.500798      -285.7412
  10   1.0000     -10.483175      -285.2617
  11   1.0000     -10.467752      -284.8420
  12   1.0000     -10.438996      -284.0595
  13   1.0000     -10.408590      -283.2321
  14   1.0000     -10.402949      -283.0786
  15   1.0000     -10.386858      -282.6408
  16   1.0000     -10.371193      -282.2145
  17   1.0000     -10.355751      -281.7943
  18   1.0000      -1.241096       -33.7719
  19   1.0000      -1.213750       -33.0278
  20   1.0000      -1.185823       -32.2679
  21   1.0000      -1.163924       -31.6720
  22   1.0000      -1.112552       -30.2741
  23   1.0000      -1.105529       -30.0830
  24   1.0000      -1.058746       -28.8100
  25   1.0000      -1.044513       -28.4226
  26   1.0000      -0.948318       -25.8050
  27   1.0000      -0.941823       -25.6283
  28   1.0000      -0.851512       -23.1708
  29   1.0000      -0.843700       -22.9582
  30   1.0000      -0.803600       -21.8671
  31   1.0000      -0.801654       -21.8141
  32   1.0000      -0.771054       -20.9815
  33   1.0000      -0.768887       -20.9225
  34   1.0000      -0.686914       -18.6919
  35   1.0000      -0.686676       -18.6854
  36   1.0000      -0.676909       -18.4196
  37   1.0000      -0.671392       -18.2695
  38   1.0000      -0.644363       -17.5340
  39   1.0000      -0.627681       -17.0801
  40   1.0000      -0.609172       -16.5764
  41   1.0000      -0.600487       -16.3401
  42   1.0000      -0.594735       -16.1836
  43   1.0000      -0.587408       -15.9842
  44   1.0000      -0.576781       -15.6950
  45   1.0000      -0.558904       -15.2086
  46   1.0000      -0.550769       -14.9872
  47   1.0000      -0.549155       -14.9433
  48   1.0000      -0.548578       -14.9276
  49   1.0000      -0.539842       -14.6899
  50   1.0000      -0.532049       -14.4778
  51   1.0000      -0.524330       -14.2677
  52   1.0000      -0.512777       -13.9534
  53   1.0000      -0.499239       -13.5850
  54   1.0000      -0.490784       -13.3549
  55   1.0000      -0.474364       -12.9081
  56   1.0000      -0.465096       -12.6559
  57   1.0000      -0.453063       -12.3285
  58   1.0000      -0.438787       -11.9400
  59   1.0000      -0.409329       -11.1384
  60   1.0000      -0.394250       -10.7281
  61   1.0000      -0.383211       -10.4277
  62   1.0000      -0.382351       -10.4043
  63   1.0000      -0.381691       -10.3863
  64   1.0000      -0.332409        -9.0453
  65   0.0000      -0.099966        -2.7202
  66   0.0000       0.009508         0.2587
  67   0.0000       0.011108         0.3023
  68   0.0000       0.025274         0.6877
  69   0.0000       0.031376         0.8538

----------------------------------------------------------------------------------------------------
          SPIN FLIP ABSORPTION SPECTRUM VIA TRANSITION ELECTRIC DIPOLE MOMENTS
----------------------------------------------------------------------------------------------------
     Transition      Energy     Energy  Wavelength fosc(D2)      D2        DX        DY        DZ
                      (eV)      (cm-1)    (nm)                 (au**2)    (au)      (au)      (au)
----------------------------------------------------------------------------------------------------
  1-3A  ->  2-3A    3.233185   26077.4   383.5   0.000682147   0.00861  -0.00494   0.07716   0.05133

Dispersion correction             ... done (  0.1 sec)

MULLIKEN ATOMIC CHARGES AND SPIN DENSITIES
------------------------------------------
   0 O :   -0.639641    0.000042
   1 O :   -0.718499    0.013814
   2 O :   -0.666521   -0.000159
   3 O :   -0.553471   -0.002188
   4 N :   -0.121183    0.001032
   5 N :    0.092531    0.019838
   6 N :    0.069025    0.000413
   7 N :   -0.017332   -0.005937
   8 C :    0.731102   -0.002201
   9 C :    1.190932    0.047928
  10 C :   -0.159282   -0.001418
  11 C :   -0.632844    0.094048
  12 C :   -1.136818    0.002137
  13 C :   -1.157369   -0.017136
  14 C :    0.297030   -0.001914
  15 C :    0.263676   -0.125358
  16 C :    0.520300    0.000376
  17 C :    0.412465   -0.006026
  18 H :    0.234181   -0.001019
  19 H :    0.184783   -0.026229
  20 H :    0.256345    0.000310
  21 H :    0.212033   -0.002265
  22 H :    0.326446   -0.000378
  23 H :    0.280367    0.004387
  24 H :    0.368568    0.001000
  25 H :    0.192048    0.007893
  26 H :    0.062609    0.000030
  27 H :    0.090607   -0.002186
  28 H :   -0.000644   -0.000224
  29 H :    0.018557    0.001392
Sum of atomic charges       :    0.0000000

LOEWDIN ATOMIC CHARGES AND SPIN DENSITIES
-----------------------------------------
   0 O :    0.062929   -0.000220
   1 O :    0.028824    0.011353
   2 O :    0.079667   -0.000039
   3 O :    0.129563   -0.002500
   4 N :    0.248032    0.000019
   5 N :    0.252594    0.012799
   6 N :    0.370228   -0.000009
   7 N :    0.320767   -0.003192
   8 C :   -0.114201   -0.000548
   9 C :   -0.110628   -0.001527
  10 C :    0.085492   -0.000075
  11 C :    0.057445   -0.003719
  12 C :    0.155552   -0.000311
  13 C :    0.199519   -0.000243
  14 C :   -0.329833   -0.000086
  15 C :   -0.400423   -0.006142
  16 C :   -0.500254   -0.000020
  17 C :   -0.423006   -0.002104
  18 H :    0.014171    0.000020
  19 H :   -0.030718   -0.004411
  20 H :   -0.002644   -0.000023
  21 H :    0.002417   -0.000320
  22 H :   -0.021668   -0.000034
  23 H :    0.054331    0.000213
  24 H :   -0.053073   -0.000147
  25 H :    0.042077    0.000367
  26 H :    0.018274   -0.000001
  27 H :   -0.004713    0.001250
  28 H :   -0.058527    0.000001
  29 H :   -0.072196   -0.000354

  Mayer bond orders larger than 0.100000
B(  0-O , 14-C ) :   1.4977 B(  1-O , 15-C ) :   1.1402 B(  2-O , 16-C ) :   1.5590
B(  3-O , 17-C ) :   1.6361 B(  4-N , 10-C ) :   0.9886 B(  4-N , 16-C ) :   1.0255
B(  4-N , 26-H ) :   1.1209 B(  5-N , 11-C ) :   0.9587 B(  5-N , 17-C ) :   0.9663
B(  5-N , 27-H ) :   1.0275 B(  6-N , 14-C ) :   1.0128 B(  6-N , 16-C ) :   1.0219
B(  6-N , 28-H ) :   1.1094 B(  7-N , 15-C ) :   0.7968 B(  7-N , 17-C ) :   0.9688
B(  7-N , 29-H ) :   1.1085 B(  8-C , 10-C ) :   1.0958 B(  8-C , 12-C ) :   0.5822
B(  8-C , 14-C ) :   0.6716 B(  9-C , 11-C ) :   0.4458 B(  9-C , 13-C ) :   0.4988
B(  9-C , 15-C ) :   1.0542 B( 10-C , 18-H ) :   1.0231 B( 11-C , 13-C ) :  -0.1167
B( 11-C , 19-H ) :   1.1081 B( 12-C , 20-H ) :   1.0274 B( 12-C , 21-H ) :   0.9861
B( 12-C , 22-H ) :   0.8702 B( 13-C , 23-H ) :   0.9039 B( 13-C , 24-H ) :   0.9438
B( 13-C , 25-H ) :   0.9978

Dispersion correction           -0.051379600
FINAL SINGLE POINT ENERGY      -908.729491992513

DIPOLE MOMENT
-------------

Method             : TDA/CIS
Type of density    : Electron Density
Level              : Relaxed density
State              :   2
Multiplicity       :   3
Irrep              :   0
Energy             :     0.0000000000000000 Eh
Relativity type    :
Basis              : AO
                                X                 Y                 Z
Electronic contribution:     -3.352388087      -9.820984733      -3.048545952
Nuclear contribution   :      2.737873726      11.311667464       5.169112235
                        -----------------------------------------
Total Dipole Moment    :     -0.614514361       1.490682732       2.120566283
                        -----------------------------------------
Magnitude (a.u.)       :      2.663937737
Magnitude (Debye)      :      6.771191612

Rotational constants in cm-1:             0.018179             0.011012             0.009724
Rotational constants in MHz :           544.983404           330.116531           291.528587

                             ****ORCA TERMINATED NORMALLY****
TOTAL RUN TIME: 0 days 0 hours 4 minutes 50 seconds 997 msec
