                         Program Version 6.0.0  -   RELEASE  -
|  1> ! Engrad def2-TZVPPD wB97M-D3BJ
|  2> %pal nprocs 8 end%pal nprocs 64 end
|  3> %tddft
|  4>  Iroot 1 Nroots 3
|  5> sf true
|  6> end
|  7> *xyz 0 3
|  8> O   0.58875331 0.80773128 0.96471439
|  9> C   -0.06895917 -0.01191261 0.08809755
| 10> C   0.78993083 -0.66561025 -0.9036223
| 11> H   -0.85560129 0.51053231 -0.49174743
| 12> H   -0.74379527 -0.76188471 0.68393242
| 13> H   0.40285771 -0.57033206 -1.89272899
| 14> H   1.80421562 -1.01058436 -0.67585711
| 15> *
| 16>
| 17>                          ****END OF INPUT****

CARTESIAN COORDINATES (ANGSTROEM)
---------------------------------
  O      0.588753    0.807731    0.964714
  C     -0.068959   -0.011913    0.088098
  C      0.789931   -0.665610   -0.903622
  H     -0.855601    0.510532   -0.491747
  H     -0.743795   -0.761885    0.683932
  H      0.402858   -0.570332   -1.892729
  H      1.804216   -1.010584   -0.675857

 Total Charge           Charge          ....    0
 Multiplicity           Mult            ....    3
 Number of Electrons    NEL             ....   24
 Basis Dimension        Dim             ....  182

ORBITAL ENERGIES
----------------
                 SPIN UP ORBITALS
  NO   OCC          E(Eh)            E(eV)
   0   1.0000     -19.390480      -527.6418
   1   1.0000     -10.417756      -283.4816
   2   1.0000     -10.365795      -282.0676
   3   1.0000      -1.168238       -31.7894
   4   1.0000      -0.883105       -24.0305
   5   1.0000      -0.728904       -19.8345
   6   1.0000      -0.610660       -16.6169
   7   1.0000      -0.590485       -16.0679
   8   1.0000      -0.552047       -15.0220
   9   1.0000      -0.519717       -14.1422
  10   1.0000      -0.438729       -11.9384
  11   1.0000      -0.414851       -11.2887
  12   1.0000      -0.323032        -8.7901
  13   0.0000       0.040623         1.1054
  14   0.0000       0.060513         1.6466
  15   0.0000       0.077979         2.1219
  16   0.0000       0.085771         2.3339
  17   0.0000       0.112601         3.0640

                 SPIN DOWN ORBITALS
  NO   OCC          E(Eh)            E(eV)
   0   1.0000     -19.366992      -527.0026
   1   1.0000     -10.419397      -283.5262
   2   1.0000     -10.352717      -281.7117
   3   1.0000      -1.115153       -30.3449
   4   1.0000      -0.850981       -23.1564
   5   1.0000      -0.702144       -19.1063
   6   1.0000      -0.586361       -15.9557
   7   1.0000      -0.540416       -14.7055
   8   1.0000      -0.531700       -14.4683
   9   1.0000      -0.491657       -13.3787
  10   1.0000      -0.384473       -10.4620
  11   0.0000      -0.057910        -1.5758
  12   0.0000      -0.002665        -0.0725
  13   0.0000       0.039846         1.0843
  14   0.0000       0.060677         1.6511
  15   0.0000       0.077693         2.1141

----------------------------------------------------------------------------------------------------
          SPIN FLIP ABSORPTION SPECTRUM VIA TRANSITION ELECTRIC DIPOLE MOMENTS
----------------------------------------------------------------------------------------------------
     Transition      Energy     Energy  Wavelength fosc(D2)      D2        DX        DY        DZ
                      (eV)      (cm-1)    (nm)                 (au**2)    (au)      (au)      (au)
----------------------------------------------------------------------------------------------------
  1-3A  ->  2-3A    0.225795    1821.2  5491.0   0.000168988   0.03055   0.08532  -0.07396  -0.13341
  1-3A  ->  3-3A    0.909656    7336.9  1363.0   0.022865136   1.02598  -0.10925  -0.67476  -0.74749

Dispersion correction             ... done (  0.2 sec)

MULLIKEN ATOMIC CHARGES AND SPIN DENSITIES
------------------------------------------
   0 O :   -0.473898   -0.523798
   1 C :   -0.007341   -0.035641
   2 C :   -0.434661    0.445619
   3 H :    0.200519   -0.051286
   4 H :    0.239226    0.089392
   5 H :    0.215118    0.037369
   6 H :    0.261037    0.038345
Sum of atomic charges       :    0.0000000

LOEWDIN ATOMIC CHARGES AND SPIN DENSITIES
-----------------------------------------
   0 O :   -0.065354   -0.521791
   1 C :   -0.325165    0.017853
   2 C :    0.339626    0.410764
   3 H :    0.038562   -0.045003
   4 H :    0.079188    0.039824
   5 H :   -0.050510    0.051363
   6 H :   -0.016347    0.046990

  Mayer bond orders larger than 0.100000
B(  0-O ,  1-C ) :   1.0198 B(  0-O ,  2-C ) :   0.3311 B(  1-C ,  2-C ) :   0.8564
B(  1-C ,  3-H ) :   0.9361 B(  1-C ,  4-H ) :   0.9276 B(  2-C ,  5-H ) :   0.9845
B(  2-C ,  6-H ) :   0.9353

Dispersion correction           -0.005529794
FINAL SINGLE POINT ENERGY      -153.755839329012

DIPOLE MOMENT
-------------

Method             : TDA/CIS
Type of density    : Electron Density
Level              : Relaxed density
State              :   1
Multiplicity       :   3
Irrep              :   0
Energy             :     0.0000000000000000 Eh
Relativity type    :
Basis              : AO
                                X                 Y                 Z
Electronic contribution:      0.644600472       1.120015821       1.367218951
Nuclear contribution   :     -1.019724734      -1.958329287      -2.492630627
                        -----------------------------------------
Total Dipole Moment    :     -0.375124263      -0.838313466      -1.125411675
                        -----------------------------------------
Magnitude (a.u.)       :      1.452597370
Magnitude (Debye)      :      3.692209089

Rotational constants in cm-1:             1.423438             0.355263             0.307970
Rotational constants in MHz :         42673.605327         10650.514486          9232.705882

                             ****ORCA TERMINATED NORMALLY****
TOTAL RUN TIME: 0 days 0 hours 0 minutes 28 seconds 521 msec
