                         Program Version 6.0.0  -   RELEASE  -
|  1> ! Engrad def2-TZVPPD wB97M-D3BJ
|  2> %pal nprocs 8 end%pal nprocs 64 end
|  3> %tddft Nroots 2 Iroot 2
|  4> sf true
|  5> end
|  6> *xyz 0 3
|  7> O   3.25212642 0.30673938 -0.87173591
|  8> O   -0.80339226 1.61678389 -2.30836757
|  9> O   0.39316876 -3.04995352 -0.26889158
| 10> O   -2.96170553 -1.83827475 -0.51094102
| 11> N   0.31425358 -1.39016343 1.24212957
| 12> N   -2.03229599 -0.26703829 0.94427635
| 13> N   1.55917186 -1.17926187 -0.72466353
| 14> N   -1.48206851 -0.28040003 -1.27730056
| 15> C   1.68867047 0.55669069 0.91151789
| 16> C   -0.98002301 1.65667427 0.03005991
| 17> C   0.38947254 -0.01706982 1.55348529
| 18> C   -0.94791322 0.6905249 1.17267264
| 19> C   2.51956475 1.52980821 1.6206835
| 20> C   -0.76903814 3.08225728 0.19594916
| 21> C   2.23836371 -0.04847004 -0.25714677
| 22> C   -1.10562301 1.06666007 -1.274349
| 23> C   0.74140558 -1.95300054 0.06225807
| 24> C   -2.25006662 -0.88828998 -0.26919711
| 25> H   0.56182573 0.09930644 2.63275894
| 26> H   -1.19041712 1.28911839 2.08188512
| 27> H   3.50663948 1.45445981 1.13066879
| 28> H   2.19016751 2.58041259 1.48999813
| 29> H   2.66202175 1.31114514 2.66510691
| 30> H   -1.62095495 3.56137155 0.7392881
| 31> H   0.10817854 3.24754087 0.84068966
| 32> H   -0.61638298 3.53616021 -0.79808473
| 33> H   -0.34425863 -1.98092917 1.71098312
| 34> H   -2.39261607 -0.78774766 1.73053417
| 35> H   1.89314654 -1.57944518 -1.59693114
| 36> H   -1.63816247 -0.57021544 -2.23347564
| 37> *
| 38>
| 39>                          ****END OF INPUT****

CARTESIAN COORDINATES (ANGSTROEM)
---------------------------------
  O      3.252126    0.306739   -0.871736
  O     -0.803392    1.616784   -2.308368
  O      0.393169   -3.049954   -0.268892
  O     -2.961706   -1.838275   -0.510941
  N      0.314254   -1.390163    1.242130
  N     -2.032296   -0.267038    0.944276
  N      1.559172   -1.179262   -0.724664
  N     -1.482069   -0.280400   -1.277301
  C      1.688670    0.556691    0.911518
  C     -0.980023    1.656674    0.030060
  C      0.389473   -0.017070    1.553485
  C     -0.947913    0.690525    1.172673
  C      2.519565    1.529808    1.620683
  C     -0.769038    3.082257    0.195949
  C      2.238364   -0.048470   -0.257147
  C     -1.105623    1.066660   -1.274349
  C      0.741406   -1.953001    0.062258
  C     -2.250067   -0.888290   -0.269197
  H      0.561826    0.099306    2.632759
  H     -1.190417    1.289118    2.081885
  H      3.506639    1.454460    1.130669
  H      2.190168    2.580413    1.489998
  H      2.662022    1.311145    2.665107
  H     -1.620955    3.561372    0.739288
  H      0.108179    3.247541    0.840690
  H     -0.616383    3.536160   -0.798085
  H     -0.344259   -1.980929    1.710983
  H     -2.392616   -0.787748    1.730534
  H      1.893147   -1.579445   -1.596931
  H     -1.638162   -0.570215   -2.233476

 Total Charge           Charge          ....    0
 Multiplicity           Mult            ....    3
 Number of Electrons    NEL             ....  132
 Basis Dimension        Dim             ....  882

ORBITAL ENERGIES
----------------
                 SPIN UP ORBITALS
  NO   OCC          E(Eh)            E(eV)
   0   1.0000     -19.335486      -526.1453
   1   1.0000     -19.333910      -526.1024
   2   1.0000     -19.323018      -525.8060
   3   1.0000     -19.310789      -525.4733
   4   1.0000     -14.564497      -396.3201
   5   1.0000     -14.557210      -396.1218
   6   1.0000     -14.553668      -396.0254
   7   1.0000     -14.553455      -396.0197
   8   1.0000     -10.506205      -285.8884
   9   1.0000     -10.495852      -285.6066
  10   1.0000     -10.479744      -285.1683
  11   1.0000     -10.473778      -285.0060
  12   1.0000     -10.447215      -284.2832
  13   1.0000     -10.445617      -284.2397
  14   1.0000     -10.425833      -283.7013
  15   1.0000     -10.412667      -283.3431
  16   1.0000     -10.377940      -282.3981
  17   1.0000     -10.374109      -282.2938
  18   1.0000      -1.221370       -33.2352
  19   1.0000      -1.216187       -33.0941
  20   1.0000      -1.197884       -32.5961
  21   1.0000      -1.190537       -32.3962
  22   1.0000      -1.123420       -30.5698
  23   1.0000      -1.096618       -29.8405
  24   1.0000      -1.064079       -28.9550
  25   1.0000      -1.048014       -28.5179
  26   1.0000      -0.983017       -26.7492
  27   1.0000      -0.960868       -26.1466
  28   1.0000      -0.895657       -24.3721
  29   1.0000      -0.839809       -22.8524
  30   1.0000      -0.830604       -22.6019
  31   1.0000      -0.800865       -21.7927
  32   1.0000      -0.784684       -21.3523
  33   1.0000      -0.773479       -21.0474
  34   1.0000      -0.699030       -19.0216
  35   1.0000      -0.691006       -18.8032
  36   1.0000      -0.686378       -18.6773
  37   1.0000      -0.664353       -18.0780
  38   1.0000      -0.659238       -17.9388
  39   1.0000      -0.651998       -17.7418
  40   1.0000      -0.609590       -16.5878
  41   1.0000      -0.605304       -16.4712
  42   1.0000      -0.592472       -16.1220
  43   1.0000      -0.582701       -15.8561
  44   1.0000      -0.582347       -15.8465
  45   1.0000      -0.574864       -15.6428
  46   1.0000      -0.566816       -15.4238
  47   1.0000      -0.562450       -15.3050
  48   1.0000      -0.558935       -15.2094
  49   1.0000      -0.552811       -15.0427
  50   1.0000      -0.543106       -14.7787
  51   1.0000      -0.538140       -14.6435
  52   1.0000      -0.531631       -14.4664
  53   1.0000      -0.525393       -14.2967
  54   1.0000      -0.515341       -14.0231
  55   1.0000      -0.506707       -13.7882
  56   1.0000      -0.481028       -13.0894
  57   1.0000      -0.425019       -11.5653
  58   1.0000      -0.417335       -11.3563
  59   1.0000      -0.407758       -11.0957
  60   1.0000      -0.401250       -10.9186
  61   1.0000      -0.395009       -10.7487
  62   1.0000      -0.392422       -10.6783
  63   1.0000      -0.388779       -10.5792
  64   1.0000      -0.386657       -10.5215
  65   1.0000      -0.348873        -9.4933
  66   1.0000      -0.331985        -9.0338
  67   0.0000       0.004281         0.1165
  68   0.0000       0.027170         0.7393
  69   0.0000       0.032644         0.8883
  70   0.0000       0.038796         1.0557
  71   0.0000       0.054617         1.4862

                 SPIN DOWN ORBITALS
  NO   OCC          E(Eh)            E(eV)
   0   1.0000     -19.330319      -526.0047
   1   1.0000     -19.329295      -525.9768
   2   1.0000     -19.322759      -525.7990
   3   1.0000     -19.310604      -525.4682
   4   1.0000     -14.563926      -396.3046
   5   1.0000     -14.556784      -396.1102
   6   1.0000     -14.553350      -396.0168
   7   1.0000     -14.553058      -396.0088
   8   1.0000     -10.506226      -285.8889
   9   1.0000     -10.495886      -285.6076
  10   1.0000     -10.480878      -285.1992
  11   1.0000     -10.474772      -285.0330
  12   1.0000     -10.447022      -284.2779
  13   1.0000     -10.445586      -284.2388
  14   1.0000     -10.414539      -283.3940
  15   1.0000     -10.401309      -283.0340
  16   1.0000     -10.378539      -282.4144
  17   1.0000     -10.374714      -282.3103
  18   1.0000      -1.219647       -33.1883
  19   1.0000      -1.213633       -33.0246
  20   1.0000      -1.193495       -32.4767
  21   1.0000      -1.184060       -32.2199
  22   1.0000      -1.121022       -30.5046
  23   1.0000      -1.094118       -29.7725
  24   1.0000      -1.062066       -28.9003
  25   1.0000      -1.046490       -28.4764
  26   1.0000      -0.968914       -26.3655
  27   1.0000      -0.943779       -25.6815
  28   1.0000      -0.890765       -24.2389
  29   1.0000      -0.834521       -22.7085
  30   1.0000      -0.821828       -22.3631
  31   1.0000      -0.795269       -21.6404
  32   1.0000      -0.783352       -21.3161
  33   1.0000      -0.771894       -21.0043
  34   1.0000      -0.695137       -18.9156
  35   1.0000      -0.684666       -18.6307
  36   1.0000      -0.680849       -18.5269
  37   1.0000      -0.653515       -17.7830
  38   1.0000      -0.651497       -17.7281
  39   1.0000      -0.647966       -17.6320
  40   1.0000      -0.606774       -16.5112
  41   1.0000      -0.601500       -16.3677
  42   1.0000      -0.583141       -15.8681
  43   1.0000      -0.574609       -15.6359
  44   1.0000      -0.572730       -15.5848
  45   1.0000      -0.565586       -15.3904
  46   1.0000      -0.561736       -15.2856
  47   1.0000      -0.556592       -15.1457
  48   1.0000      -0.553416       -15.0592
  49   1.0000      -0.543117       -14.7790
  50   1.0000      -0.535473       -14.5710
  51   1.0000      -0.533260       -14.5108
  52   1.0000      -0.525853       -14.3092
  53   1.0000      -0.514045       -13.9879
  54   1.0000      -0.504157       -13.7188
  55   1.0000      -0.500919       -13.6307
  56   1.0000      -0.475713       -12.9448
  57   1.0000      -0.420628       -11.4459
  58   1.0000      -0.412727       -11.2309
  59   1.0000      -0.395428       -10.7601
  60   1.0000      -0.393183       -10.6991
  61   1.0000      -0.387413       -10.5421
  62   1.0000      -0.385025       -10.4771
  63   1.0000      -0.382318       -10.4034
  64   1.0000      -0.378385       -10.2964
  65   0.0000      -0.070055        -1.9063
  66   0.0000      -0.048958        -1.3322
  67   0.0000       0.003913         0.1065
  68   0.0000       0.026969         0.7339
  69   0.0000       0.032277         0.8783

----------------------------------------------------------------------------------------------------
          SPIN FLIP ABSORPTION SPECTRUM VIA TRANSITION ELECTRIC DIPOLE MOMENTS
----------------------------------------------------------------------------------------------------
     Transition      Energy     Energy  Wavelength fosc(D2)      D2        DX        DY        DZ
                      (eV)      (cm-1)    (nm)                 (au**2)    (au)      (au)      (au)
----------------------------------------------------------------------------------------------------
  1-3A  ->  2-3A    0.045792     369.3  27075.6   0.000000285   0.00025  -0.01414  -0.00706  -0.00195

Dispersion correction             ... done (  0.1 sec)

MULLIKEN ATOMIC CHARGES AND SPIN DENSITIES
------------------------------------------
   0 O :   -0.697775   -0.036287
   1 O :   -0.677077    0.029060
   2 O :   -0.641876   -0.001211
   3 O :   -0.634207    0.000970
   4 N :   -0.353446    0.005339
   5 N :   -0.399269   -0.001319
   6 N :    0.065659   -0.004094
   7 N :    0.035809    0.010198
   8 C :    0.691739    0.446478
   9 C :    0.213306    0.402291
  10 C :    0.085356   -0.296805
  11 C :    0.712661   -0.114614
  12 C :   -1.158814    0.057111
  13 C :   -1.093032   -0.016427
  14 C :    0.000812   -0.389197
  15 C :    0.041742   -0.190467
  16 C :    0.389000    0.022600
  17 C :    0.354752    0.007305
  18 H :    0.617263    0.005090
  19 H :    0.410631    0.003468
  20 H :    0.303681   -0.002299
  21 H :    0.242651    0.014619
  22 H :    0.355819    0.007016
  23 H :    0.314436    0.016690
  24 H :    0.238439    0.020488
  25 H :    0.304055   -0.001928
  26 H :    0.078764    0.001317
  27 H :    0.083824    0.000408
  28 H :    0.049010    0.003663
  29 H :    0.066090    0.000534
Sum of atomic charges       :    0.0000000

LOEWDIN ATOMIC CHARGES AND SPIN DENSITIES
-----------------------------------------
   0 O :    0.071013   -0.031647
   1 O :    0.101356    0.024643
   2 O :    0.106219   -0.000821
   3 O :    0.100058    0.001102
   4 N :    0.263120   -0.000603
   5 N :    0.266860    0.002040
   6 N :    0.323262   -0.005617
   7 N :    0.320324    0.001390
   8 C :    0.008991   -0.078847
   9 C :   -0.044808    0.099480
  10 C :   -0.096626   -0.006336
  11 C :   -0.101171    0.004166
  12 C :    0.184171   -0.014554
  13 C :    0.181459    0.014453
  14 C :   -0.389999   -0.021196
  15 C :   -0.418233    0.011563
  16 C :   -0.507221   -0.000244
  17 C :   -0.471381   -0.000003
  18 H :    0.052507   -0.001022
  19 H :    0.066151    0.000189
  20 H :    0.005551   -0.000302
  21 H :    0.013371   -0.004362
  22 H :   -0.004448   -0.002035
  23 H :    0.031465    0.005400
  24 H :   -0.006863    0.003408
  25 H :    0.013131   -0.000019
  26 H :   -0.031407   -0.000112
  27 H :   -0.030093    0.000224
  28 H :    0.003692   -0.000476
  29 H :   -0.010449    0.000138

  Mayer bond orders larger than 0.100000
B(  0-O , 14-C ) :   1.2547 B(  1-O , 15-C ) :   1.4274 B(  2-O , 16-C ) :   1.5158
B(  3-O , 17-C ) :   1.5630 B(  4-N ,  5-N ) :   0.1492 B(  4-N ,  8-C ) :   0.2991
B(  4-N , 10-C ) :   0.1397 B(  4-N , 16-C ) :   1.1125 B(  4-N , 18-H ) :  -0.1279
B(  4-N , 26-H ) :   1.0834 B(  5-N ,  9-C ) :   0.3812 B(  5-N , 11-C ) :  -0.1539
B(  5-N , 17-C ) :   1.1207 B(  5-N , 19-H ) :  -0.1065 B(  5-N , 27-H ) :   1.0741
B(  6-N ,  8-C ) :  -0.1378 B(  6-N , 10-C ) :   0.1716 B(  6-N , 14-C ) :   1.0542
B(  6-N , 16-C ) :   0.9517 B(  6-N , 28-H ) :   1.0957 B(  7-N , 11-C ) :   0.1345
B(  7-N , 15-C ) :   1.0439 B(  7-N , 17-C ) :   0.9733 B(  7-N , 29-H ) :   1.0361
B(  8-C ,  9-C ) :   0.1410 B(  8-C , 10-C ) :   0.1840 B(  8-C , 12-C ) :   0.5446
B(  8-C , 14-C ) :   0.6679 B(  8-C , 16-C ) :   0.1186 B(  8-C , 18-H ) :  -0.1786
B(  8-C , 20-H ) :  -0.1156 B(  9-C , 13-C ) :   0.5888 B(  9-C , 15-C ) :   1.0254
B(  9-C , 19-H ) :  -0.1471 B(  9-C , 25-H ) :  -0.1033 B( 10-C , 11-C ) :   0.6411
B( 10-C , 15-C ) :   0.1758 B( 10-C , 16-C ) :  -0.1818 B( 10-C , 18-H ) :   0.7636
B( 11-C , 15-C ) :  -0.3871 B( 11-C , 17-C ) :  -0.2039 B( 11-C , 19-H ) :   1.0081
B( 12-C , 20-H ) :   1.0014 B( 12-C , 21-H ) :   0.8779 B( 12-C , 22-H ) :   0.8939
B( 13-C , 23-H ) :   0.9725 B( 13-C , 24-H ) :   0.8278 B( 13-C , 25-H ) :   0.9873
B( 14-C , 16-C ) :  -0.1102

Dispersion correction           -0.058777067
FINAL SINGLE POINT ENERGY      -908.781653115956

DIPOLE MOMENT
-------------

Method             : TDA/CIS
Type of density    : Electron Density
Level              : Relaxed density
State              :   2
Multiplicity       :   3
Irrep              :   0
Energy             :     0.0000000000000000 Eh
Relativity type    :
Basis              : AO
                                X                 Y                 Z
Electronic contribution:     -3.191929591     -10.122463854      -7.096645042
Nuclear contribution   :      3.070310126      11.827549243       9.931696931
                        -----------------------------------------
Total Dipole Moment    :     -0.121619465       1.705085389       2.835051889
                        -----------------------------------------
Magnitude (a.u.)       :      3.310532690
Magnitude (Debye)      :      8.414705370

Rotational constants in cm-1:             0.018878             0.015400             0.012131
Rotational constants in MHz :           565.947355           461.670082           363.666857

                             ****ORCA TERMINATED NORMALLY****
TOTAL RUN TIME: 0 days 0 hours 4 minutes 36 seconds 567 msec
