                         Program Version 6.0.0  -   RELEASE  -
|  1> ! opt def2-TZVPPD wB97M-D3BJ
|  2> %pal nprocs 8 end%pal nprocs 32 end
|  3> %geom Constraints
|  4> {B 9 8 3.2 C}
|  5> {A 8 9 11 43.14285714285714 C}
|  6> end
|  7> MaxIter 300
|  8> end
|  9> *xyz 0 1
| 10> O   2.98579685529314 0.88758230159078 -0.86184571092411
| 11> O   -0.03983205397054 0.68929041702508 -2.10362336723772
| 12> O   0.93431434349854 -3.13274393337945 -0.68767288184107
| 13> O   -3.75829998830163 -0.84727300865116 -0.0472717177755
| 14> N   0.21184538946282 -1.54604804365365 0.7617588924445
| 15> N   -2.13631993928911 0.03188773433438 1.27350571071531
| 16> N   2.02598672506387 -1.14318467211666 -0.64531219127023
| 17> N   -1.91814233924584 0.03137116037665 -1.04498946748291
| 18> C   1.18097737274226 0.71693507080484 0.70173889017321
| 19> C   -0.20686880480777 1.27024627933494 0.21345042231937
| 20> C   0.41441080275909 -0.34173258966541 1.52336266615173
| 21> C   -0.82922175114212 0.58960593673968 1.44434972027296
| 22> C   1.92822011286806 1.69488653817281 1.5963734975385
| 23> C   -0.37809776891576 2.77134929626422 0.04819649358288
| 24> C   2.1403947470937 0.1972384729179 -0.35038567829864
| 25> C   -0.67361678962426 0.6214190571346 -1.0793014500539
| 26> C   1.04142578622994 -2.02697492875068 -0.21027082435993
| 27> C   -2.68467002550422 -0.30396816036989 0.07167054343891
| 28> H   0.80817443950001 -0.54572267081061 2.51895215321335
| 29> H   -0.83785272399001 1.27240685039143 2.28901317073582
| 30> H   2.31167340578204 2.52284411740894 1.00913016264629
| 31> H   1.28982602448342 2.08257620823614 2.38710022492991
| 32> H   2.77390820759972 1.19140411795486 2.06045858523949
| 33> H   -1.41857211141493 3.00964947214868 -0.16882755561625
| 34> H   -0.09065531563179 3.29799318042223 0.95389844358819
| 35> H   0.23426221611057 3.12492645074476 -0.77764887675592
| 36> H   -0.46772570547622 -2.21560145172536 1.0787081584806
| 37> H   -2.71769301149571 -0.17090724573546 2.06627440900372
| 38> H   2.60065167263658 -1.49057255715425 -1.3966820077142
| 39> H   -2.27169977231386 -0.32388339999036 -1.91951041514436
| 40> *
| 41>
| 42>                          ****END OF INPUT****
 Total Charge           Charge          ....    0
 Multiplicity           Mult            ....    1
 Number of Electrons    NEL             ....  132
Dispersion correction           -0.052716229
FINAL SINGLE POINT ENERGY      -908.572971203506
Dispersion correction             ... done (  0.0 sec)
Dispersion correction           -0.053164075
FINAL SINGLE POINT ENERGY      -908.616499998616
Dispersion correction             ... done (  0.0 sec)
Dispersion correction           -0.053699216
FINAL SINGLE POINT ENERGY      -908.647774865079
Dispersion correction             ... done (  0.0 sec)
FINAL SINGLE POINT ENERGY      -908.682410661338
FINAL SINGLE POINT ENERGY      -908.716887309326
FINAL SINGLE POINT ENERGY      -908.733782542184
FINAL SINGLE POINT ENERGY      -908.741398521035
FINAL SINGLE POINT ENERGY      -908.747241845435
FINAL SINGLE POINT ENERGY      -908.749256269450
FINAL SINGLE POINT ENERGY      -908.750279452041
FINAL SINGLE POINT ENERGY      -908.753281400206
FINAL SINGLE POINT ENERGY      -908.753344084979
FINAL SINGLE POINT ENERGY      -908.753415619214
FINAL SINGLE POINT ENERGY      -908.753478300315
FINAL SINGLE POINT ENERGY      -908.753515435641
FINAL SINGLE POINT ENERGY      -908.753538358343
FINAL SINGLE POINT ENERGY      -908.753542582238
Dispersion correction             ... done (  0.0 sec)
Dispersion correction           -0.056831900
FINAL SINGLE POINT ENERGY      -908.753546302074
Dispersion correction             ... done (  0.0 sec)
Dispersion correction           -0.056831053
FINAL SINGLE POINT ENERGY      -908.753547443015
Dispersion correction             ... done (  0.0 sec)
                    ***********************HURRAY********************

CARTESIAN COORDINATES (ANGSTROEM)
---------------------------------
  O      3.980205    0.256833    0.544180
  O     -1.635337    0.899549   -2.546002
  O      1.223355   -2.688400   -1.527143
  O     -3.763072   -0.742911    1.026584
  N      0.308260   -1.288771    0.003491
  N     -1.911235    0.534932    1.397966
  N      2.587539   -1.248833   -0.421068
  N     -2.396651   -0.256586   -0.733522
  C      1.725693    0.265739    1.234310
  C     -0.748930    1.448219   -0.414320
  C      0.398363   -0.361957    1.100440
  C     -0.522627    0.822207    0.961191
  C      2.011560    1.244641    2.304551
  C     -0.629956    2.906238   -0.595429
  C      2.855091   -0.204227    0.449085
  C     -1.578639    0.695292   -1.353528
  C      1.352452   -1.811765   -0.703373
  C     -2.766388   -0.196014    0.615376
  H      0.156693   -0.879826    2.044412
  H     -0.182187    1.609356    1.621321
  H      1.861838    2.277163    1.966171
  H      1.369950    1.092559    3.173279
  H      3.056872    1.170163    2.591777
  H     -1.475074    3.423307   -0.119672
  H      0.281659    3.296489   -0.144935
  H     -0.661752    3.150254   -1.654485
  H     -0.568717   -1.744359   -0.173896
  H     -2.165992    0.546397    2.371155
  H      3.354509   -1.582439   -0.981918
  H     -3.064884   -0.718250   -1.331397

 Multiplicity           Mult            ....    1
 Number of Electrons    NEL             ....  132
 Basis Dimension        Dim             ....  882

ORBITAL ENERGIES
----------------

  NO   OCC          E(Eh)            E(eV)
   0   2.0000     -19.340638      -526.2855
   1   2.0000     -19.332081      -526.0527
   2   2.0000     -19.325483      -525.8731
   3   2.0000     -19.313597      -525.5497
   4   2.0000     -14.569550      -396.4576
   5   2.0000     -14.565066      -396.3356
   6   2.0000     -14.562377      -396.2624
   7   2.0000     -14.558840      -396.1662
   8   2.0000     -10.513393      -286.0840
   9   2.0000     -10.502131      -285.7775
  10   2.0000     -10.490142      -285.4513
  11   2.0000     -10.479989      -285.1750
  12   2.0000     -10.447872      -284.3011
  13   2.0000     -10.442090      -284.1437
  14   2.0000     -10.435075      -283.9528
  15   2.0000     -10.425962      -283.7049
  16   2.0000     -10.382888      -282.5328
  17   2.0000     -10.381276      -282.4889
  18   2.0000      -1.228246       -33.4223
  19   2.0000      -1.215331       -33.0708
  20   2.0000      -1.204143       -32.7664
  21   2.0000      -1.190135       -32.3852
  22   2.0000      -1.122516       -30.5452
  23   2.0000      -1.100019       -29.9330
  24   2.0000      -1.068383       -29.0722
  25   2.0000      -1.059384       -28.8273
  26   2.0000      -0.986360       -26.8402
  27   2.0000      -0.957398       -26.0521
  28   2.0000      -0.895905       -24.3788
  29   2.0000      -0.846406       -23.0319
  30   2.0000      -0.829053       -22.5597
  31   2.0000      -0.802329       -21.8325
  32   2.0000      -0.786089       -21.3906
  33   2.0000      -0.785295       -21.3690
  34   2.0000      -0.703608       -19.1461
  35   2.0000      -0.698002       -18.9936
  36   2.0000      -0.692009       -18.8305
  37   2.0000      -0.681282       -18.5386
  38   2.0000      -0.649981       -17.6869
  39   2.0000      -0.635037       -17.2802
  40   2.0000      -0.626200       -17.0398
  41   2.0000      -0.604672       -16.4540
  42   2.0000      -0.596744       -16.2382
  43   2.0000      -0.588916       -16.0252
  44   2.0000      -0.577739       -15.7211
  45   2.0000      -0.573022       -15.5927
  46   2.0000      -0.565667       -15.3926
  47   2.0000      -0.564303       -15.3555
  48   2.0000      -0.559023       -15.2118
  49   2.0000      -0.556518       -15.1436
  50   2.0000      -0.550609       -14.9828
  51   2.0000      -0.544468       -14.8157
  52   2.0000      -0.529933       -14.4202
  53   2.0000      -0.519575       -14.1384
  54   2.0000      -0.518667       -14.1136
  55   2.0000      -0.508036       -13.8244
  56   2.0000      -0.499126       -13.5819
  57   2.0000      -0.430093       -11.7034
  58   2.0000      -0.420213       -11.4346
  59   2.0000      -0.406774       -11.0689
  60   2.0000      -0.400270       -10.8919
  61   2.0000      -0.397080       -10.8051
  62   2.0000      -0.395517       -10.7626
  63   2.0000      -0.385468       -10.4891
  64   2.0000      -0.382200       -10.4002
  65   2.0000      -0.276832        -7.5330
  66   0.0000      -0.126110        -3.4316
  67   0.0000       0.007956         0.2165
  68   0.0000       0.028350         0.7714
  69   0.0000       0.030807         0.8383
  70   0.0000       0.032428         0.8824

MULLIKEN ATOMIC CHARGES
-----------------------
   0 O :   -0.676209
   1 O :   -0.630359
   2 O :   -0.662642
   3 O :   -0.644499
   4 N :   -0.069715
   5 N :   -0.277833
   6 N :   -0.045019
   7 N :   -0.036368
   8 C :    0.280201
   9 C :    0.257018
  10 C :    0.477591
  11 C :    0.476240
  12 C :   -1.874141
  13 C :   -1.455561
  14 C :    0.591877
  15 C :    0.228053
  16 C :    0.472512
  17 C :    0.383142
  18 H :    0.341118
  19 H :    0.567864
  20 H :    0.332541
  21 H :    0.371223
  22 H :    0.370140
  23 H :    0.353607
  24 H :    0.290892
  25 H :    0.360986
  26 H :    0.049040
  27 H :    0.060634
  28 H :    0.043889
  29 H :    0.063776
Sum of atomic charges:    0.0000000

LOEWDIN ATOMIC CHARGES
----------------------
   0 O :    0.080118
   1 O :    0.113276
   2 O :    0.089506
   3 O :    0.095417
   4 N :    0.299611
   5 N :    0.290777
   6 N :    0.331302
   7 N :    0.309251
   8 C :   -0.006772
   9 C :    0.023961
  10 C :   -0.156498
  11 C :   -0.131185
  12 C :    0.180649
  13 C :    0.186423
  14 C :   -0.396180
  15 C :   -0.405089
  16 C :   -0.471102
  17 C :   -0.486718
  18 H :    0.075639
  19 H :    0.019786
  20 H :    0.012943
  21 H :    0.008062
  22 H :    0.003796
  23 H :    0.021420
  24 H :   -0.002206
  25 H :    0.004088
  26 H :   -0.037876
  27 H :   -0.031066
  28 H :   -0.010131
  29 H :   -0.011201

  Mayer bond orders larger than 0.100000
B(  0-O , 14-C ) :   1.2674 B(  1-O ,  9-C ) :  -0.1140 B(  1-O , 15-C ) :   1.5170
B(  2-O , 16-C ) :   1.5906 B(  3-O , 17-C ) :   1.5749 B(  4-N , 10-C ) :   0.5297
B(  4-N , 16-C ) :   1.0418 B(  4-N , 26-H ) :   1.1409 B(  5-N ,  9-C ) :   0.2591
B(  5-N , 10-C ) :   0.1444 B(  5-N , 17-C ) :   1.2190 B(  5-N , 27-H ) :   1.0610
B(  6-N , 14-C ) :   0.9949 B(  6-N , 16-C ) :   0.9388 B(  6-N , 28-H ) :   1.1218
B(  7-N , 15-C ) :   0.9831 B(  7-N , 17-C ) :   0.9670 B(  7-N , 29-H ) :   1.0609
B(  8-C ,  9-C ) :   0.4725 B(  8-C , 10-C ) :   0.1574 B(  8-C , 11-C ) :   0.3550
B(  8-C , 14-C ) :   0.8116 B(  8-C , 18-H ) :  -0.1554 B(  8-C , 21-H ) :  -0.1545
B(  9-C , 10-C ) :   0.3852 B(  9-C , 13-C ) :   0.3015 B(  9-C , 15-C ) :   0.8621
B( 10-C , 11-C ) :   0.4782 B( 10-C , 12-C ) :  -0.3404 B( 10-C , 14-C ) :   0.1345
B( 10-C , 18-H ) :   1.0891 B( 10-C , 19-H ) :  -0.1070 B( 11-C , 12-C ) :   0.1419
B( 11-C , 15-C ) :  -0.1998 B( 11-C , 17-C ) :  -0.1731 B( 11-C , 19-H ) :   0.7126
B( 12-C , 14-C ) :  -0.2041 B( 12-C , 20-H ) :   0.9250 B( 12-C , 21-H ) :   0.9967
B( 12-C , 22-H ) :   0.9414 B( 13-C , 23-H ) :   0.8464 B( 13-C , 24-H ) :   1.0261
B( 13-C , 25-H ) :   0.9627 B( 18-H , 19-H ) :   0.1011

Dispersion correction           -0.056834462
FINAL SINGLE POINT ENERGY      -908.753548079160

DIPOLE MOMENT
-------------

Method             : SCF
Type of density    : Electron Density
Multiplicity       :   1
Irrep              :   0
Energy             :  -908.6967136172380606 Eh
Relativity type    :
Basis              : AO
                                X                 Y                 Z
Electronic contribution:     -1.860774499      -9.350837035      -5.964233521
Nuclear contribution   :      1.639180914      10.810073399       8.024570035
                        -----------------------------------------
Total Dipole Moment    :     -0.221593585       1.459236364       2.060336514
                        -----------------------------------------
Magnitude (a.u.)       :      2.534454780
Magnitude (Debye)      :      6.442072091

Rotational constants in cm-1:             0.021083             0.011199             0.010095
Rotational constants in MHz :           632.061337           335.722601           302.648246

                             ****ORCA TERMINATED NORMALLY****
TOTAL RUN TIME: 0 days 1 hours 49 minutes 4 seconds 321 msec
