                         Program Version 6.0.0  -   RELEASE  -
|  1> ! EnGrad wB97M-D3BJ def2-TZVPPD
|  2> %pal nprocs 8 end%pal nprocs 16 end
|  3> %tddft
|  4>  sf true
|  5>  nroots 2 Iroot 2 end
|  6> *xyz 0 3
|  7> O   0.10947291091439 0.85604262597334 -0.00019628251869
|  8> C   0.68202472498135 -0.38268059157308 7.454291738e-05
|  9> C   -0.72847882518467 -0.54650762914065 -8.695338237e-05
| 10> H   1.23322569743806 -0.65211396243593 0.90120384236444
| 11> H   1.23300671849909 -0.65220026747056 -0.90119385661236
| 12> H   -1.26370083016344 -0.67104262628525 -0.9263902007874
| 13> H   -1.26335039648478 -0.66989754906786 0.92658890801899
| 14> *
| 15>
| 16>                          ****END OF INPUT****

CARTESIAN COORDINATES (ANGSTROEM)
---------------------------------
  O      0.109473    0.856043   -0.000196
  C      0.682025   -0.382681    0.000075
  C     -0.728479   -0.546508   -0.000087
  H      1.233226   -0.652114    0.901204
  H      1.233007   -0.652200   -0.901194
  H     -1.263701   -0.671043   -0.926390
  H     -1.263350   -0.669898    0.926589

 Total Charge           Charge          ....    0
 Multiplicity           Mult            ....    3
 Number of Electrons    NEL             ....   24
 Basis Dimension        Dim             ....  182

ORBITAL ENERGIES
----------------
                 SPIN UP ORBITALS
  NO   OCC          E(Eh)            E(eV)
   0   1.0000     -19.446748      -529.1729
   1   1.0000     -10.414831      -283.4019
   2   1.0000     -10.344060      -281.4762
   3   1.0000      -1.267470       -34.4896
   4   1.0000      -0.859698       -23.3936
   5   1.0000      -0.763123       -20.7656
   6   1.0000      -0.671973       -18.2853
   7   1.0000      -0.635569       -17.2947
   8   1.0000      -0.558110       -15.1869
   9   1.0000      -0.499351       -13.5880
  10   1.0000      -0.484542       -13.1851
  11   1.0000      -0.463765       -12.6197
  12   1.0000      -0.180248        -4.9048
  13   0.0000       0.038549         1.0490
  14   0.0000       0.062634         1.7043
  15   0.0000       0.071334         1.9411
  16   0.0000       0.086650         2.3579
  17   0.0000       0.111918         3.0455

                 SPIN DOWN ORBITALS
  NO   OCC          E(Eh)            E(eV)
   0   1.0000     -19.414118      -528.2850
   1   1.0000     -10.415391      -283.4172
   2   1.0000     -10.333478      -281.1882
   3   1.0000      -1.200722       -32.6733
   4   1.0000      -0.825209       -22.4551
   5   1.0000      -0.743855       -20.2413
   6   1.0000      -0.620000       -16.8710
   7   1.0000      -0.601082       -16.3563
   8   1.0000      -0.522610       -14.2210
   9   1.0000      -0.474387       -12.9087
  10   1.0000      -0.422874       -11.5070
  11   0.0000      -0.101324        -2.7572
  12   0.0000       0.034298         0.9333
  13   0.0000       0.058394         1.5890
  14   0.0000       0.059524         1.6197
  15   0.0000       0.066185         1.8010

----------------------------------------------------------------------------------------------------
          SPIN FLIP ABSORPTION SPECTRUM VIA TRANSITION ELECTRIC DIPOLE MOMENTS
----------------------------------------------------------------------------------------------------
     Transition      Energy     Energy  Wavelength fosc(D2)      D2        DX        DY        DZ
                      (eV)      (cm-1)    (nm)                 (au**2)    (au)      (au)      (au)
----------------------------------------------------------------------------------------------------
  1-3A  ->  2-3A    5.439991   43876.5   227.9   0.005434000   0.04077  -0.00028  -0.00019   0.20192

Dispersion correction             ... done (  0.0 sec)

MULLIKEN ATOMIC CHARGES AND SPIN DENSITIES
------------------------------------------
   0 O :   -0.299687    0.437259
   1 C :    0.111370    0.284857
   2 C :    0.065766   -0.078310
   3 H :    0.197427    0.016117
   4 H :    0.197169    0.015932
   5 H :   -0.135917   -0.337775
   6 H :   -0.136128   -0.338079
Sum of atomic charges       :    0.0000000

LOEWDIN ATOMIC CHARGES AND SPIN DENSITIES
-----------------------------------------
   0 O :    0.097667    0.552916
   1 C :   -0.096265    0.037232
   2 C :    0.090640   -0.399522
   3 H :    0.026326    0.008816
   4 H :    0.026339    0.008848
   5 H :   -0.072371   -0.104187
   6 H :   -0.072335   -0.104104

  Mayer bond orders larger than 0.100000
B(  0-O ,  1-C ) :   0.7776 B(  0-O ,  2-C ) :   0.6643 B(  1-C ,  2-C ) :   0.6357
B(  1-C ,  3-H ) :   0.9890 B(  1-C ,  4-H ) :   0.9888 B(  1-C ,  5-H ) :  -0.1005
B(  1-C ,  6-H ) :  -0.1007 B(  2-C ,  5-H ) :   1.0363 B(  2-C ,  6-H ) :   1.0367
B(  5-H ,  6-H ) :   0.4095

Dispersion correction           -0.005242834
FINAL SINGLE POINT ENERGY      -153.655653880195

DIPOLE MOMENT
-------------

Method             : TDA/CIS
Type of density    : Electron Density
Level              : Relaxed density
State              :   2
Multiplicity       :   3
Irrep              :   0
Energy             :     0.0000000000000000 Eh
Relativity type    :
Basis              : AO
                                X                 Y                 Z
Electronic contribution:      0.750152536       2.344811533      -0.000399977
Nuclear contribution   :     -0.152266885      -2.457845661       0.000456212
                        -----------------------------------------
Total Dipole Moment    :      0.597885651      -0.113034128       0.000056235
                        -----------------------------------------
Magnitude (a.u.)       :      0.608476761
Magnitude (Debye)      :      1.546625014

Rotational constants in cm-1:             0.899302             0.668110             0.452658
Rotational constants in MHz :         26960.403561         20029.439909         13570.347325

                             ****ORCA TERMINATED NORMALLY****
TOTAL RUN TIME: 0 days 0 hours 0 minutes 18 seconds 175 msec
