                         Program Version 6.0.0  -   RELEASE  -
|  1> ! Engrad wB97M-D3BJ def2-TZVPPD
|  2> %pal nprocs 8 end%pal nprocs 16 end
|  3> %tddft nroots 2 Iroot 2
|  4>  sf true
|  5> end
|  6> *xyz 0 3
|  7> O   1.36622190244439 1.06012830032971 -0.07110629060736
|  8> C   0.92747069056499 -0.00320994666508 0.27408685748675
|  9> C   -0.31069340461712 -0.67782299512273 -0.23224803710129
| 10> H   1.46653134220287 -0.5835347571296 1.05029573164787
| 11> H   -0.04013066418741 -1.65230443958195 -0.64003915268062
| 12> H   -0.80938993833514 -0.07914776158165 -0.98871230679236
| 13> H   -0.98200980346162 -0.85946288496768 0.60772319804701
| 14> *
| 15>
| 16>                          ****END OF INPUT****

CARTESIAN COORDINATES (ANGSTROEM)
---------------------------------
  O      1.366222    1.060128   -0.071106
  C      0.927471   -0.003210    0.274087
  C     -0.310693   -0.677823   -0.232248
  H      1.466531   -0.583535    1.050296
  H     -0.040131   -1.652304   -0.640039
  H     -0.809390   -0.079148   -0.988712
  H     -0.982010   -0.859463    0.607723

 Total Charge           Charge          ....    0
 Multiplicity           Mult            ....    3
 Number of Electrons    NEL             ....   24
 Basis Dimension        Dim             ....  182

ORBITAL ENERGIES
----------------
                 SPIN UP ORBITALS
  NO   OCC          E(Eh)            E(eV)
   0   1.0000     -19.409101      -528.1485
   1   1.0000     -10.379410      -282.4381
   2   1.0000     -10.367401      -282.1113
   3   1.0000      -1.245727       -33.8980
   4   1.0000      -0.883459       -24.0401
   5   1.0000      -0.717646       -19.5281
   6   1.0000      -0.634198       -17.2574
   7   1.0000      -0.587635       -15.9903
   8   1.0000      -0.581791       -15.8314
   9   1.0000      -0.515389       -14.0244
  10   1.0000      -0.514212       -13.9924
  11   1.0000      -0.432436       -11.7672
  12   1.0000      -0.219835        -5.9820
  13   0.0000       0.040503         1.1021
  14   0.0000       0.060189         1.6378
  15   0.0000       0.078349         2.1320
  16   0.0000       0.087860         2.3908
  17   0.0000       0.107588         2.9276

                 SPIN DOWN ORBITALS
  NO   OCC          E(Eh)            E(eV)
   0   1.0000     -19.381546      -527.3987
   1   1.0000     -10.369148      -282.1589
   2   1.0000     -10.365271      -282.0534
   3   1.0000      -1.188247       -32.3338
   4   1.0000      -0.864297       -23.5187
   5   1.0000      -0.672737       -18.3061
   6   1.0000      -0.585909       -15.9434
   7   1.0000      -0.540981       -14.7208
   8   1.0000      -0.535497       -14.5716
   9   1.0000      -0.499188       -13.5836
  10   1.0000      -0.471404       -12.8276
  11   0.0000      -0.083254        -2.2654
  12   0.0000       0.040989         1.1154
  13   0.0000       0.059855         1.6287
  14   0.0000       0.078174         2.1272
  15   0.0000       0.084290         2.2937

----------------------------------------------------------------------------------------------------
          SPIN FLIP ABSORPTION SPECTRUM VIA TRANSITION ELECTRIC DIPOLE MOMENTS
----------------------------------------------------------------------------------------------------
     Transition      Energy     Energy  Wavelength fosc(D2)      D2        DX        DY        DZ
                      (eV)      (cm-1)    (nm)                 (au**2)    (au)      (au)      (au)
----------------------------------------------------------------------------------------------------
  1-3A  ->  2-3A    4.598413   37088.7   269.6   0.000123277   0.00109  -0.01780   0.01498   0.02352

Dispersion correction             ... done (  0.0 sec)

MULLIKEN ATOMIC CHARGES AND SPIN DENSITIES
------------------------------------------
   0 O :   -0.260051    0.586129
   1 C :    0.221070   -0.617319
   2 C :   -0.710316    0.118881
   3 H :    0.099176    0.006702
   4 H :    0.200600   -0.046510
   5 H :    0.248083   -0.003035
   6 H :    0.201439   -0.044849
Sum of atomic charges       :    0.0000000

LOEWDIN ATOMIC CHARGES AND SPIN DENSITIES
-----------------------------------------
   0 O :    0.159702    0.396884
   1 C :   -0.257645   -0.347006
   2 C :    0.135451   -0.013613
   3 H :    0.009514   -0.001157
   4 H :   -0.019083   -0.020264
   5 H :   -0.008913    0.005383
   6 H :   -0.019026   -0.020226

  Mayer bond orders larger than 0.100000
B(  0-O ,  1-C ) :   1.2789 B(  1-C ,  2-C ) :   0.6352 B(  1-C ,  3-H ) :   1.0082
B(  2-C ,  4-H ) :   1.0114 B(  2-C ,  5-H ) :   0.9329 B(  2-C ,  6-H ) :   1.0099

Dispersion correction           -0.005530268
FINAL SINGLE POINT ENERGY      -153.755609212967

DIPOLE MOMENT
-------------

Method             : TDA/CIS
Type of density    : Electron Density
Level              : Relaxed density
State              :   2
Multiplicity       :   3
Irrep              :   0
Energy             :     0.0000000000000000 Eh
Relativity type    :
Basis              : AO
                                X                 Y                 Z
Electronic contribution:      2.429948492       2.938079165      -0.034652401
Nuclear contribution   :     -2.793671320      -3.439835269       0.078198642
                        -----------------------------------------
Total Dipole Moment    :     -0.363722828      -0.501756104       0.043546241
                        -----------------------------------------
Magnitude (a.u.)       :      0.621248548
Magnitude (Debye)      :      1.579088316

Rotational constants in cm-1:             1.987184             0.334422             0.302139
Rotational constants in MHz :         59574.288230         10025.714453          9057.908454

                             ****ORCA TERMINATED NORMALLY****
TOTAL RUN TIME: 0 days 0 hours 0 minutes 16 seconds 352 msec
