                         Program Version 6.0.0  -   RELEASE  -
|  1> ! Engrad def2-TZVPPD wB97M-D3BJ
|  2> %pal nprocs 8 end%pal nprocs 64 end
|  3> %tddft
|  4>  Iroot 1 Nroots 3
|  5> sf true
|  6> end
|  7> *xyz 0 3
|  8> O   0.14033343 1.00228469 0.75442857
|  9> C   0.50237366 -0.31367172 0.44248675
| 10> C   0.58421714 -0.57577446 -1.04694504
| 11> H   -0.3140686 -0.88433155 0.96305011
| 12> H   1.5225667 -0.610464 0.82881285
| 13> H   1.36395845 -0.93637178 -1.52532713
| 14> H   -0.03920708 -0.07443576 -1.85090595
| 15> *
| 16>
| 17>                          ****END OF INPUT****

CARTESIAN COORDINATES (ANGSTROEM)
---------------------------------
  O      0.140333    1.002285    0.754429
  C      0.502374   -0.313672    0.442487
  C      0.584217   -0.575774   -1.046945
  H     -0.314069   -0.884332    0.963050
  H      1.522567   -0.610464    0.828813
  H      1.363958   -0.936372   -1.525327
  H     -0.039207   -0.074436   -1.850906

 Total Charge           Charge          ....    0
 Multiplicity           Mult            ....    3
 Number of Electrons    NEL             ....   24
 Basis Dimension        Dim             ....  182

ORBITAL ENERGIES
----------------
                 SPIN UP ORBITALS
  NO   OCC          E(Eh)            E(eV)
   0   1.0000     -19.394252      -527.7444
   1   1.0000     -10.426843      -283.7288
   2   1.0000     -10.365342      -282.0553
   3   1.0000      -1.161476       -31.6054
   4   1.0000      -0.874559       -23.7979
   5   1.0000      -0.743177       -20.2229
   6   1.0000      -0.611633       -16.6434
   7   1.0000      -0.585411       -15.9298
   8   1.0000      -0.556947       -15.1553
   9   1.0000      -0.498819       -13.5736
  10   1.0000      -0.449179       -12.2228
  11   1.0000      -0.417596       -11.3634
  12   1.0000      -0.329187        -8.9576
  13   0.0000       0.041331         1.1247
  14   0.0000       0.060178         1.6375
  15   0.0000       0.078985         2.1493
  16   0.0000       0.087302         2.3756
  17   0.0000       0.112103         3.0505

                 SPIN DOWN ORBITALS
  NO   OCC          E(Eh)            E(eV)
   0   1.0000     -19.369818      -527.0796
   1   1.0000     -10.428206      -283.7659
   2   1.0000     -10.352070      -281.6941
   3   1.0000      -1.105127       -30.0720
   4   1.0000      -0.841562       -22.9001
   5   1.0000      -0.717022       -19.5112
   6   1.0000      -0.582230       -15.8433
   7   1.0000      -0.549894       -14.9634
   8   1.0000      -0.528756       -14.3882
   9   1.0000      -0.479491       -13.0476
  10   1.0000      -0.386783       -10.5249
  11   0.0000      -0.053770        -1.4632
  12   0.0000      -0.005746        -0.1564
  13   0.0000       0.040156         1.0927
  14   0.0000       0.060661         1.6507
  15   0.0000       0.079003         2.1498

----------------------------------------------------------------------------------------------------
          SPIN FLIP ABSORPTION SPECTRUM VIA TRANSITION ELECTRIC DIPOLE MOMENTS
----------------------------------------------------------------------------------------------------
     Transition      Energy     Energy  Wavelength fosc(D2)      D2        DX        DY        DZ
                      (eV)      (cm-1)    (nm)                 (au**2)    (au)      (au)      (au)
----------------------------------------------------------------------------------------------------
  1-3A  ->  2-3A    0.081523     657.5  15208.5   0.000005043   0.00252   0.04043  -0.02943  -0.00496
  1-3A  ->  3-3A    1.006450    8117.6  1231.9   0.009142679   0.37079  -0.10964   0.49926   0.33092

Dispersion correction             ... done (  0.1 sec)

MULLIKEN ATOMIC CHARGES AND SPIN DENSITIES
------------------------------------------
   0 O :   -0.424246   -0.643670
   1 C :   -0.017636   -0.065083
   2 C :   -0.555638    0.606419
   3 H :    0.237077    0.073993
   4 H :    0.219127   -0.064964
   5 H :    0.290910    0.063095
   6 H :    0.250405    0.030210
Sum of atomic charges       :    0.0000000

LOEWDIN ATOMIC CHARGES AND SPIN DENSITIES
-----------------------------------------
   0 O :   -0.056441   -0.634056
   1 C :   -0.247919    0.004545
   2 C :    0.353466    0.524344
   3 H :    0.032433    0.022643
   4 H :    0.049265   -0.053920
   5 H :   -0.138759    0.085693
   6 H :    0.007954    0.050751

  Mayer bond orders larger than 0.100000
B(  0-O ,  1-C ) :   0.9383 B(  0-O ,  2-C ) :   0.2952 B(  1-C ,  2-C ) :   0.7623
B(  1-C ,  3-H ) :   1.0036 B(  1-C ,  4-H ) :   0.9212 B(  2-C ,  5-H ) :   0.9278
B(  2-C ,  6-H ) :   0.9623

Dispersion correction           -0.005424815
FINAL SINGLE POINT ENERGY      -153.738488016085

DIPOLE MOMENT
-------------

Method             : TDA/CIS
Type of density    : Electron Density
Level              : Relaxed density
State              :   1
Multiplicity       :   3
Irrep              :   0
Energy             :     0.0000000000000000 Eh
Relativity type    :
Basis              : AO
                                X                 Y                 Z
Electronic contribution:     -0.457216126       1.517999716       1.120340093
Nuclear contribution   :      0.852166153      -2.577625023      -1.750035208
                        -----------------------------------------
Total Dipole Moment    :      0.394950027      -1.059625307      -0.629695115
                        -----------------------------------------
Magnitude (a.u.)       :      1.294336607
Magnitude (Debye)      :      3.289942199

Rotational constants in cm-1:             1.388721             0.339730             0.295037
Rotational constants in MHz :         41632.796783         10184.850563          8845.000893

                             ****ORCA TERMINATED NORMALLY****
TOTAL RUN TIME: 0 days 0 hours 0 minutes 27 seconds 2 msec
