                         Program Version 6.0.0  -   RELEASE  -
|  1> ! Engrad def2-TZVPPD wB97M-D3BJ
|  2> %pal nprocs 8 end%pal nprocs 64 end
|  3> %tddft
|  4>  Iroot 2 Nroots 3
|  5> sf true
|  6> end
|  7> *xyz 0 3
|  8> O   1.09566875 -0.87700851 -0.00238825
|  9> C   0.51337423 0.21228355 0.53453043
| 10> C   -0.48216528 0.9289539 -0.34045592
| 11> H   1.24483958 1.04952506 0.84472642
| 12> H   0.03489525 -0.17470467 1.47536576
| 13> H   -0.56472088 2.00561233 -0.35978433
| 14> H   -1.03995286 0.34835143 -1.0830075
| 15> *
| 16>
| 17>                          ****END OF INPUT****

CARTESIAN COORDINATES (ANGSTROEM)
---------------------------------
  O      1.095669   -0.877009   -0.002388
  C      0.513374    0.212284    0.534530
  C     -0.482165    0.928954   -0.340456
  H      1.244840    1.049525    0.844726
  H      0.034895   -0.174705    1.475366
  H     -0.564721    2.005612   -0.359784
  H     -1.039953    0.348351   -1.083007

 Total Charge           Charge          ....    0
 Multiplicity           Mult            ....    3
 Number of Electrons    NEL             ....   24
 Basis Dimension        Dim             ....  182

ORBITAL ENERGIES
----------------
                 SPIN UP ORBITALS
  NO   OCC          E(Eh)            E(eV)
   0   1.0000     -19.393303      -527.7186
   1   1.0000     -10.422473      -283.6099
   2   1.0000     -10.369545      -282.1697
   3   1.0000      -1.179819       -32.1045
   4   1.0000      -0.871361       -23.7109
   5   1.0000      -0.730153       -19.8685
   6   1.0000      -0.614658       -16.7257
   7   1.0000      -0.592426       -16.1207
   8   1.0000      -0.557990       -15.1837
   9   1.0000      -0.510864       -13.9013
  10   1.0000      -0.445993       -12.1361
  11   1.0000      -0.410571       -11.1722
  12   1.0000      -0.322659        -8.7800
  13   0.0000       0.041141         1.1195
  14   0.0000       0.060707         1.6519
  15   0.0000       0.078136         2.1262
  16   0.0000       0.085592         2.3291
  17   0.0000       0.109817         2.9883

                 SPIN DOWN ORBITALS
  NO   OCC          E(Eh)            E(eV)
   0   1.0000     -19.370008      -527.0847
   1   1.0000     -10.423932      -283.6496
   2   1.0000     -10.356112      -281.8041
   3   1.0000      -1.127497       -30.6808
   4   1.0000      -0.838399       -22.8140
   5   1.0000      -0.701342       -19.0845
   6   1.0000      -0.583158       -15.8685
   7   1.0000      -0.549141       -14.9429
   8   1.0000      -0.534702       -14.5500
   9   1.0000      -0.493211       -13.4210
  10   1.0000      -0.381999       -10.3947
  11   0.0000      -0.058088        -1.5807
  12   0.0000      -0.000595        -0.0162
  13   0.0000       0.040391         1.0991
  14   0.0000       0.060811         1.6547
  15   0.0000       0.078100         2.1252

----------------------------------------------------------------------------------------------------
          SPIN FLIP ABSORPTION SPECTRUM VIA TRANSITION ELECTRIC DIPOLE MOMENTS
----------------------------------------------------------------------------------------------------
     Transition      Energy     Energy  Wavelength fosc(D2)      D2        DX        DY        DZ
                      (eV)      (cm-1)    (nm)                 (au**2)    (au)      (au)      (au)
----------------------------------------------------------------------------------------------------
  1-3A  ->  2-3A    0.224224    1808.5  5529.5   0.000508167   0.09251   0.13579  -0.25817   0.08613
  1-3A  ->  3-3A    0.845693    6821.0  1466.1   0.018900271   0.91221  -0.63059   0.71701   0.02162

Dispersion correction             ... done (  0.2 sec)

MULLIKEN ATOMIC CHARGES AND SPIN DENSITIES
------------------------------------------
   0 O :   -0.337008    0.548345
   1 C :   -0.011086    0.047360
   2 C :   -0.337197   -0.440240
   3 H :    0.201150   -0.051067
   4 H :    0.168584   -0.006259
   5 H :    0.150248   -0.045511
   6 H :    0.165308   -0.052628
Sum of atomic charges       :   -0.0000000

LOEWDIN ATOMIC CHARGES AND SPIN DENSITIES
-----------------------------------------
   0 O :    0.061173    0.516530
   1 C :   -0.310543   -0.029952
   2 C :    0.289936   -0.365857
   3 H :    0.048323   -0.029127
   4 H :    0.043894    0.012125
   5 H :   -0.074568   -0.052348
   6 H :   -0.058214   -0.051372

  Mayer bond orders larger than 0.100000
B(  0-O ,  1-C ) :   0.8657 B(  0-O ,  2-C ) :   0.1215 B(  1-C ,  2-C ) :   0.8484
B(  1-C ,  3-H ) :   0.9584 B(  1-C ,  4-H ) :   0.9639 B(  2-C ,  5-H ) :   1.0317
B(  2-C ,  6-H ) :   1.0038

Dispersion correction           -0.005476860
FINAL SINGLE POINT ENERGY      -153.749285420803

DIPOLE MOMENT
-------------

Method             : TDA/CIS
Type of density    : Electron Density
Level              : Relaxed density
State              :   2
Multiplicity       :   3
Irrep              :   0
Energy             :     0.0000000000000000 Eh
Relativity type    :
Basis              : AO
                                X                 Y                 Z
Electronic contribution:      1.456155171      -2.190490779      -0.240285018
Nuclear contribution   :     -1.791856637       2.765554872       0.551312386
                        -----------------------------------------
Total Dipole Moment    :     -0.335701466       0.575064093       0.311027368
                        -----------------------------------------
Magnitude (a.u.)       :      0.734936875
Magnitude (Debye)      :      1.868061078

Rotational constants in cm-1:             1.488935             0.343421             0.300198
Rotational constants in MHz :         44637.153415         10295.497948          8999.697493

                             ****ORCA TERMINATED NORMALLY****
TOTAL RUN TIME: 0 days 0 hours 0 minutes 26 seconds 186 msec
