                         Program Version 6.0.0  -   RELEASE  -
|  1> ! Engrad def2-TZVPPD wB97M-D3BJ
|  2> %pal nprocs 8 end%pal nprocs 64 end
|  3> %tddft
|  4> Iroot 2 Nroots 3
|  5> sf true
|  6> end
|  7> *xyz 0 3
|  8> O   2.5618690004408844 1.1722079359505935 -0.44525917856168873
|  9> O   -0.6882600513756848 0.8766280266194375 -2.3539671727268923
| 10> O   0.5259580756051984 -2.73368636957222 -1.4737382819816374
| 11> O   -2.52252310483902 -1.5493110965694559 0.9731881558207027
| 12> N   0.5997636203984685 -2.0819136403650185 0.6764161632723275
| 13> N   -1.9429055699206057 0.5598946443489045 1.4065261620711331
| 14> N   1.6208215884874069 -0.8214194204436118 -0.9208614967195462
| 15> N   -1.6284230412754321 -0.3087447419471077 -0.6871702823278055
| 16> C   1.5100863416378716 0.025420491086436545 1.2887378614851086
| 17> C   -0.8683160202378953 1.8952473927853806 -0.23335792781322126
| 18> C   0.8354833763460574 -1.0959074986776658 1.5928124791350073
| 19> C   -1.2814230156880846 1.6788623090429817 1.024650563657309
| 20> C   1.8576162484654908 1.0347357981063297 2.283712318490783
| 21> C   -0.3358316433543872 3.172394883460214 -0.6764344036725951
| 22> C   1.9570712638622958 0.20248311429481153 -0.06706600663407908
| 23> C   -1.0344431379020498 0.829714404012546 -1.2008196610448179
| 24> C   0.8899069050090456 -1.9405860917417035 -0.6452079720917966
| 25> C   -2.0648096747713702 -0.5071065116917294 0.5869177655613507
| 26> H   0.577821904954138 -1.3515822586451096 2.6056140126154035
| 27> H   -1.2454392094809108 2.4550444818203445 1.7671724042924501
| 28> H   1.5206031753845204 2.0155860902965017 1.959668486237652
| 29> H   1.421222828092726 0.8460944433144506 3.261030548358696
| 30> H   2.924943022514106 1.1453423123137565 2.4514377220591723
| 31> H   -0.9651086511932695 3.552340600868502 -1.4778017365245166
| 32> H   -0.25261127237730274 3.932636272570802 0.09011323157943152
| 33> H   0.6579376486599473 3.053045000406119 -1.1008259622190284
| 34> H   -0.02940225985486129 -2.833054199202584 0.8913333563407687
| 35> H   -2.2512894072284064 0.4443170354565926 2.3510789844591935
| 36> H   1.812525940571918 -0.6681398219931729 -1.89845542912499
| 37> H   -1.7102448809308257 -1.0855435859053877 -1.3248447039938813
| 38> *
| 39>
| 40>                          ****END OF INPUT****

CARTESIAN COORDINATES (ANGSTROEM)
---------------------------------
  O      2.561869    1.172208   -0.445259
  O     -0.688260    0.876628   -2.353967
  O      0.525958   -2.733686   -1.473738
  O     -2.522523   -1.549311    0.973188
  N      0.599764   -2.081914    0.676416
  N     -1.942906    0.559895    1.406526
  N      1.620822   -0.821419   -0.920861
  N     -1.628423   -0.308745   -0.687170
  C      1.510086    0.025420    1.288738
  C     -0.868316    1.895247   -0.233358
  C      0.835483   -1.095907    1.592812
  C     -1.281423    1.678862    1.024651
  C      1.857616    1.034736    2.283712
  C     -0.335832    3.172395   -0.676434
  C      1.957071    0.202483   -0.067066
  C     -1.034443    0.829714   -1.200820
  C      0.889907   -1.940586   -0.645208
  C     -2.064810   -0.507107    0.586918
  H      0.577822   -1.351582    2.605614
  H     -1.245439    2.455044    1.767172
  H      1.520603    2.015586    1.959668
  H      1.421223    0.846094    3.261031
  H      2.924943    1.145342    2.451438
  H     -0.965109    3.552341   -1.477802
  H     -0.252611    3.932636    0.090113
  H      0.657938    3.053045   -1.100826
  H     -0.029402   -2.833054    0.891333
  H     -2.251289    0.444317    2.351079
  H      1.812526   -0.668140   -1.898455
  H     -1.710245   -1.085544   -1.324845

 Total Charge           Charge          ....    0
 Multiplicity           Mult            ....    3
 Number of Electrons    NEL             ....  132
 Basis Dimension        Dim             ....  882

ORBITAL ENERGIES
----------------
                 SPIN UP ORBITALS
  NO   OCC          E(Eh)            E(eV)
   0   1.0000     -19.333748      -526.0980
   1   1.0000     -19.317913      -525.6671
   2   1.0000     -19.316544      -525.6299
   3   1.0000     -19.315640      -525.6053
   4   1.0000     -14.595983      -397.1769
   5   1.0000     -14.573811      -396.5736
   6   1.0000     -14.561859      -396.2483
   7   1.0000     -14.553941      -396.0329
   8   1.0000     -10.510218      -285.9976
   9   1.0000     -10.501130      -285.7503
  10   1.0000     -10.469535      -284.8905
  11   1.0000     -10.455054      -284.4965
  12   1.0000     -10.428149      -283.7644
  13   1.0000     -10.403133      -283.0836
  14   1.0000     -10.397752      -282.9372
  15   1.0000     -10.373130      -282.2672
  16   1.0000     -10.358355      -281.8652
  17   1.0000     -10.354280      -281.7543
  18   1.0000      -1.240665       -33.7602
  19   1.0000      -1.225449       -33.3462
  20   1.0000      -1.195808       -32.5396
  21   1.0000      -1.193287       -32.4710
  22   1.0000      -1.137364       -30.9493
  23   1.0000      -1.121478       -30.5170
  24   1.0000      -1.072436       -29.1825
  25   1.0000      -1.069583       -29.1048
  26   1.0000      -0.981378       -26.7046
  27   1.0000      -0.959872       -26.1194
  28   1.0000      -0.860364       -23.4117
  29   1.0000      -0.849941       -23.1281
  30   1.0000      -0.818860       -22.2823
  31   1.0000      -0.812024       -22.0963
  32   1.0000      -0.800489       -21.7824
  33   1.0000      -0.792884       -21.5755
  34   1.0000      -0.708410       -19.2768
  35   1.0000      -0.701501       -19.0888
  36   1.0000      -0.693523       -18.8717
  37   1.0000      -0.693170       -18.8621
  38   1.0000      -0.650080       -17.6896
  39   1.0000      -0.638377       -17.3711
  40   1.0000      -0.635851       -17.3024
  41   1.0000      -0.605802       -16.4847
  42   1.0000      -0.598805       -16.2943
  43   1.0000      -0.592146       -16.1131
  44   1.0000      -0.577186       -15.7060
  45   1.0000      -0.574906       -15.6440
  46   1.0000      -0.561209       -15.2713
  47   1.0000      -0.553613       -15.0646
  48   1.0000      -0.550270       -14.9736
  49   1.0000      -0.548147       -14.9158
  50   1.0000      -0.534395       -14.5416
  51   1.0000      -0.530169       -14.4266
  52   1.0000      -0.526158       -14.3175
  53   1.0000      -0.515457       -14.0263
  54   1.0000      -0.504704       -13.7337
  55   1.0000      -0.498724       -13.5710
  56   1.0000      -0.497076       -13.5261
  57   1.0000      -0.471783       -12.8379
  58   1.0000      -0.424378       -11.5479
  59   1.0000      -0.412233       -11.2174
  60   1.0000      -0.410128       -11.1602
  61   1.0000      -0.397482       -10.8160
  62   1.0000      -0.387922       -10.5559
  63   1.0000      -0.386490       -10.5169
  64   1.0000      -0.382653       -10.4125
  65   1.0000      -0.341675        -9.2974
  66   1.0000      -0.211252        -5.7484
  67   0.0000       0.011178         0.3042
  68   0.0000       0.022609         0.6152
  69   0.0000       0.033186         0.9030
  70   0.0000       0.039173         1.0660
  71   0.0000       0.040500         1.1021

                 SPIN DOWN ORBITALS
  NO   OCC          E(Eh)            E(eV)
   0   1.0000     -19.331710      -526.0426
   1   1.0000     -19.316491      -525.6284
   2   1.0000     -19.315589      -525.6039
   3   1.0000     -19.311932      -525.5044
   4   1.0000     -14.591485      -397.0545
   5   1.0000     -14.573751      -396.5719
   6   1.0000     -14.561870      -396.2486
   7   1.0000     -14.552948      -396.0059
   8   1.0000     -10.510509      -286.0055
   9   1.0000     -10.501138      -285.7505
  10   1.0000     -10.469537      -284.8906
  11   1.0000     -10.454639      -284.4852
  12   1.0000     -10.428049      -283.7616
  13   1.0000     -10.393753      -282.8284
  14   1.0000     -10.387253      -282.6515
  15   1.0000     -10.373152      -282.2678
  16   1.0000     -10.358720      -281.8751
  17   1.0000     -10.354172      -281.7513
  18   1.0000      -1.236283       -33.6410
  19   1.0000      -1.225281       -33.3416
  20   1.0000      -1.193429       -32.4748
  21   1.0000      -1.186706       -32.2919
  22   1.0000      -1.126999       -30.6672
  23   1.0000      -1.121338       -30.5132
  24   1.0000      -1.069544       -29.1038
  25   1.0000      -1.067122       -29.0379
  26   1.0000      -0.960782       -26.1442
  27   1.0000      -0.956464       -26.0267
  28   1.0000      -0.850126       -23.1331
  29   1.0000      -0.847592       -23.0641
  30   1.0000      -0.812413       -22.1069
  31   1.0000      -0.808666       -22.0049
  32   1.0000      -0.793464       -21.5913
  33   1.0000      -0.792616       -21.5682
  34   1.0000      -0.696132       -18.9427
  35   1.0000      -0.694111       -18.8877
  36   1.0000      -0.693140       -18.8613
  37   1.0000      -0.692966       -18.8565
  38   1.0000      -0.639450       -17.4003
  39   1.0000      -0.635684       -17.2978
  40   1.0000      -0.631590       -17.1864
  41   1.0000      -0.596905       -16.2426
  42   1.0000      -0.591796       -16.1036
  43   1.0000      -0.590163       -16.0592
  44   1.0000      -0.568116       -15.4592
  45   1.0000      -0.561940       -15.2912
  46   1.0000      -0.558011       -15.1842
  47   1.0000      -0.548676       -14.9302
  48   1.0000      -0.545065       -14.8320
  49   1.0000      -0.540129       -14.6976
  50   1.0000      -0.526446       -14.3253
  51   1.0000      -0.525921       -14.3110
  52   1.0000      -0.517951       -14.0942
  53   1.0000      -0.505872       -13.7655
  54   1.0000      -0.499643       -13.5960
  55   1.0000      -0.498342       -13.5606
  56   1.0000      -0.470734       -12.8093
  57   1.0000      -0.455558       -12.3964
  58   1.0000      -0.420086       -11.4311
  59   1.0000      -0.410559       -11.1719
  60   1.0000      -0.397512       -10.8168
  61   1.0000      -0.386463       -10.5162
  62   1.0000      -0.382938       -10.4203
  63   1.0000      -0.379236       -10.3195
  64   1.0000      -0.340826        -9.2744
  65   0.0000      -0.105116        -2.8603
  66   0.0000       0.010894         0.2964
  67   0.0000       0.023900         0.6504
  68   0.0000       0.031984         0.8703
  69   0.0000       0.038152         1.0382

----------------------------------------------------------------------------------------------------
          SPIN FLIP ABSORPTION SPECTRUM VIA TRANSITION ELECTRIC DIPOLE MOMENTS
----------------------------------------------------------------------------------------------------
     Transition      Energy     Energy  Wavelength fosc(D2)      D2        DX        DY        DZ
                      (eV)      (cm-1)    (nm)                 (au**2)    (au)      (au)      (au)
----------------------------------------------------------------------------------------------------
  1-3A  ->  2-3A    4.154560   33508.8   298.4   0.001142189   0.01122  -0.01537   0.03550   0.09862
  1-3A  ->  3-1A    5.435717   43842.0   228.1   0.557664291   4.18753   0.67078   0.31351  -1.90769

Dispersion correction             ... done (  0.1 sec)

MULLIKEN ATOMIC CHARGES AND SPIN DENSITIES
------------------------------------------
   0 O :   -0.681177   -0.002132
   1 O :   -0.693620    0.005805
   2 O :   -0.651324   -0.000036
   3 O :   -0.648206    0.003890
   4 N :   -0.034338   -0.001126
   5 N :    0.053251    0.018981
   6 N :    0.038084   -0.005426
   7 N :    0.019629   -0.009455
   8 C :    0.861716   -0.040781
   9 C :    1.201141    0.040056
  10 C :   -0.007600    0.006127
  11 C :   -0.424432    0.087356
  12 C :   -1.412985    0.000058
  13 C :   -1.350787   -0.009451
  14 C :    0.361682    0.037861
  15 C :    0.299589   -0.145632
  16 C :    0.363692   -0.000369
  17 C :    0.448197   -0.007656
  18 H :    0.148562    0.001293
  19 H :    0.111965   -0.002015
  20 H :    0.229544   -0.002494
  21 H :    0.330052    0.001708
  22 H :    0.345594   -0.001682
  23 H :    0.358659    0.010166
  24 H :    0.336667   -0.004195
  25 H :    0.265397    0.016107
  26 H :    0.050631    0.000408
  27 H :    0.033459   -0.000134
  28 H :    0.028801    0.000089
  29 H :    0.018154    0.002678
Sum of atomic charges       :    0.0000000

LOEWDIN ATOMIC CHARGES AND SPIN DENSITIES
-----------------------------------------
   0 O :    0.103318   -0.000713
   1 O :    0.091249    0.004426
   2 O :    0.096455   -0.000166
   3 O :    0.108379    0.002761
   4 N :    0.282728   -0.000108
   5 N :    0.313644    0.017514
   6 N :    0.351757   -0.000140
   7 N :    0.326705   -0.007142
   8 C :   -0.155690   -0.000456
   9 C :   -0.108469    0.007368
  10 C :    0.058480   -0.000074
  11 C :    0.008408   -0.010995
  12 C :    0.159798   -0.001085
  13 C :    0.209503    0.002436
  14 C :   -0.423405    0.000087
  15 C :   -0.447443   -0.007587
  16 C :   -0.507150   -0.000051
  17 C :   -0.510227   -0.002750
  18 H :    0.040883    0.000024
  19 H :    0.004946   -0.006066
  20 H :   -0.010656   -0.000328
  21 H :   -0.002089   -0.000141
  22 H :    0.004233   -0.000205
  23 H :    0.019741    0.001081
  24 H :    0.001006   -0.000292
  25 H :    0.012223    0.001418
  26 H :   -0.017998   -0.000013
  27 H :   -0.002828    0.002030
  28 H :    0.002175   -0.000048
  29 H :   -0.009677   -0.000785

  Mayer bond orders larger than 0.100000
B(  0-O , 14-C ) :   1.4641 B(  1-O , 15-C ) :   1.2491 B(  2-O , 16-C ) :   1.5554
B(  3-O , 17-C ) :   1.5189 B(  4-N , 10-C ) :   0.8344 B(  4-N , 16-C ) :   1.0041
B(  4-N , 26-H ) :   1.1196 B(  5-N , 11-C ) :   0.9133 B(  5-N , 17-C ) :   1.0165
B(  5-N , 27-H ) :   1.1030 B(  6-N , 14-C ) :   1.0245 B(  6-N , 16-C ) :   0.9127
B(  6-N , 28-H ) :   1.1145 B(  7-N , 15-C ) :   0.8527 B(  7-N , 16-C ) :   0.1214
B(  7-N , 17-C ) :   0.9477 B(  7-N , 29-H ) :   1.1426 B(  8-C , 10-C ) :   1.1117
B(  8-C , 12-C ) :   0.3215 B(  8-C , 14-C ) :   0.7535 B(  8-C , 21-H ) :  -0.1003
B(  9-C , 11-C ) :   0.6318 B(  9-C , 13-C ) :   0.3420 B(  9-C , 15-C ) :   0.8781
B(  9-C , 19-H ) :  -0.1127 B(  9-C , 24-H ) :  -0.1061 B(  9-C , 25-H ) :  -0.1005
B( 10-C , 18-H ) :   1.1201 B( 11-C , 13-C ) :  -0.1185 B( 11-C , 19-H ) :   1.1773
B( 12-C , 20-H ) :   1.0005 B( 12-C , 21-H ) :   1.0076 B( 12-C , 22-H ) :   0.9131
B( 13-C , 23-H ) :   0.8568 B( 13-C , 24-H ) :   0.9984 B( 13-C , 25-H ) :   0.9633

Dispersion correction           -0.059486497
FINAL SINGLE POINT ENERGY      -908.765446587787

DIPOLE MOMENT
-------------

Method             : TDA/CIS
Type of density    : Electron Density
Level              : Relaxed density
State              :   2
Multiplicity       :   3
Irrep              :   0
Energy             :     0.0000000000000000 Eh
Relativity type    :
Basis              : AO
                                X                 Y                 Z
Electronic contribution:     -2.833242864      -9.757042425      -5.871641348
Nuclear contribution   :      2.335800007      10.643423426       8.442737828
                        -----------------------------------------
Total Dipole Moment    :     -0.497442857       0.886381001       2.571096480
                        -----------------------------------------
Magnitude (a.u.)       :      2.764716583
Magnitude (Debye)      :      7.027351082

Rotational constants in cm-1:             0.017175             0.016338             0.013847
Rotational constants in MHz :           514.886761           489.802047           415.123156

                             ****ORCA TERMINATED NORMALLY****
TOTAL RUN TIME: 0 days 0 hours 5 minutes 39 seconds 340 msec
