                         Program Version 6.0.0  -   RELEASE  -
|  1> ! Engrad def2-TZVPPD wB97M-D3BJ
|  2> %pal nprocs 8 end%pal nprocs 64 end
|  3>  %tddft nroots 2 Iroot 1
|  4> sf true
|  5> end
|  6> *xyz 0 3
|  7> O   2.92574934592551 1.23979910000671 -0.48699952640758
|  8> O   -0.51673133477228 0.43942268827401 -1.89924632290849
|  9> O   1.37973238457686 -2.84549568969403 -1.74524439530955
| 10> O   -3.13264867831927 -1.37907125779526 1.32418106856885
| 11> N   0.70522745555864 -1.98484853004286 0.25208160873823
| 12> N   -2.30325525992285 0.71958840537283 1.64617122151324
| 13> N   2.17577784488476 -0.81282892253387 -1.0737014180211
| 14> N   -1.92648925297981 -0.37967114870042 -0.3347584408188
| 15> C   1.39635555113601 0.17525962570756 0.98299893713092
| 16> C   -0.8575630537862 1.74645526481127 0.05499287534264
| 17> C   0.72395969751067 -0.96755330562028 1.17414299088375
| 18> C   -1.54352580999634 1.78267248981632 1.2011961812231
| 19> C   1.53782925579432 1.22980178594705 2.03374179846383
| 20> C   -0.05480951735853 2.89484883255993 -0.46773480692533
| 21> C   2.22197794124127 0.28628037914517 -0.22487919357584
| 22> C   -1.04862250495517 0.58995574263913 -0.82114425299113
| 23> C   1.41437760373747 -1.9520714846667 -0.9327599079652
| 24> C   -2.50778807401509 -0.4258197236263 0.91176599895975
| 25> H   0.14183820247401 -1.14947234356028 2.06564223572854
| 26> H   -1.50131151641376 2.62867271863641 1.86980462230677
| 27> H   1.3727607740601 2.22154716790105 1.62415268064241
| 28> H   0.834482252959 1.0580494234557 2.84571432425836
| 29> H   2.5473874395724 1.22136018390419 2.44206042591832
| 30> H   -0.46127278575718 3.2337269174525 -1.41880717235534
| 31> H   -0.0731052266815 3.72470182767824 0.23549152059229
| 32> H   0.97903500944456 2.61061122524884 -0.64607694395493
| 33> H   0.15390521752884 -2.81000592420375 0.40523688925249
| 34> H   -2.76044990983806 0.7466401976549 2.53937172168615
| 35> H   2.68241016343162 -0.73123329747568 -1.94081749287377
| 36> H   -2.05263321504003 -1.19632234829239 -0.91197722710259
| 37> *
| 38>
| 39>                          ****END OF INPUT****

CARTESIAN COORDINATES (ANGSTROEM)
---------------------------------
  O      2.925749    1.239799   -0.487000
  O     -0.516731    0.439423   -1.899246
  O      1.379732   -2.845496   -1.745244
  O     -3.132649   -1.379071    1.324181
  N      0.705227   -1.984849    0.252082
  N     -2.303255    0.719588    1.646171
  N      2.175778   -0.812829   -1.073701
  N     -1.926489   -0.379671   -0.334758
  C      1.396356    0.175260    0.982999
  C     -0.857563    1.746455    0.054993
  C      0.723960   -0.967553    1.174143
  C     -1.543526    1.782672    1.201196
  C      1.537829    1.229802    2.033742
  C     -0.054810    2.894849   -0.467735
  C      2.221978    0.286280   -0.224879
  C     -1.048623    0.589956   -0.821144
  C      1.414378   -1.952071   -0.932760
  C     -2.507788   -0.425820    0.911766
  H      0.141838   -1.149472    2.065642
  H     -1.501312    2.628673    1.869805
  H      1.372761    2.221547    1.624153
  H      0.834482    1.058049    2.845714
  H      2.547387    1.221360    2.442060
  H     -0.461273    3.233727   -1.418807
  H     -0.073105    3.724702    0.235492
  H      0.979035    2.610611   -0.646077
  H      0.153905   -2.810006    0.405237
  H     -2.760450    0.746640    2.539372
  H      2.682410   -0.731233   -1.940817
  H     -2.052633   -1.196322   -0.911977

 Total Charge           Charge          ....    0
 Multiplicity           Mult            ....    3
 Number of Electrons    NEL             ....  132
 Basis Dimension        Dim             ....  882

ORBITAL ENERGIES
----------------
                 SPIN UP ORBITALS
  NO   OCC          E(Eh)            E(eV)
   0   1.0000     -19.329725      -525.9886
   1   1.0000     -19.327957      -525.9404
   2   1.0000     -19.326823      -525.9096
   3   1.0000     -19.316385      -525.6256
   4   1.0000     -14.591635      -397.0586
   5   1.0000     -14.587357      -396.9422
   6   1.0000     -14.572447      -396.5364
   7   1.0000     -14.546112      -395.8198
   8   1.0000     -10.516178      -286.1598
   9   1.0000     -10.505745      -285.8759
  10   1.0000     -10.482169      -285.2343
  11   1.0000     -10.455796      -284.5167
  12   1.0000     -10.436368      -283.9880
  13   1.0000     -10.405672      -283.1527
  14   1.0000     -10.395216      -282.8682
  15   1.0000     -10.384329      -282.5720
  16   1.0000     -10.368595      -282.1438
  17   1.0000     -10.352686      -281.7109
  18   1.0000      -1.229319       -33.4515
  19   1.0000      -1.222058       -33.2539
  20   1.0000      -1.197339       -32.5812
  21   1.0000      -1.186805       -32.2946
  22   1.0000      -1.126115       -30.6431
  23   1.0000      -1.122563       -30.5465
  24   1.0000      -1.072967       -29.1969
  25   1.0000      -1.057429       -28.7741
  26   1.0000      -0.975792       -26.5526
  27   1.0000      -0.959403       -26.1067
  28   1.0000      -0.856449       -23.3052
  29   1.0000      -0.849958       -23.1285
  30   1.0000      -0.814310       -22.1585
  31   1.0000      -0.807909       -21.9843
  32   1.0000      -0.797250       -21.6943
  33   1.0000      -0.787131       -21.4189
  34   1.0000      -0.700531       -19.0624
  35   1.0000      -0.699060       -19.0224
  36   1.0000      -0.695402       -18.9228
  37   1.0000      -0.689162       -18.7531
  38   1.0000      -0.645666       -17.5695
  39   1.0000      -0.640256       -17.4223
  40   1.0000      -0.629132       -17.1196
  41   1.0000      -0.605879       -16.4868
  42   1.0000      -0.600798       -16.3485
  43   1.0000      -0.591513       -16.0959
  44   1.0000      -0.576000       -15.6737
  45   1.0000      -0.569128       -15.4868
  46   1.0000      -0.566550       -15.4166
  47   1.0000      -0.554384       -15.0855
  48   1.0000      -0.550354       -14.9759
  49   1.0000      -0.540358       -14.7039
  50   1.0000      -0.530298       -14.4301
  51   1.0000      -0.527389       -14.3510
  52   1.0000      -0.520894       -14.1742
  53   1.0000      -0.515896       -14.0382
  54   1.0000      -0.508819       -13.8457
  55   1.0000      -0.500931       -13.6310
  56   1.0000      -0.489390       -13.3170
  57   1.0000      -0.480531       -13.0759
  58   1.0000      -0.422234       -11.4896
  59   1.0000      -0.415624       -11.3097
  60   1.0000      -0.409016       -11.1299
  61   1.0000      -0.395849       -10.7716
  62   1.0000      -0.391509       -10.6535
  63   1.0000      -0.387595       -10.5470
  64   1.0000      -0.383322       -10.4307
  65   1.0000      -0.347775        -9.4634
  66   1.0000      -0.207311        -5.6412
  67   0.0000       0.010191         0.2773
  68   0.0000       0.018011         0.4901
  69   0.0000       0.028501         0.7756
  70   0.0000       0.037571         1.0224
  71   0.0000       0.041312         1.1241

                 SPIN DOWN ORBITALS
  NO   OCC          E(Eh)            E(eV)
   0   1.0000     -19.329642      -525.9863
   1   1.0000     -19.326919      -525.9122
   2   1.0000     -19.325962      -525.8862
   3   1.0000     -19.310517      -525.4659
   4   1.0000     -14.587062      -396.9341
   5   1.0000     -14.586460      -396.9178
   6   1.0000     -14.572428      -396.5359
   7   1.0000     -14.545266      -395.7968
   8   1.0000     -10.516172      -286.1596
   9   1.0000     -10.506180      -285.8877
  10   1.0000     -10.482118      -285.2329
  11   1.0000     -10.455465      -284.5077
  12   1.0000     -10.435632      -283.9680
  13   1.0000     -10.396125      -282.8929
  14   1.0000     -10.384958      -282.5891
  15   1.0000     -10.384472      -282.5759
  16   1.0000     -10.369082      -282.1571
  17   1.0000     -10.352658      -281.7101
  18   1.0000      -1.229062       -33.4445
  19   1.0000      -1.217688       -33.1350
  20   1.0000      -1.197362       -32.5819
  21   1.0000      -1.178050       -32.0564
  22   1.0000      -1.125491       -30.6262
  23   1.0000      -1.111650       -30.2495
  24   1.0000      -1.072723       -29.1903
  25   1.0000      -1.052130       -28.6299
  26   1.0000      -0.963799       -26.2263
  27   1.0000      -0.947209       -25.7749
  28   1.0000      -0.849633       -23.1197
  29   1.0000      -0.845383       -23.0040
  30   1.0000      -0.813717       -22.1424
  31   1.0000      -0.798326       -21.7235
  32   1.0000      -0.795794       -21.6546
  33   1.0000      -0.780381       -21.2353
  34   1.0000      -0.698525       -19.0078
  35   1.0000      -0.695819       -18.9342
  36   1.0000      -0.688284       -18.7292
  37   1.0000      -0.681002       -18.5310
  38   1.0000      -0.645067       -17.5532
  39   1.0000      -0.630481       -17.1563
  40   1.0000      -0.621625       -16.9153
  41   1.0000      -0.600925       -16.3520
  42   1.0000      -0.594231       -16.1698
  43   1.0000      -0.583140       -15.8680
  44   1.0000      -0.569550       -15.4982
  45   1.0000      -0.563128       -15.3235
  46   1.0000      -0.560428       -15.2500
  47   1.0000      -0.553264       -15.0551
  48   1.0000      -0.543620       -14.7926
  49   1.0000      -0.536172       -14.5900
  50   1.0000      -0.521906       -14.2018
  51   1.0000      -0.519677       -14.1411
  52   1.0000      -0.514366       -13.9966
  53   1.0000      -0.507463       -13.8088
  54   1.0000      -0.501533       -13.6474
  55   1.0000      -0.496693       -13.5157
  56   1.0000      -0.477984       -13.0066
  57   1.0000      -0.446137       -12.1400
  58   1.0000      -0.421878       -11.4799
  59   1.0000      -0.411369       -11.1939
  60   1.0000      -0.404076       -10.9955
  61   1.0000      -0.390647       -10.6300
  62   1.0000      -0.376361       -10.2413
  63   1.0000      -0.374894       -10.2014
  64   1.0000      -0.349464        -9.5094
  65   0.0000      -0.104855        -2.8532
  66   0.0000       0.009851         0.2681
  67   0.0000       0.021075         0.5735
  68   0.0000       0.026785         0.7289
  69   0.0000       0.034543         0.9400

----------------------------------------------------------------------------------------------------
          SPIN FLIP ABSORPTION SPECTRUM VIA TRANSITION ELECTRIC DIPOLE MOMENTS
----------------------------------------------------------------------------------------------------
     Transition      Energy     Energy  Wavelength fosc(D2)      D2        DX        DY        DZ
                      (eV)      (cm-1)    (nm)                 (au**2)    (au)      (au)      (au)
----------------------------------------------------------------------------------------------------
  1-3A  ->  2-3A    4.167852   33616.0   297.5   0.001520218   0.01489  -0.05113  -0.09172   0.06214

Dispersion correction             ... done (  0.1 sec)

MULLIKEN ATOMIC CHARGES AND SPIN DENSITIES
------------------------------------------
   0 O :   -0.695775    0.032095
   1 O :   -0.659343   -0.000365
   2 O :   -0.651027    0.007859
   3 O :   -0.667401    0.000272
   4 N :   -0.021227    0.055538
   5 N :   -0.008270    0.000875
   6 N :    0.004872    0.001773
   7 N :   -0.024586   -0.004148
   8 C :    1.085006    0.383660
   9 C :    0.404100   -0.003543
  10 C :   -0.337586   -0.355457
  11 C :    0.230321   -0.011938
  12 C :   -1.550986   -0.002004
  13 C :   -1.472493    0.014129
  14 C :    0.298638   -0.181039
  15 C :    0.557358    0.008477
  16 C :    0.522255    0.016701
  17 C :    0.475981   -0.002071
  18 H :    0.304126    0.033043
  19 H :    0.192207   -0.002184
  20 H :    0.231964   -0.003360
  21 H :    0.319865    0.007732
  22 H :    0.421420    0.008326
  23 H :    0.382346    0.000580
  24 H :    0.330021    0.001093
  25 H :    0.207420   -0.004843
  26 H :    0.029825   -0.001643
  27 H :    0.019838   -0.000068
  28 H :    0.028852    0.002556
  29 H :    0.042281   -0.002046
Sum of atomic charges       :    0.0000000

LOEWDIN ATOMIC CHARGES AND SPIN DENSITIES
-----------------------------------------
   0 O :    0.077393    0.028681
   1 O :    0.107724    0.000671
   2 O :    0.095179    0.006512
   3 O :    0.075948    0.000213
   4 N :    0.296627    0.025229
   5 N :    0.283082    0.000819
   6 N :    0.342046   -0.000469
   7 N :    0.334121   -0.001007
   8 C :   -0.143718   -0.036427
   9 C :   -0.155943   -0.000284
  10 C :    0.048489   -0.031643
  11 C :    0.044772    0.000247
  12 C :    0.177792   -0.003315
  13 C :    0.185847    0.000180
  14 C :   -0.408166    0.010122
  15 C :   -0.399592   -0.000762
  16 C :   -0.469097    0.000673
  17 C :   -0.492156   -0.000127
  18 H :    0.039890   -0.002039
  19 H :    0.038983    0.000114
  20 H :   -0.018907   -0.000176
  21 H :   -0.004710    0.000336
  22 H :    0.007320   -0.000351
  23 H :    0.006475    0.000038
  24 H :   -0.001579    0.000003
  25 H :   -0.024215    0.000185
  26 H :   -0.014028    0.002380
  27 H :   -0.020945    0.000055
  28 H :   -0.002788    0.000211
  29 H :   -0.005846   -0.000072

  Mayer bond orders larger than 0.100000
B(  0-O , 14-C ) :   1.3908 B(  1-O , 15-C ) :   1.4162 B(  2-O , 16-C ) :   1.5630
B(  3-O , 17-C ) :   1.5536 B(  4-N , 10-C ) :   0.9222 B(  4-N , 16-C ) :   0.9999
B(  4-N , 26-H ) :   1.1477 B(  5-N , 11-C ) :   0.9730 B(  5-N , 17-C ) :   1.0400
B(  5-N , 27-H ) :   1.1404 B(  6-N , 14-C ) :   1.0448 B(  6-N , 16-C ) :   0.9894
B(  6-N , 28-H ) :   1.0983 B(  7-N , 15-C ) :   1.0313 B(  7-N , 17-C ) :   0.9552
B(  7-N , 29-H ) :   1.0970 B(  8-C , 10-C ) :   0.9627 B(  8-C , 12-C ) :   0.2630
B(  8-C , 14-C ) :   0.5838 B(  8-C , 15-C ) :  -0.1271 B(  8-C , 18-H ) :  -0.1295
B(  8-C , 20-H ) :  -0.1135 B(  9-C , 11-C ) :   0.9814 B(  9-C , 13-C ) :   0.4464
B(  9-C , 15-C ) :   0.7709 B(  9-C , 24-H ) :  -0.1150 B(  9-C , 25-H ) :  -0.1040
B( 10-C , 12-C ) :  -0.1646 B( 10-C , 18-H ) :   1.0942 B( 11-C , 13-C ) :  -0.2713
B( 11-C , 19-H ) :   1.0752 B( 12-C , 20-H ) :   1.0539 B( 12-C , 21-H ) :   1.0386
B( 12-C , 22-H ) :   0.8110 B( 13-C , 23-H ) :   0.8498 B( 13-C , 24-H ) :   1.0760
B( 13-C , 25-H ) :   0.9813

Dispersion correction           -0.059630867
FINAL SINGLE POINT ENERGY      -908.919706022166

DIPOLE MOMENT
-------------

Method             : TDA/CIS
Type of density    : Electron Density
Level              : Relaxed density
State              :   1
Multiplicity       :   3
Irrep              :   0
Energy             :     0.0000000000000000 Eh
Relativity type    :
Basis              : AO
                                X                 Y                 Z
Electronic contribution:     -2.228669142      -9.858981825      -5.514588391
Nuclear contribution   :      1.350772784      10.753014918       7.693170486
                        -----------------------------------------
Total Dipole Moment    :     -0.877896358       0.894033093       2.178582095
                        -----------------------------------------
Magnitude (a.u.)       :      2.513208534
Magnitude (Debye)      :      6.388068424

Rotational constants in cm-1:             0.019801             0.014216             0.011308
Rotational constants in MHz :           593.627128           426.185342           339.014579

                             ****ORCA TERMINATED NORMALLY****
TOTAL RUN TIME: 0 days 0 hours 5 minutes 39 seconds 683 msec
