                         Program Version 6.0.0  -   RELEASE  -
|  1> ! Engrad wB97M-D3BJ def2-TZVPPD
|  2> %pal nprocs 8 end%pal nprocs 16 end
|  3> %tddft nroots 2 Iroot 2
|  4>  sf true
|  5> end
|  6> *xyz 0 3
|  7> O   0.57865539808902 0.98226040490884 -0.00030630368776
|  8> C   0.75348998546475 -0.34610095038202 -7.771971762e-05
|  9> C   -0.65356427935109 -0.58236607758167 0.00011923951582
| 10> H   1.26981308445213 -0.73792525058865 0.88626608676499
| 11> H   1.26954743289918 -0.7383663249339 -0.88638172748461
| 12> H   -1.2072890141678 -0.54209853070999 -0.92572590119342
| 13> H   -1.20702829040855 -0.54182361937111 0.9261063258026
| 14> *
| 15>
| 16>                          ****END OF INPUT****

CARTESIAN COORDINATES (ANGSTROEM)
---------------------------------
  O      0.578655    0.982260   -0.000306
  C      0.753490   -0.346101   -0.000078
  C     -0.653564   -0.582366    0.000119
  H      1.269813   -0.737925    0.886266
  H      1.269547   -0.738366   -0.886382
  H     -1.207289   -0.542099   -0.925726
  H     -1.207028   -0.541824    0.926106

 Total Charge           Charge          ....    0
 Multiplicity           Mult            ....    3
 Number of Electrons    NEL             ....   24
 Basis Dimension        Dim             ....  182

ORBITAL ENERGIES
----------------
                 SPIN UP ORBITALS
  NO   OCC          E(Eh)            E(eV)
   0   1.0000     -19.404949      -528.0355
   1   1.0000     -10.406824      -283.1841
   2   1.0000     -10.341518      -281.4070
   3   1.0000      -1.208863       -32.8948
   4   1.0000      -0.868504       -23.6332
   5   1.0000      -0.739335       -20.1183
   6   1.0000      -0.642553       -17.4848
   7   1.0000      -0.604584       -16.4516
   8   1.0000      -0.551846       -15.0165
   9   1.0000      -0.508361       -13.8332
  10   1.0000      -0.449211       -12.2236
  11   1.0000      -0.434718       -11.8293
  12   1.0000      -0.281430        -7.6581
  13   0.0000       0.041053         1.1171
  14   0.0000       0.063665         1.7324
  15   0.0000       0.073064         1.9882
  16   0.0000       0.086156         2.3444
  17   0.0000       0.117087         3.1861

                 SPIN DOWN ORBITALS
  NO   OCC          E(Eh)            E(eV)
   0   1.0000     -19.377207      -527.2806
   1   1.0000     -10.408036      -283.2171
   2   1.0000     -10.328839      -281.0620
   3   1.0000      -1.149607       -31.2824
   4   1.0000      -0.834392       -22.7050
   5   1.0000      -0.717440       -19.5225
   6   1.0000      -0.600641       -16.3443
   7   1.0000      -0.568659       -15.4740
   8   1.0000      -0.528871       -14.3913
   9   1.0000      -0.474373       -12.9083
  10   1.0000      -0.388462       -10.5706
  11   0.0000      -0.072945        -1.9849
  12   0.0000       0.027167         0.7392
  13   0.0000       0.039657         1.0791
  14   0.0000       0.064265         1.7487
  15   0.0000       0.071998         1.9592

----------------------------------------------------------------------------------------------------
          SPIN FLIP ABSORPTION SPECTRUM VIA TRANSITION ELECTRIC DIPOLE MOMENTS
----------------------------------------------------------------------------------------------------
     Transition      Energy     Energy  Wavelength fosc(D2)      D2        DX        DY        DZ
                      (eV)      (cm-1)    (nm)                 (au**2)    (au)      (au)      (au)
----------------------------------------------------------------------------------------------------
  1-3A  ->  2-3A    2.122902   17122.4   584.0   0.000596914   0.01148   0.00001   0.00000  -0.10713

Dispersion correction             ... done (  0.0 sec)

MULLIKEN ATOMIC CHARGES AND SPIN DENSITIES
------------------------------------------
   0 O :   -0.309309    0.745305
   1 C :    0.102771    0.247349
   2 C :   -0.457359   -0.795909
   3 H :    0.206383    0.021527
   4 H :    0.206380    0.021517
   5 H :    0.125572   -0.119899
   6 H :    0.125561   -0.119890
Sum of atomic charges       :    0.0000000

LOEWDIN ATOMIC CHARGES AND SPIN DENSITIES
-----------------------------------------
   0 O :    0.106402    0.681255
   1 C :   -0.260090    0.043707
   2 C :    0.208232   -0.607698
   3 H :    0.040815    0.029439
   4 H :    0.040813    0.029439
   5 H :   -0.068083   -0.088071
   6 H :   -0.068088   -0.088072

  Mayer bond orders larger than 0.100000
B(  0-O ,  1-C ) :   0.8686 B(  0-O ,  2-C ) :   0.2124 B(  1-C ,  2-C ) :   0.6127
B(  1-C ,  3-H ) :   0.9807 B(  1-C ,  4-H ) :   0.9807 B(  2-C ,  5-H ) :   1.1138
B(  2-C ,  6-H ) :   1.1138

Dispersion correction           -0.005668127
FINAL SINGLE POINT ENERGY      -153.724641466438

DIPOLE MOMENT
-------------

Method             : TDA/CIS
Type of density    : Electron Density
Level              : Relaxed density
State              :   2
Multiplicity       :   3
Irrep              :   0
Energy             :     0.0000000000000000 Eh
Relativity type    :
Basis              : AO
                                X                 Y                 Z
Electronic contribution:      1.157350738       2.279208487      -0.000589654
Nuclear contribution   :     -0.779306569      -2.556966956       0.000597513
                        -----------------------------------------
Total Dipole Moment    :      0.378044169      -0.277758468       0.000007859
                        -----------------------------------------
Magnitude (a.u.)       :      0.469113163
Magnitude (Debye)      :      1.192390901

Rotational constants in cm-1:             1.084570             0.487460             0.387517
Rotational constants in MHz :         32514.591354         14613.686238         11617.481511

                             ****ORCA TERMINATED NORMALLY****
TOTAL RUN TIME: 0 days 0 hours 0 minutes 16 seconds 61 msec
