                         Program Version 6.0.0  -   RELEASE  -
|  1> ! Engrad def2-TZVPPD wB97M-D3BJ
|  2> %pal nprocs 8 end%pal nprocs 64 end
|  3> %tddft
|  4>  Iroot 1 Nroots 3
|  5> sf true
|  6> end
|  7> *xyz 0 3
|  8> O   3.40406343 -0.24680676 -0.01212514
|  9> O   -0.35244971 0.7452748 -2.74738981
| 10> O   -0.23868828 -2.73136143 -0.83046085
| 11> O   -3.51497256 -0.73036025 0.00489569
| 12> N   -0.2802461 -1.36774428 1.02488602
| 13> N   -2.01813421 0.78043833 0.81743909
| 14> N   1.51761988 -1.31150507 -0.47469277
| 15> N   -1.8672019 -0.00930451 -1.3212439
| 16> C   1.60595233 0.12661803 1.37774726
| 17> C   -0.10222939 1.35868554 -0.47584779
| 18> C   0.147882 -0.10255603 1.5862071
| 19> C   -0.60825397 1.07872268 0.86816562
| 20> C   2.31808783 1.04348919 2.29896555
| 21> C   0.7578619 2.5057512 -0.63110583
| 22> C   2.25331449 -0.45488512 0.27756455
| 23> C   -0.72493204 0.72594816 -1.5596424
| 24> C   0.25090038 -1.85259281 -0.16005272
| 25> C   -2.49540197 -0.08674627 -0.1430491
| 26> H   -0.20123102 -0.06714782 2.61605649
| 27> H   -0.45262263 1.91646398 1.53295258
| 28> H   3.34304018 1.11824086 2.12309722
| 29> H   1.74381633 2.0118998 2.26361188
| 30> H   2.22895089 0.6571968 3.30647606
| 31> H   1.57287209 2.35034755 0.0295585
| 32> H   1.13143875 2.72183849 -1.65340898
| 33> H   0.10225678 3.29499847 -0.25744109
| 34> H   -1.23635735 -1.59014161 1.15390493
| 35> H   -2.48049931 0.67010052 1.7277951
| 36> H   1.96967467 -1.65831231 -1.31142232
| 37> H   -2.29383137 -0.56417824 -2.05954489
| 38> *
| 39>
| 40>                          ****END OF INPUT****

CARTESIAN COORDINATES (ANGSTROEM)
---------------------------------
  O      3.404063   -0.246807   -0.012125
  O     -0.352450    0.745275   -2.747390
  O     -0.238688   -2.731361   -0.830461
  O     -3.514973   -0.730360    0.004896
  N     -0.280246   -1.367744    1.024886
  N     -2.018134    0.780438    0.817439
  N      1.517620   -1.311505   -0.474693
  N     -1.867202   -0.009305   -1.321244
  C      1.605952    0.126618    1.377747
  C     -0.102229    1.358686   -0.475848
  C      0.147882   -0.102556    1.586207
  C     -0.608254    1.078723    0.868166
  C      2.318088    1.043489    2.298966
  C      0.757862    2.505751   -0.631106
  C      2.253314   -0.454885    0.277565
  C     -0.724932    0.725948   -1.559642
  C      0.250900   -1.852593   -0.160053
  C     -2.495402   -0.086746   -0.143049
  H     -0.201231   -0.067148    2.616056
  H     -0.452623    1.916464    1.532953
  H      3.343040    1.118241    2.123097
  H      1.743816    2.011900    2.263612
  H      2.228951    0.657197    3.306476
  H      1.572872    2.350348    0.029559
  H      1.131439    2.721838   -1.653409
  H      0.102257    3.294998   -0.257441
  H     -1.236357   -1.590142    1.153905
  H     -2.480499    0.670101    1.727795
  H      1.969675   -1.658312   -1.311422
  H     -2.293831   -0.564178   -2.059545

 Total Charge           Charge          ....    0
 Multiplicity           Mult            ....    3
 Number of Electrons    NEL             ....  132
 Basis Dimension        Dim             ....  882

ORBITAL ENERGIES
----------------
                 SPIN UP ORBITALS
  NO   OCC          E(Eh)            E(eV)
   0   1.0000     -19.330013      -525.9964
   1   1.0000     -19.328890      -525.9658
   2   1.0000     -19.324775      -525.8539
   3   1.0000     -19.318508      -525.6833
   4   1.0000     -14.564205      -396.3122
   5   1.0000     -14.562083      -396.2544
   6   1.0000     -14.561052      -396.2264
   7   1.0000     -14.560600      -396.2141
   8   1.0000     -10.510378      -286.0019
   9   1.0000     -10.499780      -285.7135
  10   1.0000     -10.476349      -285.0759
  11   1.0000     -10.471372      -284.9405
  12   1.0000     -10.446494      -284.2635
  13   1.0000     -10.441755      -284.1346
  14   1.0000     -10.417316      -283.4696
  15   1.0000     -10.416005      -283.4339
  16   1.0000     -10.379667      -282.4451
  17   1.0000     -10.375392      -282.3288
  18   1.0000      -1.228075       -33.4176
  19   1.0000      -1.221625       -33.2421
  20   1.0000      -1.202501       -32.7217
  21   1.0000      -1.186715       -32.2921
  22   1.0000      -1.129020       -30.7222
  23   1.0000      -1.101962       -29.9859
  24   1.0000      -1.071060       -29.1450
  25   1.0000      -1.058648       -28.8073
  26   1.0000      -1.000608       -27.2279
  27   1.0000      -0.970822       -26.4174
  28   1.0000      -0.895879       -24.3781
  29   1.0000      -0.851320       -23.1656
  30   1.0000      -0.844428       -22.9781
  31   1.0000      -0.810862       -22.0647
  32   1.0000      -0.788963       -21.4688
  33   1.0000      -0.785723       -21.3806
  34   1.0000      -0.710484       -19.3333
  35   1.0000      -0.703584       -19.1455
  36   1.0000      -0.693128       -18.8610
  37   1.0000      -0.679645       -18.4941
  38   1.0000      -0.671153       -18.2630
  39   1.0000      -0.648051       -17.6344
  40   1.0000      -0.621887       -16.9224
  41   1.0000      -0.608868       -16.5681
  42   1.0000      -0.600055       -16.3283
  43   1.0000      -0.591572       -16.0975
  44   1.0000      -0.586120       -15.9491
  45   1.0000      -0.578739       -15.7483
  46   1.0000      -0.572237       -15.5714
  47   1.0000      -0.565223       -15.3805
  48   1.0000      -0.561816       -15.2878
  49   1.0000      -0.559051       -15.2125
  50   1.0000      -0.551049       -14.9948
  51   1.0000      -0.540712       -14.7135
  52   1.0000      -0.537358       -14.6223
  53   1.0000      -0.527053       -14.3418
  54   1.0000      -0.516010       -14.0413
  55   1.0000      -0.513235       -13.9658
  56   1.0000      -0.502144       -13.6640
  57   1.0000      -0.424287       -11.5454
  58   1.0000      -0.418856       -11.3976
  59   1.0000      -0.413721       -11.2579
  60   1.0000      -0.407201       -11.0805
  61   1.0000      -0.402277       -10.9465
  62   1.0000      -0.395826       -10.7710
  63   1.0000      -0.390812       -10.6345
  64   1.0000      -0.385394       -10.4871
  65   1.0000      -0.345146        -9.3919
  66   1.0000      -0.333968        -9.0877
  67   0.0000       0.004837         0.1316
  68   0.0000       0.028530         0.7763
  69   0.0000       0.031883         0.8676
  70   0.0000       0.038390         1.0447
  71   0.0000       0.054815         1.4916

                 SPIN DOWN ORBITALS
  NO   OCC          E(Eh)            E(eV)
   0   1.0000     -19.324726      -525.8525
   1   1.0000     -19.324349      -525.8423
   2   1.0000     -19.324121      -525.8361
   3   1.0000     -19.318396      -525.6803
   4   1.0000     -14.563653      -396.2971
   5   1.0000     -14.561905      -396.2496
   6   1.0000     -14.560180      -396.2026
   7   1.0000     -14.560042      -396.1989
   8   1.0000     -10.510444      -286.0037
   9   1.0000     -10.499829      -285.7149
  10   1.0000     -10.477473      -285.1065
  11   1.0000     -10.472378      -284.9679
  12   1.0000     -10.446159      -284.2544
  13   1.0000     -10.441180      -284.1190
  14   1.0000     -10.406198      -283.1670
  15   1.0000     -10.405172      -283.1391
  16   1.0000     -10.380229      -282.4604
  17   1.0000     -10.375682      -282.3367
  18   1.0000      -1.226134       -33.3648
  19   1.0000      -1.218923       -33.1686
  20   1.0000      -1.198462       -32.6118
  21   1.0000      -1.180077       -32.1115
  22   1.0000      -1.125924       -30.6379
  23   1.0000      -1.099212       -29.9111
  24   1.0000      -1.068363       -29.0716
  25   1.0000      -1.056600       -28.7515
  26   1.0000      -0.986997       -26.8576
  27   1.0000      -0.954453       -25.9720
  28   1.0000      -0.890661       -24.2361
  29   1.0000      -0.845039       -22.9947
  30   1.0000      -0.835091       -22.7240
  31   1.0000      -0.806236       -21.9388
  32   1.0000      -0.787235       -21.4217
  33   1.0000      -0.783833       -21.3292
  34   1.0000      -0.705065       -19.1858
  35   1.0000      -0.698540       -19.0082
  36   1.0000      -0.686121       -18.6703
  37   1.0000      -0.672765       -18.3069
  38   1.0000      -0.658264       -17.9123
  39   1.0000      -0.644310       -17.5326
  40   1.0000      -0.618315       -16.8252
  41   1.0000      -0.604235       -16.4421
  42   1.0000      -0.590843       -16.0777
  43   1.0000      -0.583879       -15.8882
  44   1.0000      -0.576888       -15.6979
  45   1.0000      -0.571899       -15.5622
  46   1.0000      -0.564729       -15.3670
  47   1.0000      -0.561946       -15.2913
  48   1.0000      -0.556546       -15.1444
  49   1.0000      -0.549570       -14.9546
  50   1.0000      -0.545650       -14.8479
  51   1.0000      -0.531981       -14.4760
  52   1.0000      -0.528616       -14.3844
  53   1.0000      -0.520041       -14.1510
  54   1.0000      -0.509182       -13.8556
  55   1.0000      -0.502457       -13.6726
  56   1.0000      -0.495455       -13.4820
  57   1.0000      -0.420869       -11.4524
  58   1.0000      -0.414378       -11.2758
  59   1.0000      -0.406785       -11.0692
  60   1.0000      -0.395077       -10.7506
  61   1.0000      -0.390040       -10.6135
  62   1.0000      -0.385261       -10.4835
  63   1.0000      -0.383252       -10.4288
  64   1.0000      -0.375775       -10.2254
  65   0.0000      -0.063604        -1.7308
  66   0.0000      -0.060819        -1.6550
  67   0.0000       0.004506         0.1226
  68   0.0000       0.028620         0.7788
  69   0.0000       0.031737         0.8636

----------------------------------------------------------------------------------------------------
          SPIN FLIP ABSORPTION SPECTRUM VIA TRANSITION ELECTRIC DIPOLE MOMENTS
----------------------------------------------------------------------------------------------------
     Transition      Energy     Energy  Wavelength fosc(D2)      D2        DX        DY        DZ
                      (eV)      (cm-1)    (nm)                 (au**2)    (au)      (au)      (au)
----------------------------------------------------------------------------------------------------
  1-3A  ->  2-1A    0.018689     150.7  66340.7   0.000002834   0.00619  -0.06945   0.00901  -0.03585
  1-3A  ->  3-3A    1.889436   15239.3   656.2   0.000112049   0.00242  -0.02460   0.00790   0.04187

Dispersion correction             ... done (  0.1 sec)

MULLIKEN ATOMIC CHARGES AND SPIN DENSITIES
------------------------------------------
   0 O :   -0.696760   -0.037867
   1 O :   -0.722747    0.054981
   2 O :   -0.631382   -0.001218
   3 O :   -0.659093   -0.000235
   4 N :   -0.252538   -0.008590
   5 N :   -0.379291   -0.000722
   6 N :    0.038802   -0.006896
   7 N :    0.062802    0.003287
   8 C :    0.285262    0.351758
   9 C :    0.465758    0.280243
  10 C :    0.365529   -0.187618
  11 C :    0.531651   -0.089715
  12 C :   -1.408295   -0.026131
  13 C :   -1.393033    0.032138
  14 C :    0.309433   -0.305411
  15 C :    0.066293   -0.114759
  16 C :    0.364100    0.021931
  17 C :    0.321311    0.006013
  18 H :    0.556267   -0.015162
  19 H :    0.501737    0.006006
  20 H :    0.291629   -0.003930
  21 H :    0.372080    0.012057
  22 H :    0.390483    0.000092
  23 H :    0.244555    0.010299
  24 H :    0.319719   -0.000400
  25 H :    0.369384    0.012425
  26 H :    0.090974    0.001547
  27 H :    0.145727    0.000916
  28 H :    0.018065    0.003308
  29 H :    0.031578    0.001653
Sum of atomic charges       :   -0.0000000

LOEWDIN ATOMIC CHARGES AND SPIN DENSITIES
-----------------------------------------
   0 O :    0.106219   -0.034776
   1 O :    0.077465    0.048007
   2 O :    0.104647   -0.001123
   3 O :    0.089433   -0.000294
   4 N :    0.303931   -0.001366
   5 N :    0.277942   -0.000272
   6 N :    0.338410   -0.007345
   7 N :    0.323889    0.001714
   8 C :   -0.037444   -0.103337
   9 C :   -0.061441    0.113975
  10 C :   -0.086016   -0.008449
  11 C :   -0.127282    0.003314
  12 C :    0.213609   -0.014999
  13 C :    0.224487    0.014853
  14 C :   -0.477077   -0.026180
  15 C :   -0.386878    0.016685
  16 C :   -0.449229   -0.000053
  17 C :   -0.535489   -0.000472
  18 H :    0.061063   -0.001307
  19 H :    0.046772    0.000606
  20 H :   -0.030497    0.000274
  21 H :    0.028837   -0.004564
  22 H :    0.005394   -0.003534
  23 H :   -0.031620    0.002913
  24 H :    0.040928   -0.000175
  25 H :    0.024532    0.006521
  26 H :   -0.064820   -0.000159
  27 H :   -0.005139   -0.000019
  28 H :    0.004271   -0.000679
  29 H :    0.021103    0.000239

  Mayer bond orders larger than 0.100000
B(  0-O , 14-C ) :   1.3430 B(  1-O , 15-C ) :   1.2467 B(  2-O , 16-C ) :   1.5516
B(  3-O , 17-C ) :   1.5690 B(  4-N ,  8-C ) :   0.2225 B(  4-N , 10-C ) :   0.2886
B(  4-N , 16-C ) :   0.9841 B(  4-N , 18-H ) :  -0.1147 B(  4-N , 26-H ) :   1.0294
B(  5-N ,  9-C ) :   0.3086 B(  5-N , 11-C ) :  -0.1240 B(  5-N , 17-C ) :   1.1658
B(  5-N , 27-H ) :   0.9870 B(  6-N , 10-C ) :   0.1130 B(  6-N , 14-C ) :   1.0669
B(  6-N , 16-C ) :   0.8981 B(  6-N , 28-H ) :   1.1206 B(  7-N , 11-C ) :   0.1479
B(  7-N , 15-C ) :   0.9493 B(  7-N , 17-C ) :   0.9459 B(  7-N , 29-H ) :   1.0940
B(  8-C ,  9-C ) :   0.1779 B(  8-C , 10-C ) :   0.5419 B(  8-C , 11-C ) :   0.1977
B(  8-C , 12-C ) :   0.4424 B(  8-C , 14-C ) :   0.7356 B(  8-C , 16-C ) :   0.1053
B(  8-C , 18-H ) :  -0.1617 B(  8-C , 20-H ) :  -0.1155 B(  9-C , 13-C ) :   0.3859
B(  9-C , 15-C ) :   0.9474 B(  9-C , 19-H ) :  -0.2037 B( 10-C , 11-C ) :   0.5533
B( 10-C , 12-C ) :  -0.1241 B( 10-C , 16-C ) :  -0.1505 B( 10-C , 18-H ) :   0.7801
B( 11-C , 12-C ) :   0.1046 B( 11-C , 13-C ) :  -0.3605 B( 11-C , 15-C ) :  -0.2769
B( 11-C , 17-C ) :  -0.1497 B( 11-C , 19-H ) :   1.0163 B( 11-C , 23-H ) :  -0.1286
B( 12-C , 20-H ) :   1.0839 B( 12-C , 21-H ) :   0.7821 B( 12-C , 22-H ) :   0.9256
B( 13-C , 23-H ) :   1.0800 B( 13-C , 24-H ) :   1.0014 B( 13-C , 25-H ) :   0.8342

Dispersion correction           -0.062744620
FINAL SINGLE POINT ENERGY      -908.784888673029

DIPOLE MOMENT
-------------

Method             : TDA/CIS
Type of density    : Electron Density
Level              : Relaxed density
State              :   1
Multiplicity       :   3
Irrep              :   0
Energy             :     0.0000000000000000 Eh
Relativity type    :
Basis              : AO
                                X                 Y                 Z
Electronic contribution:     -4.950290444      -8.793185813      -6.606019385
Nuclear contribution   :      5.155807610      10.631396687       9.096530307
                        -----------------------------------------
Total Dipole Moment    :      0.205517166       1.838210875       2.490510923
                        -----------------------------------------
Magnitude (a.u.)       :      3.102241316
Magnitude (Debye)      :      7.885270772

Rotational constants in cm-1:             0.022161             0.013964             0.013323
Rotational constants in MHz :           664.368395           418.623932           399.398645

                             ****ORCA TERMINATED NORMALLY****
TOTAL RUN TIME: 0 days 0 hours 5 minutes 44 seconds 299 msec
