                         Program Version 6.0.0  -   RELEASE  -
|  1> ! Engrad def2-TZVPPD wB97M-D3BJ
|  2> %pal nprocs 8 end%pal nprocs 64 end
|  3> %tddft Nroots 2 Iroot 1
|  4> sf true
|  5> end
|  6> *xyz 0 3
|  7> O   2.99036314 0.45835455 -1.07404274
|  8> O   -0.40497532 1.54812246 -2.20503506
|  9> O   0.4077883 -3.12906928 -0.25823005
| 10> O   -3.04687605 -1.68601541 -0.5296456
| 11> N   0.35314924 -1.46462931 1.26954536
| 12> N   -2.17062005 -0.19223536 0.94236396
| 13> N   1.47036331 -1.19465779 -0.76711829
| 14> N   -1.44249773 -0.24098107 -1.25750173
| 15> C   1.61276426 0.5814133 0.85134445
| 16> C   -0.71229146 1.56961981 0.1484492
| 17> C   0.38938359 -0.06070364 1.58557114
| 18> C   -1.07723936 0.6823888 1.28431306
| 19> C   2.41459349 1.62182282 1.52127966
| 20> C   -0.59637044 3.02998698 0.30730111
| 21> C   2.09052103 -0.01247774 -0.39693788
| 22> C   -0.81221899 1.00074234 -1.1913701
| 23> C   0.71084409 -2.00801559 0.06392345
| 24> C   -2.27675016 -0.79368169 -0.29201945
| 25> H   0.55620353 0.02230074 2.63522294
| 26> H   -1.36138143 1.25379453 2.15812204
| 27> H   3.23707403 1.9492861 0.88511482
| 28> H   1.81059523 2.47057079 1.81542884
| 29> H   2.80352577 1.18289793 2.44495896
| 30> H   -1.60018684 3.44587791 0.47519835
| 31> H   -0.00472146 3.29461905 1.16423169
| 32> H   -0.1799668 3.46732461 -0.59320508
| 33> H   -0.24947418 -2.08742625 1.79900281
| 34> H   -2.757077 -0.62371346 1.65510971
| 35> H   1.77904401 -1.65375403 -1.62306828
| 36> H   -1.57388145 -0.63798775 -2.17509459
| 37> *
| 38>
| 39>                          ****END OF INPUT****

CARTESIAN COORDINATES (ANGSTROEM)
---------------------------------
  O      2.990363    0.458355   -1.074043
  O     -0.404975    1.548122   -2.205035
  O      0.407788   -3.129069   -0.258230
  O     -3.046876   -1.686015   -0.529646
  N      0.353149   -1.464629    1.269545
  N     -2.170620   -0.192235    0.942364
  N      1.470363   -1.194658   -0.767118
  N     -1.442498   -0.240981   -1.257502
  C      1.612764    0.581413    0.851344
  C     -0.712291    1.569620    0.148449
  C      0.389384   -0.060704    1.585571
  C     -1.077239    0.682389    1.284313
  C      2.414593    1.621823    1.521280
  C     -0.596370    3.029987    0.307301
  C      2.090521   -0.012478   -0.396938
  C     -0.812219    1.000742   -1.191370
  C      0.710844   -2.008016    0.063923
  C     -2.276750   -0.793682   -0.292019
  H      0.556204    0.022301    2.635223
  H     -1.361381    1.253795    2.158122
  H      3.237074    1.949286    0.885115
  H      1.810595    2.470571    1.815429
  H      2.803526    1.182898    2.444959
  H     -1.600187    3.445878    0.475198
  H     -0.004721    3.294619    1.164232
  H     -0.179967    3.467325   -0.593205
  H     -0.249474   -2.087426    1.799003
  H     -2.757077   -0.623713    1.655110
  H      1.779044   -1.653754   -1.623068
  H     -1.573881   -0.637988   -2.175095

 Total Charge           Charge          ....    0
 Multiplicity           Mult            ....    3
 Number of Electrons    NEL             ....  132
 Basis Dimension        Dim             ....  882

ORBITAL ENERGIES
----------------
                 SPIN UP ORBITALS
  NO   OCC          E(Eh)            E(eV)
   0   1.0000     -19.331080      -526.0254
   1   1.0000     -19.328677      -525.9600
   2   1.0000     -19.318749      -525.6899
   3   1.0000     -19.313993      -525.5605
   4   1.0000     -14.564413      -396.3178
   5   1.0000     -14.559133      -396.1741
   6   1.0000     -14.558987      -396.1702
   7   1.0000     -14.557792      -396.1377
   8   1.0000     -10.502214      -285.7798
   9   1.0000     -10.498855      -285.6884
  10   1.0000     -10.478135      -285.1245
  11   1.0000     -10.477201      -285.0991
  12   1.0000     -10.447132      -284.2809
  13   1.0000     -10.444972      -284.2221
  14   1.0000     -10.420642      -283.5601
  15   1.0000     -10.409871      -283.2670
  16   1.0000     -10.372157      -282.2407
  17   1.0000     -10.371212      -282.2150
  18   1.0000      -1.220169       -33.2025
  19   1.0000      -1.214724       -33.0543
  20   1.0000      -1.193353       -32.4728
  21   1.0000      -1.190984       -32.4083
  22   1.0000      -1.114952       -30.3394
  23   1.0000      -1.094885       -29.7933
  24   1.0000      -1.063409       -28.9368
  25   1.0000      -1.052601       -28.6427
  26   1.0000      -0.980631       -26.6843
  27   1.0000      -0.948874       -25.8202
  28   1.0000      -0.884759       -24.0755
  29   1.0000      -0.836862       -22.7722
  30   1.0000      -0.828439       -22.5430
  31   1.0000      -0.802296       -21.8316
  32   1.0000      -0.783460       -21.3190
  33   1.0000      -0.774125       -21.0650
  34   1.0000      -0.697565       -18.9817
  35   1.0000      -0.692421       -18.8417
  36   1.0000      -0.686523       -18.6812
  37   1.0000      -0.661188       -17.9918
  38   1.0000      -0.653133       -17.7727
  39   1.0000      -0.644035       -17.5251
  40   1.0000      -0.613954       -16.7065
  41   1.0000      -0.602017       -16.3817
  42   1.0000      -0.587553       -15.9881
  43   1.0000      -0.584073       -15.8934
  44   1.0000      -0.580793       -15.8042
  45   1.0000      -0.572192       -15.5701
  46   1.0000      -0.565154       -15.3786
  47   1.0000      -0.558488       -15.1972
  48   1.0000      -0.555433       -15.1141
  49   1.0000      -0.550048       -14.9676
  50   1.0000      -0.546191       -14.8626
  51   1.0000      -0.541223       -14.7274
  52   1.0000      -0.530312       -14.4305
  53   1.0000      -0.525647       -14.3036
  54   1.0000      -0.511862       -13.9285
  55   1.0000      -0.506113       -13.7720
  56   1.0000      -0.489404       -13.3174
  57   1.0000      -0.419796       -11.4232
  58   1.0000      -0.414670       -11.2837
  59   1.0000      -0.408259       -11.1093
  60   1.0000      -0.405864       -11.0441
  61   1.0000      -0.392821       -10.6892
  62   1.0000      -0.391431       -10.6514
  63   1.0000      -0.386194       -10.5089
  64   1.0000      -0.384454       -10.4615
  65   1.0000      -0.346999        -9.4423
  66   1.0000      -0.310059        -8.4371
  67   0.0000       0.006371         0.1734
  68   0.0000       0.028723         0.7816
  69   0.0000       0.029987         0.8160
  70   0.0000       0.039654         1.0790
  71   0.0000       0.054430         1.4811

                 SPIN DOWN ORBITALS
  NO   OCC          E(Eh)            E(eV)
   0   1.0000     -19.326761      -525.9079
   1   1.0000     -19.324207      -525.8384
   2   1.0000     -19.318556      -525.6846
   3   1.0000     -19.313815      -525.5556
   4   1.0000     -14.563941      -396.3050
   5   1.0000     -14.558743      -396.1635
   6   1.0000     -14.558611      -396.1600
   7   1.0000     -14.557453      -396.1284
   8   1.0000     -10.502234      -285.7803
   9   1.0000     -10.498866      -285.6887
  10   1.0000     -10.479026      -285.1488
  11   1.0000     -10.478270      -285.1282
  12   1.0000     -10.446521      -284.2643
  13   1.0000     -10.444705      -284.2149
  14   1.0000     -10.408869      -283.2397
  15   1.0000     -10.398158      -282.9483
  16   1.0000     -10.372721      -282.2561
  17   1.0000     -10.371709      -282.2286
  18   1.0000      -1.218811       -33.1655
  19   1.0000      -1.213402       -33.0183
  20   1.0000      -1.187928       -32.3252
  21   1.0000      -1.185497       -32.2590
  22   1.0000      -1.112327       -30.2680
  23   1.0000      -1.092724       -29.7345
  24   1.0000      -1.061636       -28.8886
  25   1.0000      -1.051116       -28.6023
  26   1.0000      -0.965657       -26.2769
  27   1.0000      -0.932425       -25.3726
  28   1.0000      -0.880137       -23.9498
  29   1.0000      -0.832209       -22.6455
  30   1.0000      -0.819594       -22.3023
  31   1.0000      -0.796409       -21.6714
  32   1.0000      -0.781908       -21.2768
  33   1.0000      -0.772463       -21.0198
  34   1.0000      -0.691657       -18.8209
  35   1.0000      -0.685144       -18.6437
  36   1.0000      -0.679730       -18.4964
  37   1.0000      -0.653288       -17.7769
  38   1.0000      -0.645090       -17.5538
  39   1.0000      -0.637869       -17.3573
  40   1.0000      -0.612005       -16.6535
  41   1.0000      -0.597501       -16.2588
  42   1.0000      -0.581705       -15.8290
  43   1.0000      -0.574105       -15.6222
  44   1.0000      -0.572776       -15.5860
  45   1.0000      -0.564354       -15.3569
  46   1.0000      -0.561097       -15.2682
  47   1.0000      -0.552737       -15.0407
  48   1.0000      -0.551650       -15.0112
  49   1.0000      -0.542219       -14.7545
  50   1.0000      -0.538073       -14.6417
  51   1.0000      -0.532798       -14.4982
  52   1.0000      -0.522639       -14.2217
  53   1.0000      -0.515791       -14.0354
  54   1.0000      -0.502795       -13.6817
  55   1.0000      -0.498060       -13.5529
  56   1.0000      -0.484002       -13.1704
  57   1.0000      -0.415486       -11.3060
  58   1.0000      -0.411545       -11.1987
  59   1.0000      -0.401036       -10.9127
  60   1.0000      -0.395399       -10.7594
  61   1.0000      -0.385846       -10.4994
  62   1.0000      -0.382281       -10.4024
  63   1.0000      -0.378587       -10.3019
  64   1.0000      -0.371200       -10.1009
  65   0.0000      -0.071866        -1.9556
  66   0.0000      -0.025144        -0.6842
  67   0.0000       0.006129         0.1668
  68   0.0000       0.028903         0.7865
  69   0.0000       0.029749         0.8095

----------------------------------------------------------------------------------------------------
          SPIN FLIP ABSORPTION SPECTRUM VIA TRANSITION ELECTRIC DIPOLE MOMENTS
----------------------------------------------------------------------------------------------------
     Transition      Energy     Energy  Wavelength fosc(D2)      D2        DX        DY        DZ
                      (eV)      (cm-1)    (nm)                 (au**2)    (au)      (au)      (au)
----------------------------------------------------------------------------------------------------
  1-3A  ->  2-3A    0.563665    4546.3  2199.6   0.000030137   0.00218   0.04553  -0.01046   0.00042

Dispersion correction             ... done (  0.1 sec)

MULLIKEN ATOMIC CHARGES AND SPIN DENSITIES
------------------------------------------
   0 O :   -0.691473    0.000426
   1 O :   -0.686087   -0.007009
   2 O :   -0.652723   -0.001784
   3 O :   -0.639583   -0.001535
   4 N :   -0.275056    0.009164
   5 N :   -0.273680    0.002550
   6 N :    0.057246   -0.009182
   7 N :    0.065402    0.008199
   8 C :    0.756307    0.599235
   9 C :    0.988871    0.447931
  10 C :   -0.184681   -0.382397
  11 C :    0.087467   -0.135543
  12 C :   -1.217611    0.059420
  13 C :   -1.264722   -0.003392
  14 C :    0.032657   -0.329533
  15 C :   -0.157230   -0.370773
  16 C :    0.439922    0.021443
  17 C :    0.387329    0.012643
  18 H :    0.569050    0.009717
  19 H :    0.489653    0.002155
  20 H :    0.321896   -0.012999
  21 H :    0.259111    0.033828
  22 H :    0.336560    0.013432
  23 H :    0.352791    0.006703
  24 H :    0.343670    0.014141
  25 H :    0.305801    0.003570
  26 H :    0.071593    0.001234
  27 H :    0.085750    0.000463
  28 H :    0.052049    0.005429
  29 H :    0.039721    0.002463
Sum of atomic charges       :   -0.0000000

LOEWDIN ATOMIC CHARGES AND SPIN DENSITIES
-----------------------------------------
   0 O :    0.089278    0.002507
   1 O :    0.090742   -0.007444
   2 O :    0.097569   -0.001157
   3 O :    0.104951   -0.000750
   4 N :    0.266534   -0.000660
   5 N :    0.269252   -0.000024
   6 N :    0.315729   -0.000485
   7 N :    0.329662   -0.001295
   8 C :    0.008164    0.021016
   9 C :   -0.036726   -0.005952
  10 C :   -0.057123    0.002440
  11 C :   -0.082255    0.001820
  12 C :    0.191071    0.001113
  13 C :    0.196302   -0.003438
  14 C :   -0.415969   -0.002044
  15 C :   -0.405306   -0.006181
  16 C :   -0.501430    0.000052
  17 C :   -0.492195    0.000041
  18 H :    0.014271    0.000400
  19 H :    0.043039    0.000302
  20 H :    0.006337   -0.000045
  21 H :   -0.020238    0.000507
  22 H :    0.013663    0.000767
  23 H :    0.024622   -0.000835
  24 H :   -0.026521   -0.000393
  25 H :    0.006610   -0.000012
  26 H :   -0.015260   -0.000079
  27 H :   -0.014466   -0.000019
  28 H :    0.005562   -0.000043
  29 H :   -0.005870   -0.000109

  Mayer bond orders larger than 0.100000
B(  0-O , 14-C ) :   1.3147 B(  1-O , 15-C ) :   1.4019 B(  2-O , 16-C ) :   1.5123
B(  3-O , 17-C ) :   1.5382 B(  4-N ,  5-N ) :   0.1270 B(  4-N ,  8-C ) :   0.2597
B(  4-N , 10-C ) :   0.2944 B(  4-N , 11-C ) :  -0.1174 B(  4-N , 16-C ) :   1.0665
B(  4-N , 26-H ) :   1.0764 B(  5-N ,  9-C ) :   0.3129 B(  5-N , 11-C ) :   0.1761
B(  5-N , 17-C ) :   1.1393 B(  5-N , 27-H ) :   1.0518 B(  6-N , 10-C ) :   0.1106
B(  6-N , 14-C ) :   1.0274 B(  6-N , 16-C ) :   0.9568 B(  6-N , 28-H ) :   1.0962
B(  7-N , 11-C ) :   0.1262 B(  7-N , 15-C ) :   0.9501 B(  7-N , 17-C ) :   0.9553
B(  7-N , 29-H ) :   1.0916 B(  8-C ,  9-C ) :   0.6207 B(  8-C , 10-C ) :   0.1569
B(  8-C , 11-C ) :  -0.1432 B(  8-C , 12-C ) :   0.5118 B(  8-C , 14-C ) :   0.5653
B(  8-C , 20-H ) :  -0.1084 B(  9-C , 11-C ) :   0.4435 B(  9-C , 13-C ) :   0.5447
B(  9-C , 15-C ) :   0.3599 B(  9-C , 25-H ) :  -0.1064 B( 10-C , 11-C ) :   0.7934
B( 10-C , 15-C ) :   0.1042 B( 10-C , 16-C ) :  -0.1046 B( 10-C , 18-H ) :   0.6956
B( 11-C , 17-C ) :  -0.1808 B( 11-C , 19-H ) :   0.8486 B( 12-C , 20-H ) :   1.0123
B( 12-C , 21-H ) :   0.8986 B( 12-C , 22-H ) :   0.9070 B( 13-C , 23-H ) :   0.8637
B( 13-C , 24-H ) :   0.8098 B( 13-C , 25-H ) :   1.0425 B( 14-C , 15-C ) :   0.1597
B( 14-C , 16-C ) :  -0.1151 B( 15-C , 17-C ) :  -0.1481

Dispersion correction           -0.059726287
FINAL SINGLE POINT ENERGY      -908.806856302304

DIPOLE MOMENT
-------------

Method             : TDA/CIS
Type of density    : Electron Density
Level              : Relaxed density
State              :   1
Multiplicity       :   3
Irrep              :   0
Energy             :     0.0000000000000000 Eh
Relativity type    :
Basis              : AO
                                X                 Y                 Z
Electronic contribution:     -2.757560847     -10.141264147      -7.279583585
Nuclear contribution   :      2.409815593      11.668212983      10.152989367
                        -----------------------------------------
Total Dipole Moment    :     -0.347745254       1.526948836       2.873405783
                        -----------------------------------------
Magnitude (a.u.)       :      3.272454782
Magnitude (Debye)      :      8.317919020

Rotational constants in cm-1:             0.019197             0.015863             0.012732
Rotational constants in MHz :           575.514021           475.548523           381.694589

                             ****ORCA TERMINATED NORMALLY****
TOTAL RUN TIME: 0 days 0 hours 4 minutes 39 seconds 200 msec
