                         Program Version 6.0.0  -   RELEASE  -
|  1> ! Opt wB97M-D3BJ def2-TZVPPD
|  2> %pal nprocs 8 end %pal nprocs 64 end
|  3> %geom
|  4> Constraints
|  5>     {A 2 1 0 126.36363636363636 C }
|  6> end
|  7> MaxIter 500
|  8> end
|  9> *xyz 0 1
| 10> O   -0.0007 0.8141 0.0
| 11> C   0.7509 -0.4065 0.0
| 12> C   -0.7502 -0.4076 0.0
| 13> H   1.2625 -0.6786 0.9136
| 14> H   1.2625 -0.6787 -0.9136
| 15> H   -1.2614 -0.6806 -0.9136
| 16> H   -1.2614 -0.6805 0.9136
| 17> *
| 18>
| 19>                          ****END OF INPUT****
 Total Charge           Charge          ....    0
 Multiplicity           Mult            ....    1
 Number of Electrons    NEL             ....   24
Dispersion correction           -0.005749180
FINAL SINGLE POINT ENERGY      -153.581996399874
Dispersion correction             ... done (  0.1 sec)
Dispersion correction           -0.005650135
FINAL SINGLE POINT ENERGY      -153.685341270212
Dispersion correction             ... done (  0.1 sec)
Dispersion correction           -0.005577759
FINAL SINGLE POINT ENERGY      -153.710424978221
Dispersion correction             ... done (  0.1 sec)
FINAL SINGLE POINT ENERGY      -153.719770127914
FINAL SINGLE POINT ENERGY      -153.723590026469
FINAL SINGLE POINT ENERGY      -153.729619273473
FINAL SINGLE POINT ENERGY      -153.732655444004
FINAL SINGLE POINT ENERGY      -153.743722814953
FINAL SINGLE POINT ENERGY      -153.753179935346
FINAL SINGLE POINT ENERGY      -153.764774344331
FINAL SINGLE POINT ENERGY      -153.931742340898
FINAL SINGLE POINT ENERGY      -153.931746628874
FINAL SINGLE POINT ENERGY      -153.931755449724
FINAL SINGLE POINT ENERGY      -153.931772541292
FINAL SINGLE POINT ENERGY      -153.931797468309
FINAL SINGLE POINT ENERGY      -153.931816853931
FINAL SINGLE POINT ENERGY      -153.931824122259
Dispersion correction             ... done (  0.0 sec)
Dispersion correction           -0.005532025
FINAL SINGLE POINT ENERGY      -153.931825356164
Dispersion correction             ... done (  0.1 sec)
Dispersion correction           -0.005532045
FINAL SINGLE POINT ENERGY      -153.931826051867
Dispersion correction             ... done (  0.1 sec)
                    ***********************HURRAY********************

CARTESIAN COORDINATES (ANGSTROEM)
---------------------------------
  O      0.661712    1.329715   -0.106641
  C      0.563224    0.189682    0.259045
  C     -0.444073   -0.812085   -0.217038
  H      1.267060   -0.199643    1.021681
  H      0.080474   -1.672439   -0.634201
  H     -1.108130   -0.380018   -0.959687
  H     -1.018067   -1.173611    0.636841

 Multiplicity           Mult            ....    1
 Number of Electrons    NEL             ....   24
 Basis Dimension        Dim             ....  182

ORBITAL ENERGIES
----------------

  NO   OCC          E(Eh)            E(eV)
   0   2.0000     -19.339680      -526.2595
   1   2.0000     -10.443019      -284.1690
   2   2.0000     -10.357984      -281.8551
   3   2.0000      -1.188414       -32.3384
   4   2.0000      -0.885382       -24.0925
   5   2.0000      -0.701956       -19.1012
   6   2.0000      -0.598126       -16.2758
   7   2.0000      -0.561384       -15.2760
   8   2.0000      -0.554796       -15.0968
   9   2.0000      -0.508547       -13.8383
  10   2.0000      -0.476603       -12.9690
  11   2.0000      -0.368294       -10.0218
  12   0.0000       0.037328         1.0157
  13   0.0000       0.055061         1.4983
  14   0.0000       0.059210         1.6112
  15   0.0000       0.083144         2.2625
  16   0.0000       0.086145         2.3441

MULLIKEN ATOMIC CHARGES
-----------------------
   0 O :   -0.475259
   1 C :    0.234836
   2 C :   -0.695407
   3 H :    0.239235
   4 H :    0.227480
   5 H :    0.241730
   6 H :    0.227386
Sum of atomic charges:   -0.0000000

LOEWDIN ATOMIC CHARGES
----------------------
   0 O :    0.069785
   1 C :   -0.232166
   2 C :    0.169119
   3 H :    0.023024
   4 H :   -0.010536
   5 H :   -0.008591
   6 H :   -0.010634

  Mayer bond orders larger than 0.100000
B(  0-O ,  1-C ) :   1.7701 B(  1-C ,  2-C ) :   0.7563 B(  1-C ,  3-H ) :   0.9875
B(  2-C ,  4-H ) :   0.9924 B(  2-C ,  5-H ) :   0.9571 B(  2-C ,  6-H ) :   0.9927

Dispersion correction           -0.005532085
FINAL SINGLE POINT ENERGY      -153.931826506871

DIPOLE MOMENT
-------------

Method             : SCF
Type of density    : Electron Density
Multiplicity       :   1
Irrep              :   0
Energy             :  -153.9262944222222700 Eh
Relativity type    :
Basis              : AO
                                X                 Y                 Z
Electronic contribution:      1.439258402       2.986639595       0.065966336
Nuclear contribution   :     -1.681401151      -4.079005577       0.156253248
                        -----------------------------------------
Total Dipole Moment    :     -0.242142749      -1.092365982       0.222219584
                        -----------------------------------------
Magnitude (a.u.)       :      1.140735768
Magnitude (Debye)      :      2.899519894

Rotational constants in cm-1:             1.965873             0.336313             0.303172
Rotational constants in MHz :         58935.379946         10082.411897          9088.862142

                             ****ORCA TERMINATED NORMALLY****
TOTAL RUN TIME: 0 days 0 hours 10 minutes 8 seconds 837 msec
