                         Program Version 6.0.0  -   RELEASE  -
|  1> ! Engrad def2-TZVPPD wB97M-D3BJ
|  2> %pal nprocs 8 end%pal nprocs 64 end
|  3>  %tddft nroots 2 Iroot 2
|  4> sf true
|  5> end
|  6> *xyz 0 3
|  7> O   3.16761531494223 0.4418170930476 -0.9096635282554
|  8> O   -0.58697303010902 1.4878896450933 -2.30804891425919
|  9> O   0.41169721148559 -3.07546494164988 -0.40674000119065
| 10> O   -3.03955327717596 -1.73607577233092 -0.37381130877209
| 11> N   0.32691791854486 -1.45803388567895 1.18201169056105
| 12> N   -2.15114292592293 -0.1443452236317 0.98877004390847
| 13> N   1.55194962551424 -1.14760763877325 -0.77834750841504
| 14> N   -1.48434350422087 -0.3028475344918 -1.22822817108048
| 15> C   1.7270902987932 0.51332897345827 0.9479215155581
| 16> C   -0.80366166456574 1.60691008193133 0.04826884729193
| 17> C   0.37781819472413 -0.0688411633853 1.56301997701313
| 18> C   -1.03805383478932 0.71904129431483 1.25012279299346
| 19> C   2.45127923355457 1.56931019820454 1.663699862526
| 20> C   -0.67472517611395 3.06379673343855 0.17367673875549
| 21> C   2.22148240527549 -0.02644819733645 -0.3027402522091
| 22> C   -0.92562691024299 0.97427113986451 -1.26123549007758
| 23> C   0.72778197955208 -1.97127385949821 -0.02871149829249
| 24> C   -2.28464070910031 -0.8109019565831 -0.20521608642636
| 25> H   0.49679609584346 -0.04361798460191 2.64919401589296
| 26> H   -1.26743330234551 1.33240015353037 2.11787225141992
| 27> H   3.4002937401192 1.7793211280518 1.18100563038913
| 28> H   1.86571620461463 2.50022380776786 1.69207040724024
| 29> H   2.61234157360791 1.28804630102746 2.70864027943586
| 30> H   -1.58697942392352 3.49039362947505 0.60558440248904
| 31> H   0.13359672412401 3.32766409379103 0.86761959765161
| 32> H   -0.48497528429066 3.51876118366067 -0.79292774467866
| 33> H   -0.29748147249669 -2.07768535195799 1.66890369129593
| 34> H   -2.70006028571126 -0.52205254414575 1.7402198882169
| 35> H   1.90543055040216 -1.55198403219414 -1.62983541336785
| 36> H   -1.59955627008907 -0.76099537039782 -2.11849571561431
| 37> *
| 38>
| 39>                          ****END OF INPUT****

CARTESIAN COORDINATES (ANGSTROEM)
---------------------------------
  O      3.167615    0.441817   -0.909664
  O     -0.586973    1.487890   -2.308049
  O      0.411697   -3.075465   -0.406740
  O     -3.039553   -1.736076   -0.373811
  N      0.326918   -1.458034    1.182012
  N     -2.151143   -0.144345    0.988770
  N      1.551950   -1.147608   -0.778348
  N     -1.484344   -0.302848   -1.228228
  C      1.727090    0.513329    0.947922
  C     -0.803662    1.606910    0.048269
  C      0.377818   -0.068841    1.563020
  C     -1.038054    0.719041    1.250123
  C      2.451279    1.569310    1.663700
  C     -0.674725    3.063797    0.173677
  C      2.221482   -0.026448   -0.302740
  C     -0.925627    0.974271   -1.261235
  C      0.727782   -1.971274   -0.028711
  C     -2.284641   -0.810902   -0.205216
  H      0.496796   -0.043618    2.649194
  H     -1.267433    1.332400    2.117872
  H      3.400294    1.779321    1.181006
  H      1.865716    2.500224    1.692070
  H      2.612342    1.288046    2.708640
  H     -1.586979    3.490394    0.605584
  H      0.133597    3.327664    0.867620
  H     -0.484975    3.518761   -0.792928
  H     -0.297481   -2.077685    1.668904
  H     -2.700060   -0.522053    1.740220
  H      1.905431   -1.551984   -1.629835
  H     -1.599556   -0.760995   -2.118496

 Total Charge           Charge          ....    0
 Multiplicity           Mult            ....    3
 Number of Electrons    NEL             ....  132
 Basis Dimension        Dim             ....  882

ORBITAL ENERGIES
----------------
                 SPIN UP ORBITALS
  NO   OCC          E(Eh)            E(eV)
   0   1.0000     -19.332500      -526.0641
   1   1.0000     -19.331991      -526.0502
   2   1.0000     -19.319277      -525.7043
   3   1.0000     -19.314185      -525.5657
   4   1.0000     -14.563874      -396.3032
   5   1.0000     -14.558603      -396.1597
   6   1.0000     -14.557715      -396.1356
   7   1.0000     -14.556371      -396.0990
   8   1.0000     -10.503566      -285.8166
   9   1.0000     -10.499897      -285.7167
  10   1.0000     -10.478346      -285.1303
  11   1.0000     -10.478154      -285.1251
  12   1.0000     -10.449541      -284.3465
  13   1.0000     -10.446159      -284.2544
  14   1.0000     -10.423497      -283.6378
  15   1.0000     -10.412794      -283.3465
  16   1.0000     -10.374106      -282.2938
  17   1.0000     -10.373529      -282.2781
  18   1.0000      -1.220293       -33.2059
  19   1.0000      -1.214540       -33.0493
  20   1.0000      -1.196517       -32.5589
  21   1.0000      -1.193803       -32.4850
  22   1.0000      -1.116476       -30.3809
  23   1.0000      -1.095167       -29.8010
  24   1.0000      -1.064440       -28.9649
  25   1.0000      -1.054167       -28.6854
  26   1.0000      -0.974179       -26.5088
  27   1.0000      -0.950781       -25.8721
  28   1.0000      -0.884567       -24.0703
  29   1.0000      -0.837178       -22.7808
  30   1.0000      -0.828033       -22.5319
  31   1.0000      -0.803226       -21.8569
  32   1.0000      -0.784213       -21.3395
  33   1.0000      -0.775902       -21.1134
  34   1.0000      -0.697908       -18.9911
  35   1.0000      -0.692218       -18.8362
  36   1.0000      -0.684375       -18.6228
  37   1.0000      -0.660603       -17.9759
  38   1.0000      -0.651332       -17.7237
  39   1.0000      -0.646172       -17.5832
  40   1.0000      -0.616485       -16.7754
  41   1.0000      -0.602852       -16.4044
  42   1.0000      -0.589303       -16.0358
  43   1.0000      -0.583265       -15.8714
  44   1.0000      -0.581055       -15.8113
  45   1.0000      -0.571517       -15.5518
  46   1.0000      -0.564347       -15.3567
  47   1.0000      -0.558489       -15.1972
  48   1.0000      -0.557263       -15.1639
  49   1.0000      -0.550130       -14.9698
  50   1.0000      -0.545245       -14.8369
  51   1.0000      -0.541489       -14.7347
  52   1.0000      -0.534054       -14.5324
  53   1.0000      -0.525499       -14.2996
  54   1.0000      -0.513631       -13.9766
  55   1.0000      -0.506498       -13.7825
  56   1.0000      -0.486131       -13.2283
  57   1.0000      -0.420460       -11.4413
  58   1.0000      -0.416326       -11.3288
  59   1.0000      -0.408175       -11.1070
  60   1.0000      -0.406115       -11.0510
  61   1.0000      -0.395208       -10.7542
  62   1.0000      -0.391902       -10.6642
  63   1.0000      -0.387668       -10.5490
  64   1.0000      -0.381225       -10.3737
  65   1.0000      -0.344389        -9.3713
  66   1.0000      -0.323821        -8.8116
  67   0.0000       0.006297         0.1713
  68   0.0000       0.028653         0.7797
  69   0.0000       0.031408         0.8547
  70   0.0000       0.039486         1.0745
  71   0.0000       0.056386         1.5343

                 SPIN DOWN ORBITALS
  NO   OCC          E(Eh)            E(eV)
   0   1.0000     -19.328148      -525.9456
   1   1.0000     -19.327278      -525.9220
   2   1.0000     -19.319063      -525.6984
   3   1.0000     -19.313992      -525.5605
   4   1.0000     -14.563352      -396.2890
   5   1.0000     -14.558259      -396.1504
   6   1.0000     -14.557355      -396.1258
   7   1.0000     -14.556023      -396.0895
   8   1.0000     -10.503586      -285.8171
   9   1.0000     -10.499916      -285.7172
  10   1.0000     -10.479442      -285.1601
  11   1.0000     -10.479155      -285.1523
  12   1.0000     -10.449313      -284.3403
  13   1.0000     -10.446084      -284.2524
  14   1.0000     -10.411890      -283.3219
  15   1.0000     -10.401165      -283.0301
  16   1.0000     -10.374720      -282.3105
  17   1.0000     -10.374109      -282.2939
  18   1.0000      -1.218629       -33.1606
  19   1.0000      -1.212515       -32.9942
  20   1.0000      -1.191305       -32.4171
  21   1.0000      -1.188624       -32.3441
  22   1.0000      -1.114166       -30.3180
  23   1.0000      -1.093024       -29.7427
  24   1.0000      -1.062764       -28.9193
  25   1.0000      -1.052750       -28.6468
  26   1.0000      -0.959532       -26.1102
  27   1.0000      -0.934009       -25.4157
  28   1.0000      -0.880444       -23.9581
  29   1.0000      -0.832150       -22.6439
  30   1.0000      -0.819114       -22.2892
  31   1.0000      -0.797895       -21.7118
  32   1.0000      -0.782936       -21.3048
  33   1.0000      -0.774356       -21.0713
  34   1.0000      -0.691850       -18.8262
  35   1.0000      -0.685754       -18.6603
  36   1.0000      -0.678695       -18.4682
  37   1.0000      -0.653446       -17.7812
  38   1.0000      -0.643427       -17.5085
  39   1.0000      -0.640501       -17.4289
  40   1.0000      -0.614000       -16.7078
  41   1.0000      -0.598232       -16.2787
  42   1.0000      -0.582719       -15.8566
  43   1.0000      -0.574489       -15.6327
  44   1.0000      -0.570332       -15.5195
  45   1.0000      -0.565171       -15.3791
  46   1.0000      -0.559550       -15.2261
  47   1.0000      -0.554035       -15.0761
  48   1.0000      -0.551289       -15.0013
  49   1.0000      -0.540135       -14.6978
  50   1.0000      -0.539010       -14.6672
  51   1.0000      -0.533597       -14.5199
  52   1.0000      -0.527704       -14.3595
  53   1.0000      -0.514771       -14.0076
  54   1.0000      -0.502917       -13.6851
  55   1.0000      -0.501074       -13.6349
  56   1.0000      -0.480433       -13.0733
  57   1.0000      -0.416293       -11.3279
  58   1.0000      -0.412648       -11.2287
  59   1.0000      -0.402178       -10.9438
  60   1.0000      -0.393438       -10.7060
  61   1.0000      -0.386612       -10.5202
  62   1.0000      -0.383879       -10.4459
  63   1.0000      -0.381554       -10.3826
  64   1.0000      -0.372263       -10.1298
  65   0.0000      -0.066197        -1.8013
  66   0.0000      -0.037758        -1.0274
  67   0.0000       0.005947         0.1618
  68   0.0000       0.028559         0.7771
  69   0.0000       0.031089         0.8460

----------------------------------------------------------------------------------------------------
          SPIN FLIP ABSORPTION SPECTRUM VIA TRANSITION ELECTRIC DIPOLE MOMENTS
----------------------------------------------------------------------------------------------------
     Transition      Energy     Energy  Wavelength fosc(D2)      D2        DX        DY        DZ
                      (eV)      (cm-1)    (nm)                 (au**2)    (au)      (au)      (au)
----------------------------------------------------------------------------------------------------
  1-3A  ->  2-3A    0.166935    1346.4  7427.1   0.000001600   0.00039   0.01764  -0.00894   0.00033

Dispersion correction             ... done (  0.1 sec)

MULLIKEN ATOMIC CHARGES AND SPIN DENSITIES
------------------------------------------
   0 O :   -0.680356   -0.005106
   1 O :   -0.679974    0.001373
   2 O :   -0.655462   -0.000252
   3 O :   -0.640933    0.000029
   4 N :   -0.283562    0.003659
   5 N :   -0.296459    0.000213
   6 N :    0.083702   -0.004468
   7 N :    0.058464    0.005539
   8 C :    0.686545    0.447402
   9 C :    0.629949    0.416386
  10 C :   -0.143069   -0.238092
  11 C :    0.453812   -0.178864
  12 C :   -1.196823    0.026341
  13 C :   -1.197308    0.005259
  14 C :    0.093139   -0.303638
  15 C :   -0.103411   -0.281347
  16 C :    0.432773    0.018042
  17 C :    0.367192    0.012619
  18 H :    0.627850    0.009600
  19 H :    0.489256    0.001134
  20 H :    0.313731   -0.004355
  21 H :    0.229270    0.020209
  22 H :    0.319202    0.010288
  23 H :    0.330426    0.012440
  24 H :    0.249579    0.022636
  25 H :    0.319013   -0.004254
  26 H :    0.062636    0.001170
  27 H :    0.065419    0.000618
  28 H :    0.031325    0.003765
  29 H :    0.034074    0.001655
Sum of atomic charges       :    0.0000000

LOEWDIN ATOMIC CHARGES AND SPIN DENSITIES
-----------------------------------------
   0 O :    0.091275   -0.004683
   1 O :    0.094926   -0.000388
   2 O :    0.093154    0.000060
   3 O :    0.099858    0.000406
   4 N :    0.260492   -0.000274
   5 N :    0.270738    0.000020
   6 N :    0.325659   -0.002929
   7 N :    0.325533   -0.000775
   8 C :    0.012512    0.001866
   9 C :   -0.028917    0.022335
  10 C :   -0.041174   -0.003824
  11 C :   -0.084626   -0.001952
  12 C :    0.181445   -0.001421
  13 C :    0.190847    0.001300
  14 C :   -0.414623   -0.006242
  15 C :   -0.412226   -0.002470
  16 C :   -0.496380   -0.000227
  17 C :   -0.487585   -0.000178
  18 H :    0.036389   -0.001096
  19 H :    0.047085   -0.000329
  20 H :   -0.000405    0.000028
  21 H :   -0.006440   -0.000167
  22 H :    0.009192   -0.000006
  23 H :    0.015648    0.000888
  24 H :   -0.011352    0.000379
  25 H :    0.002011    0.000019
  26 H :   -0.028674   -0.000044
  27 H :   -0.028496    0.000019
  28 H :   -0.008848   -0.000252
  29 H :   -0.007017   -0.000061

  Mayer bond orders larger than 0.100000
B(  0-O , 14-C ) :   1.3235 B(  1-O , 15-C ) :   1.4137 B(  2-O , 16-C ) :   1.5135
B(  3-O , 17-C ) :   1.5390 B(  4-N ,  5-N ) :   0.1179 B(  4-N ,  8-C ) :   0.2287
B(  4-N , 10-C ) :   0.3394 B(  4-N , 16-C ) :   1.0326 B(  4-N , 26-H ) :   1.0944
B(  5-N ,  9-C ) :   0.3243 B(  5-N , 11-C ) :   0.1238 B(  5-N , 17-C ) :   1.1474
B(  5-N , 27-H ) :   1.0698 B(  6-N ,  8-C ) :  -0.1321 B(  6-N , 10-C ) :   0.1181
B(  6-N , 14-C ) :   1.0771 B(  6-N , 16-C ) :   0.9618 B(  6-N , 28-H ) :   1.0978
B(  7-N , 11-C ) :   0.1353 B(  7-N , 15-C ) :   0.9809 B(  7-N , 17-C ) :   0.9599
B(  7-N , 29-H ) :   1.0881 B(  8-C ,  9-C ) :   0.1526 B(  8-C , 10-C ) :   0.2394
B(  8-C , 12-C ) :   0.5343 B(  8-C , 14-C ) :   0.7102 B(  8-C , 18-H ) :  -0.1215
B(  8-C , 20-H ) :  -0.1071 B(  9-C , 10-C ) :   0.1544 B(  9-C , 11-C ) :   0.3653
B(  9-C , 13-C ) :   0.5476 B(  9-C , 15-C ) :   0.6703 B( 10-C , 11-C ) :   0.6614
B( 10-C , 18-H ) :   0.6498 B( 11-C , 15-C ) :  -0.1788 B( 11-C , 17-C ) :  -0.1916
B( 11-C , 19-H ) :   0.8553 B( 12-C , 20-H ) :   1.0001 B( 12-C , 21-H ) :   0.8782
B( 12-C , 22-H ) :   0.9617 B( 13-C , 23-H ) :   0.9261 B( 13-C , 24-H ) :   0.8672
B( 13-C , 25-H ) :   0.9950 B( 15-C , 17-C ) :  -0.1056

Dispersion correction           -0.058709533
FINAL SINGLE POINT ENERGY      -908.793401293348

DIPOLE MOMENT
-------------

Method             : TDA/CIS
Type of density    : Electron Density
Level              : Relaxed density
State              :   2
Multiplicity       :   3
Irrep              :   0
Energy             :     0.0000000000000000 Eh
Relativity type    :
Basis              : AO
                                X                 Y                 Z
Electronic contribution:     -2.634713487     -10.247763763      -7.282142612
Nuclear contribution   :      2.381497185      11.893274994      10.180450907
                        -----------------------------------------
Total Dipole Moment    :     -0.253216302       1.645511231       2.898308295
                        -----------------------------------------
Magnitude (a.u.)       :      3.342456683
Magnitude (Debye)      :      8.495849712

Rotational constants in cm-1:             0.019031             0.015354             0.012380
Rotational constants in MHz :           570.543141           460.314160           371.157830

                             ****ORCA TERMINATED NORMALLY****
TOTAL RUN TIME: 0 days 0 hours 4 minutes 36 seconds 772 msec
