                         Program Version 6.0.0  -   RELEASE  -
|  1> ! Engrad def2-TZVPPD wB97M-D3BJ
|  2> %pal nprocs 8 end%pal nprocs 64 end
|  3> %tddft
|  4>  Iroot 1 Nroots 3
|  5> sf true
|  6> end
|  7> *xyz 0 3
|  8> O   0.93416181 -0.85197988 0.48421214
|  9> C   0.6850539 0.16677184 -0.40447487
| 10> C   -0.53738825 0.94158901 0.10417006
| 11> H   0.68027839 -0.03225678 -1.51498328
| 12> H   1.53355342 0.92149907 -0.54970965
| 13> H   -0.23951626 1.8693578 0.54160935
| 14> H   -1.23705051 0.2930478 0.5392614
| 15> *
| 16>
| 17>                          ****END OF INPUT****

CARTESIAN COORDINATES (ANGSTROEM)
---------------------------------
  O      0.934162   -0.851980    0.484212
  C      0.685054    0.166772   -0.404475
  C     -0.537388    0.941589    0.104170
  H      0.680278   -0.032257   -1.514983
  H      1.533553    0.921499   -0.549710
  H     -0.239516    1.869358    0.541609
  H     -1.237051    0.293048    0.539261

 Total Charge           Charge          ....    0
 Multiplicity           Mult            ....    3
 Number of Electrons    NEL             ....   24
 Basis Dimension        Dim             ....  182

ORBITAL ENERGIES
----------------
                 SPIN UP ORBITALS
  NO   OCC          E(Eh)            E(eV)
   0   1.0000     -19.396731      -527.8119
   1   1.0000     -10.422174      -283.6018
   2   1.0000     -10.362348      -281.9738
   3   1.0000      -1.168944       -31.8086
   4   1.0000      -0.870328       -23.6828
   5   1.0000      -0.743769       -20.2390
   6   1.0000      -0.604904       -16.4603
   7   1.0000      -0.589001       -16.0275
   8   1.0000      -0.538637       -14.6571
   9   1.0000      -0.524308       -14.2671
  10   1.0000      -0.430844       -11.7239
  11   1.0000      -0.420506       -11.4425
  12   1.0000      -0.330583        -8.9956
  13   0.0000       0.039353         1.0708
  14   0.0000       0.062690         1.7059
  15   0.0000       0.078653         2.1403
  16   0.0000       0.083666         2.2767
  17   0.0000       0.113345         3.0843

                 SPIN DOWN ORBITALS
  NO   OCC          E(Eh)            E(eV)
   0   1.0000     -19.373088      -527.1685
   1   1.0000     -10.423505      -283.6380
   2   1.0000     -10.349194      -281.6159
   3   1.0000      -1.115635       -30.3580
   4   1.0000      -0.838922       -22.8282
   5   1.0000      -0.719735       -19.5850
   6   1.0000      -0.578209       -15.7339
   7   1.0000      -0.546216       -14.8633
   8   1.0000      -0.516837       -14.0638
   9   1.0000      -0.483009       -13.1433
  10   1.0000      -0.385836       -10.4991
  11   0.0000      -0.066181        -1.8009
  12   0.0000      -0.003828        -0.1042
  13   0.0000       0.038852         1.0572
  14   0.0000       0.063312         1.7228
  15   0.0000       0.078360         2.1323

----------------------------------------------------------------------------------------------------
          SPIN FLIP ABSORPTION SPECTRUM VIA TRANSITION ELECTRIC DIPOLE MOMENTS
----------------------------------------------------------------------------------------------------
     Transition      Energy     Energy  Wavelength fosc(D2)      D2        DX        DY        DZ
                      (eV)      (cm-1)    (nm)                 (au**2)    (au)      (au)      (au)
----------------------------------------------------------------------------------------------------
  1-3A  ->  2-3A    0.479435    3866.9  2586.0   0.000101126   0.00861  -0.08715  -0.02405   0.02087
  1-3A  ->  3-3A    1.138209    9180.3  1089.3   0.003059439   0.10971  -0.00452  -0.27893   0.17858

Dispersion correction             ... done (  0.1 sec)

MULLIKEN ATOMIC CHARGES AND SPIN DENSITIES
------------------------------------------
   0 O :   -0.467816   -0.593365
   1 C :   -0.017315   -0.037459
   2 C :   -0.467156    0.484514
   3 H :    0.225125    0.067898
   4 H :    0.185579   -0.023302
   5 H :    0.231273    0.050347
   6 H :    0.310310    0.051367
Sum of atomic charges       :    0.0000000

LOEWDIN ATOMIC CHARGES AND SPIN DENSITIES
-----------------------------------------
   0 O :   -0.050055   -0.584600
   1 C :   -0.310051    0.016010
   2 C :    0.393747    0.453609
   3 H :    0.031658    0.030210
   4 H :    0.040957   -0.030624
   5 H :   -0.040894    0.055995
   6 H :   -0.065361    0.059400

  Mayer bond orders larger than 0.100000
B(  0-O ,  1-C ) :   1.0199 B(  0-O ,  2-C ) :   0.4087 B(  1-C ,  2-C ) :   0.7933
B(  1-C ,  3-H ) :   0.9492 B(  1-C ,  4-H ) :   0.9553 B(  2-C ,  5-H ) :   0.9760
B(  2-C ,  6-H ) :   0.9295

Dispersion correction           -0.005580160
FINAL SINGLE POINT ENERGY      -153.749563125840

DIPOLE MOMENT
-------------

Method             : TDA/CIS
Type of density    : Electron Density
Level              : Relaxed density
State              :   1
Multiplicity       :   3
Irrep              :   0
Energy             :     0.0000000000000000 Eh
Relativity type    :
Basis              : AO
                                X                 Y                 Z
Electronic contribution:      0.251117456      -1.471821418       0.703283527
Nuclear contribution   :     -0.787919414       2.614535348      -1.185082369
                        -----------------------------------------
Total Dipole Moment    :     -0.536801959       1.142713930      -0.481798841
                        -----------------------------------------
Magnitude (a.u.)       :      1.351325864
Magnitude (Debye)      :      3.434797379

Rotational constants in cm-1:             1.214637             0.375108             0.313449
Rotational constants in MHz :         36413.901138         11245.448030          9396.969930

                             ****ORCA TERMINATED NORMALLY****
TOTAL RUN TIME: 0 days 0 hours 0 minutes 27 seconds 725 msec
