                         Program Version 6.0.0  -   RELEASE  -
|  1> ! Engrad def2-TZVPPD wB97M-D3BJ
|  2> %pal nprocs 8 end%pal nprocs 64 end
|  3> %tddft
|  4>  Iroot 2 Nroots 3
|  5> sf true
|  6> end
|  7> *xyz 0 3
|  8> O   1.28900343 0.67934542 -0.39086576
|  9> C   0.42854859 0.25157721 0.54434386
| 10> C   -0.51241747 -0.82115989 0.08696448
| 11> H   -0.22524653 1.16273777 0.85627349
| 12> H   0.9934976 -0.0802337 1.46255426
| 13> H   -0.78062724 -0.71336348 -0.99879533
| 14> H   -0.7241103 -1.6764579 0.63160065
| 15> *
| 16>
| 17>                          ****END OF INPUT****

CARTESIAN COORDINATES (ANGSTROEM)
---------------------------------
  O      1.289003    0.679345   -0.390866
  C      0.428549    0.251577    0.544344
  C     -0.512417   -0.821160    0.086964
  H     -0.225247    1.162738    0.856273
  H      0.993498   -0.080234    1.462554
  H     -0.780627   -0.713363   -0.998795
  H     -0.724110   -1.676458    0.631601

 Total Charge           Charge          ....    0
 Multiplicity           Mult            ....    3
 Number of Electrons    NEL             ....   24
 Basis Dimension        Dim             ....  182

ORBITAL ENERGIES
----------------
                 SPIN UP ORBITALS
  NO   OCC          E(Eh)            E(eV)
   0   1.0000     -19.389035      -527.6025
   1   1.0000     -10.420721      -283.5622
   2   1.0000     -10.367303      -282.1087
   3   1.0000      -1.179630       -32.0994
   4   1.0000      -0.872447       -23.7405
   5   1.0000      -0.728201       -19.8154
   6   1.0000      -0.615528       -16.7494
   7   1.0000      -0.595077       -16.1929
   8   1.0000      -0.557964       -15.1830
   9   1.0000      -0.511222       -13.9111
  10   1.0000      -0.440639       -11.9904
  11   1.0000      -0.410353       -11.1663
  12   1.0000      -0.322904        -8.7867
  13   0.0000       0.041532         1.1301
  14   0.0000       0.061142         1.6637
  15   0.0000       0.077691         2.1141
  16   0.0000       0.085414         2.3242
  17   0.0000       0.110604         3.0097

                 SPIN DOWN ORBITALS
  NO   OCC          E(Eh)            E(eV)
   0   1.0000     -19.365956      -526.9745
   1   1.0000     -10.422274      -283.6045
   2   1.0000     -10.353787      -281.7409
   3   1.0000      -1.128316       -30.7031
   4   1.0000      -0.838810       -22.8252
   5   1.0000      -0.700886       -19.0721
   6   1.0000      -0.592367       -16.1191
   7   1.0000      -0.544062       -14.8047
   8   1.0000      -0.529753       -14.4153
   9   1.0000      -0.494810       -13.4645
  10   1.0000      -0.381421       -10.3790
  11   0.0000      -0.058451        -1.5905
  12   0.0000       0.000141         0.0038
  13   0.0000       0.040756         1.1090
  14   0.0000       0.061222         1.6659
  15   0.0000       0.077479         2.1083

----------------------------------------------------------------------------------------------------
          SPIN FLIP ABSORPTION SPECTRUM VIA TRANSITION ELECTRIC DIPOLE MOMENTS
----------------------------------------------------------------------------------------------------
     Transition      Energy     Energy  Wavelength fosc(D2)      D2        DX        DY        DZ
                      (eV)      (cm-1)    (nm)                 (au**2)    (au)      (au)      (au)
----------------------------------------------------------------------------------------------------
  1-3A  ->  2-3A    0.280317    2260.9  4423.0   0.000228418   0.03326  -0.08428  -0.16170  -0.00307
  1-3A  ->  3-3A    0.887231    7156.0  1397.4   0.019726987   0.90754   0.76222   0.47891  -0.31179

Dispersion correction             ... done (  0.1 sec)

MULLIKEN ATOMIC CHARGES AND SPIN DENSITIES
------------------------------------------
   0 O :   -0.334276    0.699216
   1 C :   -0.027294    0.056587
   2 C :   -0.343482   -0.602120
   3 H :    0.175417   -0.006397
   4 H :    0.217393   -0.025587
   5 H :    0.157997   -0.063374
   6 H :    0.154245   -0.058326
Sum of atomic charges       :    0.0000000

LOEWDIN ATOMIC CHARGES AND SPIN DENSITIES
-----------------------------------------
   0 O :    0.060230    0.654314
   1 C :   -0.317140   -0.018141
   2 C :    0.295437   -0.503288
   3 H :    0.074729    0.015976
   4 H :    0.035341   -0.009298
   5 H :   -0.030796   -0.058756
   6 H :   -0.117801   -0.080806

  Mayer bond orders larger than 0.100000
B(  0-O ,  1-C ) :   0.8805 B(  1-C ,  2-C ) :   0.8408 B(  1-C ,  3-H ) :   0.9277
B(  1-C ,  4-H ) :   0.9607 B(  2-C ,  5-H ) :   1.0256 B(  2-C ,  6-H ) :   1.0401

Dispersion correction           -0.005521995
FINAL SINGLE POINT ENERGY      -153.746830267159

DIPOLE MOMENT
-------------

Method             : TDA/CIS
Type of density    : Electron Density
Level              : Relaxed density
State              :   2
Multiplicity       :   3
Irrep              :   0
Energy             :     0.0000000000000000 Eh
Relativity type    :
Basis              : AO
                                X                 Y                 Z
Electronic contribution:      1.864912325       1.280564962      -1.036641388
Nuclear contribution   :     -2.285948328      -1.448195586       1.543278689
                        -----------------------------------------
Total Dipole Moment    :     -0.421036003      -0.167630624       0.506637300
                        -----------------------------------------
Magnitude (a.u.)       :      0.679744581
Magnitude (Debye)      :      1.727773417

Rotational constants in cm-1:             1.447928             0.353495             0.308499
Rotational constants in MHz :         43407.786205         10597.516301          9248.563287

                             ****ORCA TERMINATED NORMALLY****
TOTAL RUN TIME: 0 days 0 hours 0 minutes 26 seconds 597 msec
