                         Program Version 6.0.0  -   RELEASE  -
|  1> ! Engrad def2-TZVPPD wB97M-D3BJ
|  2> %pal nprocs 8 end%pal nprocs 64 end
|  3> %tddft Nroots 2 Iroot 1
|  4> sf true
|  5> end
|  6> *xyz 0 3
|  7> O   4.04220114 -0.18149767 0.7552535
|  8> O   -2.13910803 1.84102182 -2.01642591
|  9> O   1.09069579 -2.8697874 -1.18273829
| 10> O   -3.4649783 -1.64946246 0.36033424
| 11> N   0.47039361 -0.86598538 -0.38428366
| 12> N   -1.93680664 -0.25077281 1.34263291
| 13> N   2.56212221 -1.70980783 0.18617744
| 14> N   -2.69375512 0.08989273 -0.80637313
| 15> C   1.82234742 0.42423153 1.06427423
| 16> C   -1.01724665 1.62037125 0.07014838
| 17> C   0.48197495 -0.20208851 0.90503686
| 18> C   -0.7630424 0.65349543 1.18520926
| 19> C   2.14750396 1.68174959 1.76713074
| 20> C   -0.36658719 2.93238817 0.02328592
| 21> C   2.89117348 -0.46525487 0.63421824
| 22> C   -1.98202527 1.24435507 -0.99043342
| 23> C   1.34564815 -1.90320534 -0.52272382
| 24> C   -2.71513263 -0.72040778 0.31541021
| 25> H   0.52833709 -0.95143256 1.71729785
| 26> H   -0.53995457 1.16773427 2.1536859
| 27> H   3.11921091 1.59853319 2.27450708
| 28> H   2.27114076 2.5540506 1.11707687
| 29> H   1.38833904 1.9720464 2.53653349
| 30> H   -0.08703478 3.27218335 1.03801267
| 31> H   0.5492771 2.7417935 -0.55311391
| 32> H   -1.0612241 3.63224945 -0.48550164
| 33> H   -0.39644407 -1.1136788 -0.86029079
| 34> H   -1.98675467 -0.77955341 2.16156141
| 35> H   3.32542927 -2.17781179 -0.28821831
| 36> H   -3.35302211 -0.26711647 -1.49987121
| 37> *
| 38>
| 39>                          ****END OF INPUT****

CARTESIAN COORDINATES (ANGSTROEM)
---------------------------------
  O      4.042201   -0.181498    0.755254
  O     -2.139108    1.841022   -2.016426
  O      1.090696   -2.869787   -1.182738
  O     -3.464978   -1.649462    0.360334
  N      0.470394   -0.865985   -0.384284
  N     -1.936807   -0.250773    1.342633
  N      2.562122   -1.709808    0.186177
  N     -2.693755    0.089893   -0.806373
  C      1.822347    0.424232    1.064274
  C     -1.017247    1.620371    0.070148
  C      0.481975   -0.202089    0.905037
  C     -0.763042    0.653495    1.185209
  C      2.147504    1.681750    1.767131
  C     -0.366587    2.932388    0.023286
  C      2.891173   -0.465255    0.634218
  C     -1.982025    1.244355   -0.990433
  C      1.345648   -1.903205   -0.522724
  C     -2.715133   -0.720408    0.315410
  H      0.528337   -0.951433    1.717298
  H     -0.539955    1.167734    2.153686
  H      3.119211    1.598533    2.274507
  H      2.271141    2.554051    1.117077
  H      1.388339    1.972046    2.536533
  H     -0.087035    3.272183    1.038013
  H      0.549277    2.741793   -0.553114
  H     -1.061224    3.632249   -0.485502
  H     -0.396444   -1.113679   -0.860291
  H     -1.986755   -0.779553    2.161561
  H      3.325429   -2.177812   -0.288218
  H     -3.353022   -0.267116   -1.499871

 Total Charge           Charge          ....    0
 Multiplicity           Mult            ....    3
 Number of Electrons    NEL             ....  132
 Basis Dimension        Dim             ....  882

ORBITAL ENERGIES
----------------
                 SPIN UP ORBITALS
  NO   OCC          E(Eh)            E(eV)
   0   1.0000     -19.332827      -526.0730
   1   1.0000     -19.331935      -526.0487
   2   1.0000     -19.328164      -525.9461
   3   1.0000     -19.325596      -525.8762
   4   1.0000     -14.563318      -396.2880
   5   1.0000     -14.563070      -396.2813
   6   1.0000     -14.563028      -396.2801
   7   1.0000     -14.558916      -396.1683
   8   1.0000     -10.506542      -285.8975
   9   1.0000     -10.504150      -285.8325
  10   1.0000     -10.483452      -285.2692
  11   1.0000     -10.473188      -284.9899
  12   1.0000     -10.458498      -284.5902
  13   1.0000     -10.444235      -284.2021
  14   1.0000     -10.422280      -283.6047
  15   1.0000     -10.418344      -283.4976
  16   1.0000     -10.384664      -282.5811
  17   1.0000     -10.381959      -282.5075
  18   1.0000      -1.234084       -33.5811
  19   1.0000      -1.232145       -33.5284
  20   1.0000      -1.212330       -32.9892
  21   1.0000      -1.210345       -32.9352
  22   1.0000      -1.126096       -30.6426
  23   1.0000      -1.106426       -30.1074
  24   1.0000      -1.070404       -29.1272
  25   1.0000      -1.059599       -28.8331
  26   1.0000      -0.987819       -26.8799
  27   1.0000      -0.962163       -26.1818
  28   1.0000      -0.898049       -24.4371
  29   1.0000      -0.849844       -23.1254
  30   1.0000      -0.830062       -22.5871
  31   1.0000      -0.792250       -21.5582
  32   1.0000      -0.787162       -21.4198
  33   1.0000      -0.777627       -21.1603
  34   1.0000      -0.707100       -19.2412
  35   1.0000      -0.706029       -19.2120
  36   1.0000      -0.690557       -18.7910
  37   1.0000      -0.685593       -18.6559
  38   1.0000      -0.649575       -17.6758
  39   1.0000      -0.636310       -17.3149
  40   1.0000      -0.624429       -16.9916
  41   1.0000      -0.610752       -16.6194
  42   1.0000      -0.602586       -16.3972
  43   1.0000      -0.589072       -16.0295
  44   1.0000      -0.583657       -15.8821
  45   1.0000      -0.575294       -15.6546
  46   1.0000      -0.574847       -15.6424
  47   1.0000      -0.571138       -15.5415
  48   1.0000      -0.567119       -15.4321
  49   1.0000      -0.559632       -15.2284
  50   1.0000      -0.556452       -15.1418
  51   1.0000      -0.546741       -14.8776
  52   1.0000      -0.539170       -14.6716
  53   1.0000      -0.529999       -14.4220
  54   1.0000      -0.520856       -14.1732
  55   1.0000      -0.511467       -13.9177
  56   1.0000      -0.494558       -13.4576
  57   1.0000      -0.432626       -11.7724
  58   1.0000      -0.424492       -11.5510
  59   1.0000      -0.416879       -11.3438
  60   1.0000      -0.408625       -11.1193
  61   1.0000      -0.403399       -10.9770
  62   1.0000      -0.397280       -10.8105
  63   1.0000      -0.390345       -10.6218
  64   1.0000      -0.385962       -10.5026
  65   1.0000      -0.344357        -9.3704
  66   1.0000      -0.336431        -9.1547
  67   0.0000       0.008091         0.2202
  68   0.0000       0.029992         0.8161
  69   0.0000       0.031781         0.8648
  70   0.0000       0.033930         0.9233
  71   0.0000       0.053439         1.4541

                 SPIN DOWN ORBITALS
  NO   OCC          E(Eh)            E(eV)
   0   1.0000     -19.329252      -525.9757
   1   1.0000     -19.328038      -525.9427
   2   1.0000     -19.327570      -525.9299
   3   1.0000     -19.325500      -525.8736
   4   1.0000     -14.562954      -396.2781
   5   1.0000     -14.562866      -396.2757
   6   1.0000     -14.562836      -396.2749
   7   1.0000     -14.558353      -396.1529
   8   1.0000     -10.506580      -285.8986
   9   1.0000     -10.504202      -285.8339
  10   1.0000     -10.484398      -285.2950
  11   1.0000     -10.474128      -285.0155
  12   1.0000     -10.459158      -284.6082
  13   1.0000     -10.443726      -284.1882
  14   1.0000     -10.410517      -283.2846
  15   1.0000     -10.406790      -283.1832
  16   1.0000     -10.385301      -282.5984
  17   1.0000     -10.382470      -282.5214
  18   1.0000      -1.232030       -33.5252
  19   1.0000      -1.230195       -33.4753
  20   1.0000      -1.208375       -32.8816
  21   1.0000      -1.206445       -32.8290
  22   1.0000      -1.123455       -30.5708
  23   1.0000      -1.104505       -30.0551
  24   1.0000      -1.068804       -29.0836
  25   1.0000      -1.058423       -28.8011
  26   1.0000      -0.975541       -26.5458
  27   1.0000      -0.944064       -25.6893
  28   1.0000      -0.892611       -24.2892
  29   1.0000      -0.844690       -22.9852
  30   1.0000      -0.821072       -22.3425
  31   1.0000      -0.790435       -21.5088
  32   1.0000      -0.782809       -21.3013
  33   1.0000      -0.776224       -21.1221
  34   1.0000      -0.702091       -19.1049
  35   1.0000      -0.697922       -18.9914
  36   1.0000      -0.685230       -18.6461
  37   1.0000      -0.678016       -18.4497
  38   1.0000      -0.642711       -17.4891
  39   1.0000      -0.625118       -17.0103
  40   1.0000      -0.621202       -16.9038
  41   1.0000      -0.604059       -16.4373
  42   1.0000      -0.597618       -16.2620
  43   1.0000      -0.585840       -15.9415
  44   1.0000      -0.576777       -15.6949
  45   1.0000      -0.570456       -15.5229
  46   1.0000      -0.568429       -15.4677
  47   1.0000      -0.564743       -15.3674
  48   1.0000      -0.555156       -15.1066
  49   1.0000      -0.553284       -15.0556
  50   1.0000      -0.548096       -14.9145
  51   1.0000      -0.540227       -14.7003
  52   1.0000      -0.529516       -14.4089
  53   1.0000      -0.521872       -14.2009
  54   1.0000      -0.515615       -14.0306
  55   1.0000      -0.504880       -13.7385
  56   1.0000      -0.489870       -13.3300
  57   1.0000      -0.428358       -11.6562
  58   1.0000      -0.422108       -11.4862
  59   1.0000      -0.407457       -11.0875
  60   1.0000      -0.400511       -10.8985
  61   1.0000      -0.396643       -10.7932
  62   1.0000      -0.393123       -10.6974
  63   1.0000      -0.385962       -10.5026
  64   1.0000      -0.381812       -10.3896
  65   0.0000      -0.055507        -1.5104
  66   0.0000      -0.051689        -1.4065
  67   0.0000       0.007837         0.2132
  68   0.0000       0.029481         0.8022
  69   0.0000       0.032008         0.8710

----------------------------------------------------------------------------------------------------
          SPIN FLIP ABSORPTION SPECTRUM VIA TRANSITION ELECTRIC DIPOLE MOMENTS
----------------------------------------------------------------------------------------------------
     Transition      Energy     Energy  Wavelength fosc(D2)      D2        DX        DY        DZ
                      (eV)      (cm-1)    (nm)                 (au**2)    (au)      (au)      (au)
----------------------------------------------------------------------------------------------------
  1-3A  ->  2-3A    0.006942      56.0  178596.9   0.000001277   0.00751  -0.08534   0.01233  -0.00868

Dispersion correction             ... done (  0.1 sec)

MULLIKEN ATOMIC CHARGES AND SPIN DENSITIES
------------------------------------------
   0 O :   -0.623034    0.070935
   1 O :   -0.667288   -0.063610
   2 O :   -0.611223   -0.000061
   3 O :   -0.631715   -0.002122
   4 N :   -0.330781    0.001135
   5 N :   -0.173989   -0.012613
   6 N :   -0.119596    0.002770
   7 N :   -0.068158   -0.013426
   8 C :    0.311276    0.443994
   9 C :    0.934707    0.245699
  10 C :    0.755378   -0.075410
  11 C :   -0.046080   -0.293787
  12 C :   -1.438112   -0.021396
  13 C :   -1.312040   -0.023370
  14 C :    0.327392   -0.038345
  15 C :    0.024992   -0.272842
  16 C :    0.201098   -0.000639
  17 C :    0.464638    0.018335
  18 H :    0.355731    0.027030
  19 H :    0.464559   -0.026075
  20 H :    0.362731    0.006655
  21 H :    0.240459    0.022099
  22 H :    0.302824    0.004830
  23 H :    0.271272    0.006899
  24 H :    0.302658    0.001532
  25 H :    0.383922   -0.011311
  26 H :    0.111252   -0.003468
  27 H :    0.018387    0.001099
  28 H :    0.142048    0.000335
  29 H :    0.046693    0.005128
Sum of atomic charges       :   -0.0000000

LOEWDIN ATOMIC CHARGES AND SPIN DENSITIES
-----------------------------------------
   0 O :    0.116828    0.062617
   1 O :    0.102742   -0.055285
   2 O :    0.117604    0.000540
   3 O :    0.110334   -0.002337
   4 N :    0.284469    0.004114
   5 N :    0.307952   -0.003107
   6 N :    0.323589    0.000643
   7 N :    0.302330   -0.009972
   8 C :   -0.004732    0.236163
   9 C :   -0.002329   -0.225281
  10 C :   -0.144157    0.018223
  11 C :   -0.096103   -0.028114
  12 C :    0.172958    0.037296
  13 C :    0.178084   -0.036273
  14 C :   -0.454888    0.035363
  15 C :   -0.438608   -0.042852
  16 C :   -0.471265   -0.000031
  17 C :   -0.513883   -0.000845
  18 H :    0.070644    0.011917
  19 H :    0.064726   -0.003544
  20 H :    0.007745    0.003707
  21 H :    0.002812    0.013384
  22 H :    0.010369    0.002956
  23 H :    0.006356   -0.002271
  24 H :    0.018247   -0.013510
  25 H :    0.023630   -0.003362
  26 H :   -0.026290    0.000433
  27 H :   -0.070037   -0.000037
  28 H :   -0.008633    0.000184
  29 H :    0.009508   -0.000720

  Mayer bond orders larger than 0.100000
B(  0-O , 14-C ) :   1.3872 B(  1-O , 15-C ) :   1.3833 B(  2-O , 16-C ) :   1.5846
B(  3-O , 17-C ) :   1.5741 B(  4-N ,  8-C ) :   0.4681 B(  4-N , 10-C ) :  -0.2614
B(  4-N , 11-C ) :   0.1221 B(  4-N , 16-C ) :   1.2464 B(  4-N , 26-H ) :   0.9706
B(  5-N ,  9-C ) :   0.1141 B(  5-N , 10-C ) :   0.2158 B(  5-N , 11-C ) :   0.1693
B(  5-N , 17-C ) :   1.0867 B(  5-N , 27-H ) :   1.1304 B(  6-N , 14-C ) :   0.8743
B(  6-N , 16-C ) :   0.9477 B(  6-N , 28-H ) :   0.9716 B(  7-N , 15-C ) :   0.9899
B(  7-N , 17-C ) :   0.9634 B(  7-N , 29-H ) :   1.1080 B(  8-C ,  9-C ) :   0.1196
B(  8-C , 10-C ) :  -0.4015 B(  8-C , 11-C ) :   0.2297 B(  8-C , 12-C ) :   0.4334
B(  8-C , 14-C ) :   0.9986 B(  8-C , 22-H ) :  -0.1936 B(  9-C , 10-C ) :   0.1763
B(  9-C , 11-C ) :   0.4514 B(  9-C , 13-C ) :   0.3257 B(  9-C , 15-C ) :   0.5439
B(  9-C , 19-H ) :  -0.2211 B(  9-C , 23-H ) :  -0.1620 B( 10-C , 11-C ) :   0.5602
B( 10-C , 16-C ) :  -0.1797 B( 10-C , 18-H ) :   0.8048 B( 11-C , 12-C ) :  -0.1543
B( 11-C , 13-C ) :  -0.1977 B( 11-C , 14-C ) :   0.1360 B( 11-C , 19-H ) :   0.9224
B( 12-C , 20-H ) :   0.8748 B( 12-C , 21-H ) :   0.9596 B( 12-C , 22-H ) :   1.0667
B( 13-C , 23-H ) :   1.0984 B( 13-C , 24-H ) :   0.8727 B( 13-C , 25-H ) :   0.8537

Dispersion correction           -0.057433186
FINAL SINGLE POINT ENERGY      -908.776774493906

DIPOLE MOMENT
-------------

Method             : TDA/CIS
Type of density    : Electron Density
Level              : Relaxed density
State              :   1
Multiplicity       :   3
Irrep              :   0
Energy             :     0.0000000000000000 Eh
Relativity type    :
Basis              : AO
                                X                 Y                 Z
Electronic contribution:     -3.443742550      -9.717030050      -5.300568295
Nuclear contribution   :      3.688139183      11.280445538       7.167062232
                        -----------------------------------------
Total Dipole Moment    :      0.244396633       1.563415487       1.866493936
                        -----------------------------------------
Magnitude (a.u.)       :      2.446997612
Magnitude (Debye)      :      6.219773637

Rotational constants in cm-1:             0.021372             0.011307             0.009152
Rotational constants in MHz :           640.723939           338.982130           274.366719

                             ****ORCA TERMINATED NORMALLY****
TOTAL RUN TIME: 0 days 0 hours 4 minutes 21 seconds 585 msec
