                         Program Version 6.0.0  -   RELEASE  -
|  1> ! Engrad wB97M-D3BJ def2-TZVPPD
|  2> %pal nprocs 8 end%pal nprocs 16 end
|  3> %tddft nroots 2 Iroot 2
|  4>  sf true
|  5> end
|  6> *xyz 0 3
|  7> O   1.49772385387463 1.0134714949695 -0.04839563222481
|  8> C   0.94587428359179 -0.01056278507102 0.24389056870121
|  9> C   -0.30806692717232 -0.67269099726251 -0.23627216238273
| 10> H   1.4261816206917 -0.63514146415847 1.03134586498558
| 11> H   -0.04181977289011 -1.66258701585848 -0.60645874180405
| 12> H   -0.82489845346681 -0.10948890328921 -1.00909922373803
| 13> H   -0.96032827821808 -0.81669263792343 0.62498932646284
| 14> *
| 15>
| 16>                          ****END OF INPUT****

CARTESIAN COORDINATES (ANGSTROEM)
---------------------------------
  O      1.497724    1.013471   -0.048396
  C      0.945874   -0.010563    0.243891
  C     -0.308067   -0.672691   -0.236272
  H      1.426182   -0.635141    1.031346
  H     -0.041820   -1.662587   -0.606459
  H     -0.824898   -0.109489   -1.009099
  H     -0.960328   -0.816693    0.624989

 Total Charge           Charge          ....    0
 Multiplicity           Mult            ....    3
 Number of Electrons    NEL             ....   24
 Basis Dimension        Dim             ....  182

ORBITAL ENERGIES
----------------
                 SPIN UP ORBITALS
  NO   OCC          E(Eh)            E(eV)
   0   1.0000     -19.407332      -528.1004
   1   1.0000     -10.379941      -282.4525
   2   1.0000     -10.369050      -282.1562
   3   1.0000      -1.244106       -33.8539
   4   1.0000      -0.886495       -24.1228
   5   1.0000      -0.716369       -19.4934
   6   1.0000      -0.631422       -17.1819
   7   1.0000      -0.588934       -16.0257
   8   1.0000      -0.581082       -15.8120
   9   1.0000      -0.516518       -14.0552
  10   1.0000      -0.515734       -14.0338
  11   1.0000      -0.428120       -11.6497
  12   1.0000      -0.218207        -5.9377
  13   0.0000       0.039087         1.0636
  14   0.0000       0.059956         1.6315
  15   0.0000       0.077871         2.1190
  16   0.0000       0.087599         2.3837
  17   0.0000       0.106873         2.9082

                 SPIN DOWN ORBITALS
  NO   OCC          E(Eh)            E(eV)
   0   1.0000     -19.380061      -527.3583
   1   1.0000     -10.369695      -282.1737
   2   1.0000     -10.367029      -282.1012
   3   1.0000      -1.187482       -32.3130
   4   1.0000      -0.867464       -23.6049
   5   1.0000      -0.670817       -18.2539
   6   1.0000      -0.585525       -15.9330
   7   1.0000      -0.541493       -14.7348
   8   1.0000      -0.535797       -14.5798
   9   1.0000      -0.498194       -13.5566
  10   1.0000      -0.471587       -12.8325
  11   0.0000      -0.082832        -2.2540
  12   0.0000       0.039922         1.0863
  13   0.0000       0.059621         1.6224
  14   0.0000       0.077533         2.1098
  15   0.0000       0.084732         2.3057

----------------------------------------------------------------------------------------------------
          SPIN FLIP ABSORPTION SPECTRUM VIA TRANSITION ELECTRIC DIPOLE MOMENTS
----------------------------------------------------------------------------------------------------
     Transition      Energy     Energy  Wavelength fosc(D2)      D2        DX        DY        DZ
                      (eV)      (cm-1)    (nm)                 (au**2)    (au)      (au)      (au)
----------------------------------------------------------------------------------------------------
  1-3A  ->  2-3A    4.624333   37297.8   268.1   0.000238011   0.00210  -0.02401   0.02212   0.03217

Dispersion correction             ... done (  0.0 sec)

MULLIKEN ATOMIC CHARGES AND SPIN DENSITIES
------------------------------------------
   0 O :   -0.270063    0.565812
   1 C :    0.231651   -0.607107
   2 C :   -0.709946    0.118762
   3 H :    0.088026    0.021234
   4 H :    0.205682   -0.049172
   5 H :    0.248198   -0.002202
   6 H :    0.206452   -0.047327
Sum of atomic charges       :   -0.0000000

LOEWDIN ATOMIC CHARGES AND SPIN DENSITIES
-----------------------------------------
   0 O :    0.157314    0.378406
   1 C :   -0.259230   -0.335773
   2 C :    0.133066   -0.018763
   3 H :    0.016470    0.013927
   4 H :   -0.020384   -0.022677
   5 H :   -0.006937    0.007536
   6 H :   -0.020299   -0.022657

  Mayer bond orders larger than 0.100000
B(  0-O ,  1-C ) :   1.2935 B(  1-C ,  2-C ) :   0.6131 B(  1-C ,  3-H ) :   0.9981
B(  2-C ,  4-H ) :   1.0155 B(  2-C ,  5-H ) :   0.9292 B(  2-C ,  6-H ) :   1.0144

Dispersion correction           -0.005515808
FINAL SINGLE POINT ENERGY      -153.752258366439

DIPOLE MOMENT
-------------

Method             : TDA/CIS
Type of density    : Electron Density
Level              : Relaxed density
State              :   2
Multiplicity       :   3
Irrep              :   0
Energy             :     0.0000000000000000 Eh
Relativity type    :
Basis              : AO
                                X                 Y                 Z
Electronic contribution:      2.606499796       2.905912278      -0.053564151
Nuclear contribution   :     -3.023814709      -3.416543796       0.092417621
                        -----------------------------------------
Total Dipole Moment    :     -0.417314913      -0.510631517       0.038853470
                        -----------------------------------------
Magnitude (a.u.)       :      0.660610230
Magnitude (Debye)      :      1.679137760

Rotational constants in cm-1:             2.171569             0.320398             0.294316
Rotational constants in MHz :         65102.012061          9605.287827          8823.376153

                             ****ORCA TERMINATED NORMALLY****
TOTAL RUN TIME: 0 days 0 hours 0 minutes 16 seconds 214 msec
