                         Program Version 6.0.0  -   RELEASE  -
|  1> ! Engrad wB97M-D3BJ def2-TZVPPD
|  2> %pal nprocs 8 end%pal nprocs 16 end
|  3> %tddft nroots 2 Iroot 2
|  4>  sf true
|  5> end
|  6> *xyz 0 3
|  7> O   0.23349256016013 0.88343912752086 -0.0001459672573
|  8> C   0.72637427156619 -0.38428962817065 3.023433034e-05
|  9> C   -0.68637426295489 -0.50725430938782 -0.00013591713145
| 10> H   1.26613276618373 -0.68486416324155 0.89935442212305
| 11> H   1.26617753837733 -0.68505243295619 -0.89923052523803
| 12> H   -1.22757292589495 -0.59306404886841 -0.92709896283606
| 13> H   -1.22706676665828 -0.59217819231708 0.92722671600944
| 14> *
| 15>
| 16>                          ****END OF INPUT****

CARTESIAN COORDINATES (ANGSTROEM)
---------------------------------
  O      0.233493    0.883439   -0.000146
  C      0.726374   -0.384290    0.000030
  C     -0.686374   -0.507254   -0.000136
  H      1.266133   -0.684864    0.899354
  H      1.266178   -0.685052   -0.899231
  H     -1.227573   -0.593064   -0.927099
  H     -1.227067   -0.592178    0.927227

 Total Charge           Charge          ....    0
 Multiplicity           Mult            ....    3
 Number of Electrons    NEL             ....   24
 Basis Dimension        Dim             ....  182

ORBITAL ENERGIES
----------------
                 SPIN UP ORBITALS
  NO   OCC          E(Eh)            E(eV)
   0   1.0000     -19.440530      -529.0037
   1   1.0000     -10.412861      -283.3484
   2   1.0000     -10.339665      -281.3566
   3   1.0000      -1.259456       -34.2715
   4   1.0000      -0.859236       -23.3810
   5   1.0000      -0.758824       -20.6487
   6   1.0000      -0.667565       -18.1654
   7   1.0000      -0.631412       -17.1816
   8   1.0000      -0.554988       -15.1020
   9   1.0000      -0.498631       -13.5684
  10   1.0000      -0.479847       -13.0573
  11   1.0000      -0.460727       -12.5370
  12   1.0000      -0.192049        -5.2259
  13   0.0000       0.038976         1.0606
  14   0.0000       0.062934         1.7125
  15   0.0000       0.071515         1.9460
  16   0.0000       0.086245         2.3469
  17   0.0000       0.112571         3.0632

                 SPIN DOWN ORBITALS
  NO   OCC          E(Eh)            E(eV)
   0   1.0000     -19.408201      -528.1240
   1   1.0000     -10.413533      -283.3666
   2   1.0000     -10.328567      -281.0546
   3   1.0000      -1.193107       -32.4661
   4   1.0000      -0.824622       -22.4391
   5   1.0000      -0.739397       -20.1200
   6   1.0000      -0.616770       -16.7832
   7   1.0000      -0.596261       -16.2251
   8   1.0000      -0.521204       -14.1827
   9   1.0000      -0.472622       -12.8607
  10   1.0000      -0.417082       -11.3494
  11   0.0000      -0.097034        -2.6404
  12   0.0000       0.035000         0.9524
  13   0.0000       0.057365         1.5610
  14   0.0000       0.059848         1.6286
  15   0.0000       0.066986         1.8228

----------------------------------------------------------------------------------------------------
          SPIN FLIP ABSORPTION SPECTRUM VIA TRANSITION ELECTRIC DIPOLE MOMENTS
----------------------------------------------------------------------------------------------------
     Transition      Energy     Energy  Wavelength fosc(D2)      D2        DX        DY        DZ
                      (eV)      (cm-1)    (nm)                 (au**2)    (au)      (au)      (au)
----------------------------------------------------------------------------------------------------
  1-3A  ->  2-3A    5.087254   41031.5   243.7   0.004330488   0.03475  -0.00016  -0.00005   0.18640

Dispersion correction             ... done (  0.0 sec)

MULLIKEN ATOMIC CHARGES AND SPIN DENSITIES
------------------------------------------
   0 O :   -0.295258    0.496191
   1 C :    0.138498    0.286509
   2 C :   -0.107362   -0.261390
   3 H :    0.201060    0.019837
   4 H :    0.200911    0.019734
   5 H :   -0.068913   -0.280388
   6 H :   -0.068935   -0.280493
Sum of atomic charges       :    0.0000000

LOEWDIN ATOMIC CHARGES AND SPIN DENSITIES
-----------------------------------------
   0 O :    0.102752    0.569769
   1 C :   -0.116731    0.041905
   2 C :    0.099821   -0.437881
   3 H :    0.029878    0.013590
   4 H :    0.029894    0.013608
   5 H :   -0.072823   -0.100531
   6 H :   -0.072790   -0.100460

  Mayer bond orders larger than 0.100000
B(  0-O ,  1-C ) :   0.7865 B(  0-O ,  2-C ) :   0.6033 B(  1-C ,  2-C ) :   0.6123
B(  1-C ,  3-H ) :   0.9893 B(  1-C ,  4-H ) :   0.9891 B(  2-C ,  5-H ) :   1.1218
B(  2-C ,  6-H ) :   1.1220 B(  5-H ,  6-H ) :   0.2626

Dispersion correction           -0.005249077
FINAL SINGLE POINT ENERGY      -153.663788763538

DIPOLE MOMENT
-------------

Method             : TDA/CIS
Type of density    : Electron Density
Level              : Relaxed density
State              :   2
Multiplicity       :   3
Irrep              :   0
Energy             :     0.0000000000000000 Eh
Relativity type    :
Basis              : AO
                                X                 Y                 Z
Electronic contribution:      0.897496345       2.380360390      -0.000500344
Nuclear contribution   :     -0.290941445      -2.456835717       0.000520519
                        -----------------------------------------
Total Dipole Moment    :      0.606554901      -0.076475327       0.000020175
                        -----------------------------------------
Magnitude (a.u.)       :      0.611356953
Magnitude (Debye)      :      1.553945880

Rotational constants in cm-1:             0.913701             0.648785             0.447076
Rotational constants in MHz :         27392.058324         19450.099682         13403.007920

                             ****ORCA TERMINATED NORMALLY****
TOTAL RUN TIME: 0 days 0 hours 0 minutes 17 seconds 723 msec
