                         Program Version 6.0.0  -   RELEASE  -
|  1> ! Engrad def2-TZVPPD wB97M-D3BJ
|  2> %pal nprocs 8 end%pal nprocs 64 end
|  3> %tddft Nroots 2 Iroot 1
|  4> sf true
|  5> end
|  6> *xyz 0 3
|  7> O   2.60087882 1.15547825 -0.51880812
|  8> O   -0.58801088 0.87158408 -2.2816843
|  9> O   0.6426954 -2.82507342 -1.50813609
| 10> O   -2.53356011 -1.6328171 0.97670139
| 11> N   0.59798001 -2.09124727 0.64756219
| 12> N   -1.99883714 0.53467156 1.42850645
| 13> N   1.70347044 -0.87344486 -0.96693391
| 14> N   -1.62511352 -0.33402012 -0.66430642
| 15> C   1.4174433 0.07801889 1.22738383
| 16> C   -0.82906568 1.88795305 -0.16213263
| 17> C   0.78084584 -1.06185093 1.54271979
| 18> C   -1.3837298 1.70506655 1.07724105
| 19> C   1.67049433 1.18609952 2.19487156
| 20> C   -0.13235511 3.13586058 -0.56441068
| 21> C   1.96501275 0.20184082 -0.12392867
| 22> C   -0.98448397 0.82088099 -1.1305539
| 23> C   0.95866125 -1.99752859 -0.67916658
| 24> C   -2.09376704 -0.56424819 0.60381802
| 25> H   0.38070073 -1.23210093 2.5248886
| 26> H   -1.35113253 2.46433513 1.82818939
| 27> H   1.37121212 2.13319919 1.77343166
| 28> H   1.13681254 1.01649834 3.12503819
| 29> H   2.7335241 1.26472465 2.41369346
| 30> H   -0.60167895 3.5668213 -1.44911358
| 31> H   -0.16338312 3.87707257 0.23359536
| 32> H   0.90807921 2.92103059 -0.8204812
| 33> H   -0.04303046 -2.82978786 0.86646131
| 34> H   -2.36472121 0.40637534 2.35888873
| 35> H   1.95656984 -0.75320378 -1.93986957
| 36> H   -1.68591647 -1.1098648 -1.30461989
| 37> *
| 38>
| 39>                          ****END OF INPUT****

CARTESIAN COORDINATES (ANGSTROEM)
---------------------------------
  O      2.600879    1.155478   -0.518808
  O     -0.588011    0.871584   -2.281684
  O      0.642695   -2.825073   -1.508136
  O     -2.533560   -1.632817    0.976701
  N      0.597980   -2.091247    0.647562
  N     -1.998837    0.534672    1.428506
  N      1.703470   -0.873445   -0.966934
  N     -1.625114   -0.334020   -0.664306
  C      1.417443    0.078019    1.227384
  C     -0.829066    1.887953   -0.162133
  C      0.780846   -1.061851    1.542720
  C     -1.383730    1.705067    1.077241
  C      1.670494    1.186100    2.194872
  C     -0.132355    3.135861   -0.564411
  C      1.965013    0.201841   -0.123929
  C     -0.984484    0.820881   -1.130554
  C      0.958661   -1.997529   -0.679167
  C     -2.093767   -0.564248    0.603818
  H      0.380701   -1.232101    2.524889
  H     -1.351133    2.464335    1.828189
  H      1.371212    2.133199    1.773432
  H      1.136813    1.016498    3.125038
  H      2.733524    1.264725    2.413693
  H     -0.601679    3.566821   -1.449114
  H     -0.163383    3.877073    0.233595
  H      0.908079    2.921031   -0.820481
  H     -0.043030   -2.829788    0.866461
  H     -2.364721    0.406375    2.358889
  H      1.956570   -0.753204   -1.939870
  H     -1.685916   -1.109865   -1.304620

 Total Charge           Charge          ....    0
 Multiplicity           Mult            ....    3
 Number of Electrons    NEL             ....  132
 Basis Dimension        Dim             ....  882

ORBITAL ENERGIES
----------------
                 SPIN UP ORBITALS
  NO   OCC          E(Eh)            E(eV)
   0   1.0000     -19.339074      -526.2430
   1   1.0000     -19.322455      -525.7907
   2   1.0000     -19.320048      -525.7252
   3   1.0000     -19.318775      -525.6906
   4   1.0000     -14.597608      -397.2211
   5   1.0000     -14.575715      -396.6254
   6   1.0000     -14.563652      -396.2971
   7   1.0000     -14.557206      -396.1217
   8   1.0000     -10.517063      -286.1838
   9   1.0000     -10.506094      -285.8854
  10   1.0000     -10.475543      -285.0540
  11   1.0000     -10.460786      -284.6525
  12   1.0000     -10.430586      -283.8307
  13   1.0000     -10.411085      -283.3000
  14   1.0000     -10.403570      -283.0955
  15   1.0000     -10.379419      -282.4383
  16   1.0000     -10.362601      -281.9807
  17   1.0000     -10.360092      -281.9124
  18   1.0000      -1.232473       -33.5373
  19   1.0000      -1.218277       -33.1510
  20   1.0000      -1.191249       -32.4155
  21   1.0000      -1.189149       -32.3584
  22   1.0000      -1.130510       -30.7627
  23   1.0000      -1.116306       -30.3762
  24   1.0000      -1.067185       -29.0396
  25   1.0000      -1.063721       -28.9453
  26   1.0000      -0.974739       -26.5240
  27   1.0000      -0.955850       -26.0100
  28   1.0000      -0.857096       -23.3228
  29   1.0000      -0.849028       -23.1032
  30   1.0000      -0.816361       -22.2143
  31   1.0000      -0.807763       -21.9803
  32   1.0000      -0.794253       -21.6127
  33   1.0000      -0.788226       -21.4487
  34   1.0000      -0.702663       -19.1204
  35   1.0000      -0.697021       -18.9669
  36   1.0000      -0.691486       -18.8163
  37   1.0000      -0.688340       -18.7307
  38   1.0000      -0.644864       -17.5476
  39   1.0000      -0.638050       -17.3622
  40   1.0000      -0.635270       -17.2866
  41   1.0000      -0.599844       -16.3226
  42   1.0000      -0.599127       -16.3031
  43   1.0000      -0.592558       -16.1243
  44   1.0000      -0.576698       -15.6927
  45   1.0000      -0.574555       -15.6344
  46   1.0000      -0.559698       -15.2302
  47   1.0000      -0.551231       -14.9998
  48   1.0000      -0.550622       -14.9832
  49   1.0000      -0.549064       -14.9408
  50   1.0000      -0.531353       -14.4589
  51   1.0000      -0.525233       -14.2923
  52   1.0000      -0.520233       -14.1563
  53   1.0000      -0.516972       -14.0675
  54   1.0000      -0.506031       -13.7698
  55   1.0000      -0.504321       -13.7233
  56   1.0000      -0.497182       -13.5290
  57   1.0000      -0.472418       -12.8552
  58   1.0000      -0.427153       -11.6234
  59   1.0000      -0.412512       -11.2250
  60   1.0000      -0.410747       -11.1770
  61   1.0000      -0.395952       -10.7744
  62   1.0000      -0.389901       -10.6097
  63   1.0000      -0.388311       -10.5665
  64   1.0000      -0.382756       -10.4153
  65   1.0000      -0.344234        -9.3671
  66   1.0000      -0.217898        -5.9293
  67   0.0000       0.011668         0.3175
  68   0.0000       0.021594         0.5876
  69   0.0000       0.033688         0.9167
  70   0.0000       0.039309         1.0697
  71   0.0000       0.040885         1.1125

                 SPIN DOWN ORBITALS
  NO   OCC          E(Eh)            E(eV)
   0   1.0000     -19.337280      -526.1941
   1   1.0000     -19.320046      -525.7252
   2   1.0000     -19.318741      -525.6897
   3   1.0000     -19.315947      -525.6136
   4   1.0000     -14.593226      -397.1019
   5   1.0000     -14.575586      -396.6219
   6   1.0000     -14.563662      -396.2974
   7   1.0000     -14.556255      -396.0958
   8   1.0000     -10.517333      -286.1912
   9   1.0000     -10.506100      -285.8855
  10   1.0000     -10.475532      -285.0537
  11   1.0000     -10.460530      -284.6455
  12   1.0000     -10.430354      -283.8244
  13   1.0000     -10.401682      -283.0442
  14   1.0000     -10.392916      -282.8056
  15   1.0000     -10.379472      -282.4398
  16   1.0000     -10.362999      -281.9915
  17   1.0000     -10.359983      -281.9095
  18   1.0000      -1.228492       -33.4290
  19   1.0000      -1.218115       -33.1466
  20   1.0000      -1.189595       -32.3705
  21   1.0000      -1.181233       -32.1430
  22   1.0000      -1.120288       -30.4846
  23   1.0000      -1.116043       -30.3691
  24   1.0000      -1.063746       -28.9460
  25   1.0000      -1.061679       -28.8898
  26   1.0000      -0.957354       -26.0509
  27   1.0000      -0.948969       -25.8228
  28   1.0000      -0.848841       -23.0981
  29   1.0000      -0.845094       -22.9962
  30   1.0000      -0.808551       -22.0018
  31   1.0000      -0.804857       -21.9013
  32   1.0000      -0.788387       -21.4531
  33   1.0000      -0.787297       -21.4235
  34   1.0000      -0.691771       -18.8240
  35   1.0000      -0.691557       -18.8182
  36   1.0000      -0.688453       -18.7338
  37   1.0000      -0.687668       -18.7124
  38   1.0000      -0.637197       -17.3390
  39   1.0000      -0.633718       -17.2443
  40   1.0000      -0.629371       -17.1260
  41   1.0000      -0.593964       -16.1626
  42   1.0000      -0.591273       -16.0894
  43   1.0000      -0.589364       -16.0374
  44   1.0000      -0.568356       -15.4657
  45   1.0000      -0.562957       -15.3188
  46   1.0000      -0.558712       -15.2033
  47   1.0000      -0.549650       -14.9567
  48   1.0000      -0.543944       -14.8015
  49   1.0000      -0.536793       -14.6069
  50   1.0000      -0.522578       -14.2201
  51   1.0000      -0.520240       -14.1565
  52   1.0000      -0.515862       -14.0373
  53   1.0000      -0.505680       -13.7603
  54   1.0000      -0.504354       -13.7242
  55   1.0000      -0.499402       -13.5894
  56   1.0000      -0.471297       -12.8246
  57   1.0000      -0.455432       -12.3929
  58   1.0000      -0.423075       -11.5124
  59   1.0000      -0.411403       -11.1948
  60   1.0000      -0.396477       -10.7887
  61   1.0000      -0.386352       -10.5132
  62   1.0000      -0.383362       -10.4318
  63   1.0000      -0.381080       -10.3697
  64   1.0000      -0.343224        -9.3396
  65   0.0000      -0.105223        -2.8633
  66   0.0000       0.011300         0.3075
  67   0.0000       0.023730         0.6457
  68   0.0000       0.031588         0.8596
  69   0.0000       0.037263         1.0140

----------------------------------------------------------------------------------------------------
          SPIN FLIP ABSORPTION SPECTRUM VIA TRANSITION ELECTRIC DIPOLE MOMENTS
----------------------------------------------------------------------------------------------------
     Transition      Energy     Energy  Wavelength fosc(D2)      D2        DX        DY        DZ
                      (eV)      (cm-1)    (nm)                 (au**2)    (au)      (au)      (au)
----------------------------------------------------------------------------------------------------
  1-3A  ->  2-3A    3.965188   31981.4   312.7   0.001120466   0.01153  -0.02909   0.04726   0.09195

Dispersion correction             ... done (  0.1 sec)

MULLIKEN ATOMIC CHARGES AND SPIN DENSITIES
------------------------------------------
   0 O :   -0.678379   -0.001196
   1 O :   -0.685358    0.037601
   2 O :   -0.650897   -0.000163
   3 O :   -0.665287    0.006520
   4 N :   -0.054706   -0.001197
   5 N :    0.024099    0.052712
   6 N :    0.040640    0.000218
   7 N :    0.041898    0.005165
   8 C :    0.874526   -0.017298
   9 C :    0.948296    0.552344
  10 C :    0.073990    0.026469
  11 C :   -0.168791   -0.363051
  12 C :   -1.492529   -0.003500
  13 C :   -1.453490   -0.042702
  14 C :    0.257190   -0.015068
  15 C :    0.314064   -0.333974
  16 C :    0.375258    0.002179
  17 C :    0.453511    0.010036
  18 H :    0.181923   -0.000007
  19 H :    0.207007    0.041061
  20 H :    0.242736    0.005009
  21 H :    0.333497    0.001405
  22 H :    0.377806   -0.001539
  23 H :    0.380721    0.000961
  24 H :    0.328524    0.012828
  25 H :    0.238063    0.022755
  26 H :    0.058654   -0.000252
  27 H :    0.031750    0.000294
  28 H :    0.039528    0.000145
  29 H :    0.025755    0.002246
Sum of atomic charges       :   -0.0000000

LOEWDIN ATOMIC CHARGES AND SPIN DENSITIES
-----------------------------------------
   0 O :    0.090566    0.000544
   1 O :    0.084910    0.029789
   2 O :    0.083807   -0.000132
   3 O :    0.077813    0.005365
   4 N :    0.279951   -0.000369
   5 N :    0.288280    0.022093
   6 N :    0.343088    0.000267
   7 N :    0.347091   -0.000749
   8 C :   -0.140269   -0.000691
   9 C :   -0.136407   -0.034316
  10 C :    0.045891   -0.000818
  11 C :    0.067014   -0.026564
  12 C :    0.179074   -0.000942
  13 C :    0.174698   -0.003300
  14 C :   -0.400952    0.000212
  15 C :   -0.407768    0.009393
  16 C :   -0.481007   -0.000077
  17 C :   -0.486628   -0.000084
  18 H :    0.035595   -0.000087
  19 H :    0.028499   -0.001482
  20 H :   -0.022788   -0.000275
  21 H :   -0.005245    0.000015
  22 H :    0.005021   -0.000081
  23 H :    0.004724   -0.000132
  24 H :   -0.003236    0.000287
  25 H :   -0.010445   -0.000184
  26 H :   -0.026082   -0.000022
  27 H :   -0.010202    0.002144
  28 H :    0.002957    0.000103
  29 H :   -0.007949    0.000095

  Mayer bond orders larger than 0.100000
B(  0-O , 14-C ) :   1.4521 B(  1-O , 15-C ) :   1.3876 B(  2-O , 16-C ) :   1.5638
B(  3-O , 17-C ) :   1.5382 B(  4-N , 10-C ) :   0.8300 B(  4-N , 16-C ) :   1.0092
B(  4-N , 26-H ) :   1.1160 B(  5-N , 11-C ) :   0.9740 B(  5-N , 17-C ) :   1.0153
B(  5-N , 27-H ) :   1.1246 B(  6-N , 14-C ) :   1.0337 B(  6-N , 16-C ) :   0.9172
B(  6-N , 28-H ) :   1.0958 B(  7-N , 15-C ) :   0.9417 B(  7-N , 17-C ) :   0.9556
B(  7-N , 29-H ) :   1.1262 B(  8-C , 10-C ) :   1.0767 B(  8-C , 12-C ) :   0.3262
B(  8-C , 14-C ) :   0.7051 B(  9-C , 11-C ) :   1.0874 B(  9-C , 13-C ) :   0.2999
B(  9-C , 15-C ) :   0.6686 B(  9-C , 17-C ) :   0.1021 B(  9-C , 24-H ) :  -0.1181
B( 10-C , 12-C ) :  -0.1604 B( 10-C , 18-H ) :   1.1238 B( 11-C , 13-C ) :  -0.1795
B( 11-C , 15-C ) :   0.1396 B( 11-C , 19-H ) :   1.0830 B( 12-C , 20-H ) :   1.0069
B( 12-C , 21-H ) :   1.0222 B( 12-C , 22-H ) :   0.8885 B( 13-C , 23-H ) :   0.8754
B( 13-C , 24-H ) :   1.0496 B( 13-C , 25-H ) :   0.9659

Dispersion correction           -0.060241387
FINAL SINGLE POINT ENERGY      -908.925116550231

DIPOLE MOMENT
-------------

Method             : TDA/CIS
Type of density    : Electron Density
Level              : Relaxed density
State              :   1
Multiplicity       :   3
Irrep              :   0
Energy             :     0.0000000000000000 Eh
Relativity type    :
Basis              : AO
                                X                 Y                 Z
Electronic contribution:     -2.724548598     -10.080005480      -5.795824781
Nuclear contribution   :      2.033378679      10.995049922       8.497817235
                        -----------------------------------------
Total Dipole Moment    :     -0.691169919       0.915044442       2.701992455
                        -----------------------------------------
Magnitude (a.u.)       :      2.935265816
Magnitude (Debye)      :      7.460852782

Rotational constants in cm-1:             0.017292             0.016540             0.013537
Rotational constants in MHz :           518.390017           495.855263           405.826302

                             ****ORCA TERMINATED NORMALLY****
TOTAL RUN TIME: 0 days 0 hours 5 minutes 21 seconds 238 msec
