                         Program Version 6.0.0  -   RELEASE  -
|  1> ! Opt wB97M-D3BJ def2-TZVPPD
|  2> %pal nprocs 8 end %pal nprocs 64 end
|  3> %geom
|  4> Constraints
|  5>     {A 2 1 0 62.72727272727273 C }
|  6> end
|  7> MaxIter 500
|  8> end
|  9> *xyz 0 1
| 10> O   -0.0007 0.8141 0.0
| 11> C   0.7509 -0.4065 0.0
| 12> C   -0.7502 -0.4076 0.0
| 13> H   1.2625 -0.6786 0.9136
| 14> H   1.2625 -0.6787 -0.9136
| 15> H   -1.2614 -0.6806 -0.9136
| 16> H   -1.2614 -0.6805 0.9136
| 17> *
| 18>
| 19>                          ****END OF INPUT****
 Total Charge           Charge          ....    0
 Multiplicity           Mult            ....    1
 Number of Electrons    NEL             ....   24
Dispersion correction           -0.005226537
FINAL SINGLE POINT ENERGY      -153.885414045904
Dispersion correction             ... done (  0.2 sec)
Dispersion correction           -0.005229717
FINAL SINGLE POINT ENERGY      -153.887526663957
Dispersion correction             ... done (  0.1 sec)
Dispersion correction           -0.005232915
FINAL SINGLE POINT ENERGY      -153.887813905014
Dispersion correction             ... done (  0.2 sec)
Dispersion correction           -0.005232573
FINAL SINGLE POINT ENERGY      -153.887830320567
Dispersion correction             ... done (  0.2 sec)
Dispersion correction           -0.005232374
FINAL SINGLE POINT ENERGY      -153.887840231234
Dispersion correction             ... done (  0.2 sec)
                    ***********************HURRAY********************

CARTESIAN COORDINATES (ANGSTROEM)
---------------------------------
  O      0.030864    0.801485   -0.000056
  C      0.714170   -0.420175    0.000156
  C     -0.728277   -0.469202   -0.000178
  H      1.253363   -0.654432    0.912046
  H      1.253029   -0.654944   -0.911851
  H     -1.260685   -0.660432   -0.920461
  H     -1.260265   -0.660699    0.920345

 Multiplicity           Mult            ....    1
 Number of Electrons    NEL             ....   24
 Basis Dimension        Dim             ....  182

ORBITAL ENERGIES
----------------

  NO   OCC          E(Eh)            E(eV)
   0   2.0000     -19.351157      -526.5718
   1   2.0000     -10.400511      -283.0123
   2   2.0000     -10.398120      -282.9472
   3   2.0000      -1.202164       -32.7126
   4   2.0000      -0.810647       -22.0588
   5   2.0000      -0.753777       -20.5113
   6   2.0000      -0.631109       -17.1734
   7   2.0000      -0.594774       -16.1846
   8   2.0000      -0.499855       -13.6018
   9   2.0000      -0.489954       -13.3323
  10   2.0000      -0.427269       -11.6266
  11   2.0000      -0.384716       -10.4686
  12   0.0000       0.042376         1.1531
  13   0.0000       0.058688         1.5970
  14   0.0000       0.074389         2.0242
  15   0.0000       0.077817         2.1175
  16   0.0000       0.114339         3.1113

MULLIKEN ATOMIC CHARGES
-----------------------
   0 O :   -0.385885
   1 C :   -0.150003
   2 C :   -0.191626
   3 H :    0.183247
   4 H :    0.183172
   5 H :    0.180625
   6 H :    0.180470
Sum of atomic charges:   -0.0000000

LOEWDIN ATOMIC CHARGES
----------------------
   0 O :   -0.031449
   1 C :   -0.062823
   2 C :    0.046387
   3 H :    0.015675
   4 H :    0.015670
   5 H :    0.008272
   6 H :    0.008269

  Mayer bond orders larger than 0.100000
B(  0-O ,  1-C ) :   0.8026 B(  0-O ,  2-C ) :   0.8467 B(  1-C ,  2-C ) :   0.8209
B(  1-C ,  3-H ) :   1.0248 B(  1-C ,  4-H ) :   1.0250 B(  2-C ,  5-H ) :   1.0080
B(  2-C ,  6-H ) :   1.0082

Dispersion correction           -0.005232507
FINAL SINGLE POINT ENERGY      -153.887840740526

DIPOLE MOMENT
-------------

Method             : SCF
Type of density    : Electron Density
Multiplicity       :   1
Irrep              :   0
Energy             :  -153.8826082331883072 Eh
Relativity type    :
Basis              : AO
                                X                 Y                 Z
Electronic contribution:      0.004238917       1.621099415      -0.000130887
Nuclear contribution   :     -0.039685425      -2.412331903       0.000164347
                        -----------------------------------------
Total Dipole Moment    :     -0.035446508      -0.791232487       0.000033459
                        -----------------------------------------
Magnitude (a.u.)       :      0.792026076
Magnitude (Debye)      :      2.013170296

Rotational constants in cm-1:             0.850725             0.745518             0.472749
Rotational constants in MHz :         25504.079492         22350.059272         14172.666678

                             ****ORCA TERMINATED NORMALLY****
TOTAL RUN TIME: 0 days 0 hours 1 minutes 20 seconds 919 msec
