                         Program Version 6.0.0  -   RELEASE  -
|  1> ! Engrad def2-TZVPPD wB97M-D3BJ
|  2> %pal nprocs 8 end%pal nprocs 32 end
|  3> %tddft Nroots 2 Iroot 2
|  4> sf true
|  5> end
|  6> *xyz 0 3
|  7> O   -0.1651358 0.978529 -0.23925181
|  8> C   0.77646556 -0.84654497 0.03604854
|  9> C   -0.60322546 -0.28235779 0.23057917
| 10> H   1.27813864 -1.30222428 0.83571385
| 11> H   0.86139363 -1.05271725 -1.00072216
| 12> H   -1.42834463 -0.50119329 -0.50131525
| 13> H   -1.04096598 -0.33221436 1.28996614
| 14> *
| 15>
| 16>                          ****END OF INPUT****

CARTESIAN COORDINATES (ANGSTROEM)
---------------------------------
  O     -0.165136    0.978529   -0.239252
  C      0.776466   -0.846545    0.036049
  C     -0.603225   -0.282358    0.230579
  H      1.278139   -1.302224    0.835714
  H      0.861394   -1.052717   -1.000722
  H     -1.428345   -0.501193   -0.501315
  H     -1.040966   -0.332214    1.289966

 Total Charge           Charge          ....    0
 Multiplicity           Mult            ....    3
 Number of Electrons    NEL             ....   24
 Basis Dimension        Dim             ....  182

ORBITAL ENERGIES
----------------
                 SPIN UP ORBITALS
  NO   OCC          E(Eh)            E(eV)
   0   1.0000     -19.393612      -527.7270
   1   1.0000     -10.419447      -283.5276
   2   1.0000     -10.358759      -281.8762
   3   1.0000      -1.168163       -31.7873
   4   1.0000      -0.861489       -23.4423
   5   1.0000      -0.737188       -20.0599
   6   1.0000      -0.619990       -16.8708
   7   1.0000      -0.594613       -16.1802
   8   1.0000      -0.535435       -14.5699
   9   1.0000      -0.504787       -13.7359
  10   1.0000      -0.446925       -12.1614
  11   1.0000      -0.418733       -11.3943
  12   1.0000      -0.308423        -8.3926
  13   0.0000       0.040381         1.0988
  14   0.0000       0.061675         1.6783
  15   0.0000       0.075749         2.0612
  16   0.0000       0.086456         2.3526
  17   0.0000       0.114963         3.1283

                 SPIN DOWN ORBITALS
  NO   OCC          E(Eh)            E(eV)
   0   1.0000     -19.366626      -526.9927
   1   1.0000     -10.420784      -283.5639
   2   1.0000     -10.344971      -281.5010
   3   1.0000      -1.107983       -30.1498
   4   1.0000      -0.827260       -22.5109
   5   1.0000      -0.712818       -19.3968
   6   1.0000      -0.596320       -16.2267
   7   1.0000      -0.549443       -14.9511
   8   1.0000      -0.505791       -13.7633
   9   1.0000      -0.484495       -13.1838
  10   1.0000      -0.379443       -10.3252
  11   0.0000      -0.063294        -1.7223
  12   0.0000       0.020275         0.5517
  13   0.0000       0.039149         1.0653
  14   0.0000       0.061815         1.6821
  15   0.0000       0.075494         2.0543

----------------------------------------------------------------------------------------------------
          SPIN FLIP ABSORPTION SPECTRUM VIA TRANSITION ELECTRIC DIPOLE MOMENTS
----------------------------------------------------------------------------------------------------
     Transition      Energy     Energy  Wavelength fosc(D2)      D2        DX        DY        DZ
                      (eV)      (cm-1)    (nm)                 (au**2)    (au)      (au)      (au)
----------------------------------------------------------------------------------------------------
  1-3A  ->  2-3A    1.553120   12526.8   798.3   0.000576207   0.01514   0.05252  -0.03427   0.10588

Dispersion correction             ... done (  0.1 sec)

MULLIKEN ATOMIC CHARGES AND SPIN DENSITIES
------------------------------------------
   0 O :   -0.299653    0.293727
   1 C :   -0.332142   -0.185728
   2 C :   -0.127360   -0.055999
   3 H :    0.175206   -0.059493
   4 H :    0.158467   -0.062642
   5 H :    0.190289    0.054946
   6 H :    0.235193    0.015189
Sum of atomic charges       :    0.0000000

LOEWDIN ATOMIC CHARGES AND SPIN DENSITIES
-----------------------------------------
   0 O :    0.008249    0.272088
   1 C :    0.256244   -0.252231
   2 C :   -0.184705    0.006804
   3 H :   -0.097773   -0.041756
   4 H :   -0.079632   -0.032835
   5 H :    0.037646    0.033818
   6 H :    0.059972    0.014113

  Mayer bond orders larger than 0.100000
B(  0-O ,  2-C ) :   0.8985 B(  1-C ,  2-C ) :   0.8735 B(  1-C ,  3-H ) :   1.0032
B(  1-C ,  4-H ) :   1.0146 B(  2-C ,  5-H ) :   0.9876 B(  2-C ,  6-H ) :   0.9077

Dispersion correction           -0.005599321
FINAL SINGLE POINT ENERGY      -153.713670069411

DIPOLE MOMENT
-------------

Method             : TDA/CIS
Type of density    : Electron Density
Level              : Relaxed density
State              :   2
Multiplicity       :   3
Irrep              :   0
Energy             :     0.0000000000000000 Eh
Relativity type    :
Basis              : AO
                                X                 Y                 Z
Electronic contribution:     -0.191746459       2.249755060      -0.321969104
Nuclear contribution   :     -0.235406963      -2.881181165       0.581265536
                        -----------------------------------------
Total Dipole Moment    :     -0.427153422      -0.631426105       0.259296432
                        -----------------------------------------
Magnitude (a.u.)       :      0.805228918
Magnitude (Debye)      :      2.046729254

Rotational constants in cm-1:             1.036969             0.446327             0.353833
Rotational constants in MHz :         31087.540887         13380.539960         10607.636853

                             ****ORCA TERMINATED NORMALLY****
TOTAL RUN TIME: 0 days 0 hours 0 minutes 18 seconds 46 msec
