                         Program Version 6.0.0  -   RELEASE  -
|  1> ! Engrad def2-TZVPPD wB97M-D3BJ
|  2> %pal nprocs 8 end%pal nprocs 64 end
|  3> %tddft
|  4>  Iroot 2 Nroots 3
|  5> sf true
|  6> end
|  7> *xyz 0 3
|  8> O   3.25537963 0.89979732 -0.08799404
|  9> O   -0.8226691 0.64937359 -2.69922431
| 10> O   0.64495487 -2.75132507 -1.04804927
| 11> O   -3.48558614 -1.40881505 0.54302208
| 12> N   0.22810204 -1.34136508 0.78881153
| 13> N   -2.12680655 0.31770832 1.07756642
| 14> N   1.90953101 -0.8097401 -0.71330216
| 15> N   -2.08974304 -0.60073088 -1.06112403
| 16> C   1.58220025 0.48941468 1.3293776
| 17> C   -0.54905634 1.2114207 -0.50204411
| 18> C   0.27625743 -0.06280568 1.44688516
| 19> C   -0.82736317 0.96121556 0.90031245
| 20> C   2.13588941 1.42474165 2.28924561
| 21> C   0.43330516 2.21825276 -0.85474949
| 22> C   2.26946817 0.23241695 0.14071408
| 23> C   -1.17299554 0.37187944 -1.49825743
| 24> C   0.87604562 -1.69663536 -0.38280008
| 25> C   -2.64484057 -0.61965208 0.2094369
| 26> H   0.02788876 -0.05414101 2.53683041
| 27> H   -0.83350295 1.77727611 1.56620424
| 28> H   1.35677914 2.09304716 2.72681864
| 29> H   2.60533441 0.86646868 3.18737444
| 30> H   3.01758271 2.03238508 1.9652422
| 31> H   -0.06987642 3.06076826 -1.40710975
| 32> H   0.76248911 2.7078195 0.1035736
| 33> H   1.31864611 1.91036944 -1.3334923
| 34> H   -0.4751019 -2.03886497 0.982139
| 35> H   -2.52900264 0.33479883 2.02006486
| 36> H   2.44497465 -0.97872298 -1.54666025
| 37> H   -2.70327551 -1.06034647 -1.67882916
| 38> *
| 39>
| 40>                          ****END OF INPUT****

CARTESIAN COORDINATES (ANGSTROEM)
---------------------------------
  O      3.255380    0.899797   -0.087994
  O     -0.822669    0.649374   -2.699224
  O      0.644955   -2.751325   -1.048049
  O     -3.485586   -1.408815    0.543022
  N      0.228102   -1.341365    0.788812
  N     -2.126807    0.317708    1.077566
  N      1.909531   -0.809740   -0.713302
  N     -2.089743   -0.600731   -1.061124
  C      1.582200    0.489415    1.329378
  C     -0.549056    1.211421   -0.502044
  C      0.276257   -0.062806    1.446885
  C     -0.827363    0.961216    0.900312
  C      2.135889    1.424742    2.289246
  C      0.433305    2.218253   -0.854749
  C      2.269468    0.232417    0.140714
  C     -1.172996    0.371879   -1.498257
  C      0.876046   -1.696635   -0.382800
  C     -2.644841   -0.619652    0.209437
  H      0.027889   -0.054141    2.536830
  H     -0.833503    1.777276    1.566204
  H      1.356779    2.093047    2.726819
  H      2.605334    0.866469    3.187374
  H      3.017583    2.032385    1.965242
  H     -0.069876    3.060768   -1.407110
  H      0.762489    2.707819    0.103574
  H      1.318646    1.910369   -1.333492
  H     -0.475102   -2.038865    0.982139
  H     -2.529003    0.334799    2.020065
  H      2.444975   -0.978723   -1.546660
  H     -2.703276   -1.060346   -1.678829

 Total Charge           Charge          ....    0
 Multiplicity           Mult            ....    3
 Number of Electrons    NEL             ....  132
 Basis Dimension        Dim             ....  882

ORBITAL ENERGIES
----------------
                 SPIN UP ORBITALS
  NO   OCC          E(Eh)            E(eV)
   0   1.0000     -19.336025      -526.1600
   1   1.0000     -19.330744      -526.0163
   2   1.0000     -19.326439      -525.8991
   3   1.0000     -19.321071      -525.7531
   4   1.0000     -14.569155      -396.4469
   5   1.0000     -14.567195      -396.3935
   6   1.0000     -14.567170      -396.3928
   7   1.0000     -14.562500      -396.2658
   8   1.0000     -10.514867      -286.1241
   9   1.0000     -10.509010      -285.9647
  10   1.0000     -10.487258      -285.3728
  11   1.0000     -10.473857      -285.0081
  12   1.0000     -10.446461      -284.2627
  13   1.0000     -10.440532      -284.1013
  14   1.0000     -10.413201      -283.3576
  15   1.0000     -10.409602      -283.2597
  16   1.0000     -10.387235      -282.6510
  17   1.0000     -10.368564      -282.1430
  18   1.0000      -1.225500       -33.3476
  19   1.0000      -1.217674       -33.1346
  20   1.0000      -1.183000       -32.1911
  21   1.0000      -1.171002       -31.8646
  22   1.0000      -1.119387       -30.4601
  23   1.0000      -1.097418       -29.8623
  24   1.0000      -1.069975       -29.1155
  25   1.0000      -1.057315       -28.7710
  26   1.0000      -0.996158       -27.1068
  27   1.0000      -0.964229       -26.2380
  28   1.0000      -0.889842       -24.2138
  29   1.0000      -0.849347       -23.1119
  30   1.0000      -0.832761       -22.6606
  31   1.0000      -0.809958       -22.0401
  32   1.0000      -0.782871       -21.3030
  33   1.0000      -0.777682       -21.1618
  34   1.0000      -0.706026       -19.2119
  35   1.0000      -0.703478       -19.1426
  36   1.0000      -0.698403       -19.0045
  37   1.0000      -0.684671       -18.6308
  38   1.0000      -0.662276       -18.0214
  39   1.0000      -0.642999       -17.4969
  40   1.0000      -0.627482       -17.0747
  41   1.0000      -0.606276       -16.4976
  42   1.0000      -0.601841       -16.3769
  43   1.0000      -0.588499       -16.0139
  44   1.0000      -0.574915       -15.6442
  45   1.0000      -0.570905       -15.5351
  46   1.0000      -0.565584       -15.3903
  47   1.0000      -0.563879       -15.3439
  48   1.0000      -0.559330       -15.2201
  49   1.0000      -0.551970       -15.0199
  50   1.0000      -0.547786       -14.9060
  51   1.0000      -0.533888       -14.5278
  52   1.0000      -0.529269       -14.4021
  53   1.0000      -0.526928       -14.3384
  54   1.0000      -0.508428       -13.8350
  55   1.0000      -0.497258       -13.5311
  56   1.0000      -0.487337       -13.2611
  57   1.0000      -0.423544       -11.5252
  58   1.0000      -0.418351       -11.3839
  59   1.0000      -0.413048       -11.2396
  60   1.0000      -0.405495       -11.0341
  61   1.0000      -0.402425       -10.9505
  62   1.0000      -0.392835       -10.6896
  63   1.0000      -0.388497       -10.5716
  64   1.0000      -0.381334       -10.3766
  65   1.0000      -0.346797        -9.4368
  66   1.0000      -0.319114        -8.6835
  67   0.0000       0.005584         0.1519
  68   0.0000       0.030200         0.8218
  69   0.0000       0.031486         0.8568
  70   0.0000       0.036537         0.9942
  71   0.0000       0.053491         1.4556

                 SPIN DOWN ORBITALS
  NO   OCC          E(Eh)            E(eV)
   0   1.0000     -19.329958      -525.9949
   1   1.0000     -19.326328      -525.8961
   2   1.0000     -19.325335      -525.8691
   3   1.0000     -19.320982      -525.7506
   4   1.0000     -14.568773      -396.4365
   5   1.0000     -14.567004      -396.3883
   6   1.0000     -14.566629      -396.3781
   7   1.0000     -14.562201      -396.2576
   8   1.0000     -10.514914      -286.1253
   9   1.0000     -10.509050      -285.9658
  10   1.0000     -10.488527      -285.4073
  11   1.0000     -10.474824      -285.0344
  12   1.0000     -10.445754      -284.2434
  13   1.0000     -10.439805      -284.0815
  14   1.0000     -10.402577      -283.0685
  15   1.0000     -10.398991      -282.9709
  16   1.0000     -10.387892      -282.6689
  17   1.0000     -10.369070      -282.1567
  18   1.0000      -1.224879       -33.3306
  19   1.0000      -1.211548       -32.9679
  20   1.0000      -1.180375       -32.1196
  21   1.0000      -1.163203       -31.6524
  22   1.0000      -1.115821       -30.3630
  23   1.0000      -1.094820       -29.7916
  24   1.0000      -1.067771       -29.0555
  25   1.0000      -1.055644       -28.7255
  26   1.0000      -0.983719       -26.7684
  27   1.0000      -0.947589       -25.7852
  28   1.0000      -0.883609       -24.0442
  29   1.0000      -0.844553       -22.9815
  30   1.0000      -0.824719       -22.4418
  31   1.0000      -0.804818       -21.9002
  32   1.0000      -0.781281       -21.2597
  33   1.0000      -0.775951       -21.1147
  34   1.0000      -0.700393       -19.0587
  35   1.0000      -0.697836       -18.9891
  36   1.0000      -0.692243       -18.8369
  37   1.0000      -0.678931       -18.4747
  38   1.0000      -0.647258       -17.6128
  39   1.0000      -0.638936       -17.3863
  40   1.0000      -0.624894       -17.0042
  41   1.0000      -0.600414       -16.3381
  42   1.0000      -0.593092       -16.1389
  43   1.0000      -0.582804       -15.8589
  44   1.0000      -0.568325       -15.4649
  45   1.0000      -0.566429       -15.4133
  46   1.0000      -0.559443       -15.2232
  47   1.0000      -0.553159       -15.0522
  48   1.0000      -0.552102       -15.0235
  49   1.0000      -0.544039       -14.8040
  50   1.0000      -0.538000       -14.6397
  51   1.0000      -0.527866       -14.3640
  52   1.0000      -0.523187       -14.2366
  53   1.0000      -0.514190       -13.9918
  54   1.0000      -0.500604       -13.6221
  55   1.0000      -0.486683       -13.2433
  56   1.0000      -0.482587       -13.1318
  57   1.0000      -0.417512       -11.3611
  58   1.0000      -0.411987       -11.2107
  59   1.0000      -0.406263       -11.0550
  60   1.0000      -0.396229       -10.7819
  61   1.0000      -0.386295       -10.5116
  62   1.0000      -0.384902       -10.4737
  63   1.0000      -0.383651       -10.4397
  64   1.0000      -0.370958       -10.0943
  65   0.0000      -0.067810        -1.8452
  66   0.0000      -0.051694        -1.4067
  67   0.0000       0.005223         0.1421
  68   0.0000       0.030291         0.8243
  69   0.0000       0.031086         0.8459

----------------------------------------------------------------------------------------------------
          SPIN FLIP ABSORPTION SPECTRUM VIA TRANSITION ELECTRIC DIPOLE MOMENTS
----------------------------------------------------------------------------------------------------
     Transition      Energy     Energy  Wavelength fosc(D2)      D2        DX        DY        DZ
                      (eV)      (cm-1)    (nm)                 (au**2)    (au)      (au)      (au)
----------------------------------------------------------------------------------------------------
  1-3A  ->  2-3A    0.102574     827.3  12087.2   0.000044060   0.01753   0.11956   0.00500   0.05668
  1-3A  ->  3-3A    1.921784   15500.2   645.2   0.000940249   0.01997   0.00533  -0.06314   0.12632

Dispersion correction             ... done (  0.1 sec)

MULLIKEN ATOMIC CHARGES AND SPIN DENSITIES
------------------------------------------
   0 O :   -0.677050    0.016806
   1 O :   -0.684406   -0.005991
   2 O :   -0.699229    0.000010
   3 O :   -0.637682    0.000467
   4 N :   -0.220659   -0.004268
   5 N :   -0.261236   -0.003025
   6 N :    0.120124   -0.004152
   7 N :    0.187544   -0.002254
   8 C :    0.473364    0.283125
   9 C :    0.367740    0.237668
  10 C :    0.437512   -0.103376
  11 C :    0.449357   -0.145016
  12 C :   -1.424965   -0.006216
  13 C :   -1.400904   -0.044941
  14 C :    0.084380   -0.152670
  15 C :    0.054660   -0.094878
  16 C :    0.433614    0.007676
  17 C :    0.328873    0.007567
  18 H :    0.463301   -0.004198
  19 H :    0.479577   -0.005122
  20 H :    0.325262    0.004200
  21 H :    0.387341    0.010921
  22 H :    0.292427   -0.000972
  23 H :    0.354640    0.004231
  24 H :    0.324766   -0.000114
  25 H :    0.242677    0.003707
  26 H :    0.034348   -0.000329
  27 H :    0.085210    0.000862
  28 H :    0.033099   -0.000563
  29 H :    0.046316    0.000842
Sum of atomic charges       :    0.0000000

LOEWDIN ATOMIC CHARGES AND SPIN DENSITIES
-----------------------------------------
   0 O :    0.086818    0.014035
   1 O :    0.040056   -0.006283
   2 O :    0.038120   -0.000117
   3 O :    0.100111    0.000344
   4 N :    0.294916    0.000083
   5 N :    0.273481   -0.000296
   6 N :    0.352386   -0.004670
   7 N :    0.350757   -0.003715
   8 C :   -0.112665    0.033029
   9 C :   -0.054046   -0.016186
  10 C :   -0.124268   -0.001680
  11 C :   -0.094558   -0.002724
  12 C :    0.168198    0.005003
  13 C :    0.186305   -0.005508
  14 C :   -0.452921   -0.000646
  15 C :   -0.320706   -0.009225
  16 C :   -0.407515   -0.000368
  17 C :   -0.504713   -0.000279
  18 H :    0.080255   -0.001157
  19 H :    0.030635   -0.000366
  20 H :    0.014347    0.000898
  21 H :    0.056914    0.002889
  22 H :    0.020733    0.000396
  23 H :    0.051396   -0.002152
  24 H :    0.030191    0.000209
  25 H :   -0.025327   -0.000739
  26 H :   -0.025408    0.000068
  27 H :   -0.008762   -0.000063
  28 H :   -0.006531   -0.000439
  29 H :   -0.038200   -0.000341

  Mayer bond orders larger than 0.100000
B(  0-O ,  8-C ) :  -0.1231 B(  0-O , 14-C ) :   1.4399 B(  1-O , 15-C ) :   1.3590
B(  2-O , 16-C ) :   1.4847 B(  3-O , 17-C ) :   1.6243 B(  4-N ,  8-C ) :   0.2950
B(  4-N ,  9-C ) :   0.1723 B(  4-N , 10-C ) :   0.2146 B(  4-N , 16-C ) :   1.0181
B(  4-N , 26-H ) :   1.0815 B(  5-N ,  9-C ) :   0.2404 B(  5-N , 11-C ) :   0.1839
B(  5-N , 17-C ) :   1.1337 B(  5-N , 27-H ) :   1.0737 B(  6-N ,  8-C ) :  -0.1311
B(  6-N , 10-C ) :   0.1401 B(  6-N , 14-C ) :   1.0539 B(  6-N , 16-C ) :   0.9845
B(  6-N , 28-H ) :   1.1018 B(  7-N , 11-C ) :   0.1286 B(  7-N , 15-C ) :   1.0740
B(  7-N , 17-C ) :   0.9535 B(  7-N , 29-H ) :   1.0539 B(  8-C ,  9-C ) :   0.1496
B(  8-C , 10-C ) :   0.5173 B(  8-C , 11-C ) :   0.2063 B(  8-C , 12-C ) :   0.4448
B(  8-C , 14-C ) :   0.7031 B(  8-C , 18-H ) :  -0.1330 B(  8-C , 22-H ) :  -0.1062
B(  9-C , 10-C ) :   0.3496 B(  9-C , 11-C ) :   0.3911 B(  9-C , 13-C ) :   0.3031
B(  9-C , 15-C ) :   0.8493 B(  9-C , 19-H ) :  -0.1796 B(  9-C , 24-H ) :  -0.1623
B( 10-C , 11-C ) :   0.3673 B( 10-C , 14-C ) :  -0.1557 B( 10-C , 16-C ) :  -0.1055
B( 10-C , 18-H ) :   0.8575 B( 11-C , 13-C ) :  -0.2239 B( 11-C , 15-C ) :  -0.1286
B( 11-C , 17-C ) :  -0.1614 B( 11-C , 19-H ) :   0.9020 B( 12-C , 20-H ) :   0.8883
B( 12-C , 21-H ) :   0.8677 B( 12-C , 22-H ) :   1.0108 B( 13-C , 23-H ) :   0.8765
B( 13-C , 24-H ) :   1.0312 B( 13-C , 25-H ) :   0.9448

Dispersion correction           -0.061837459
FINAL SINGLE POINT ENERGY      -908.762256756502

DIPOLE MOMENT
-------------

Method             : TDA/CIS
Type of density    : Electron Density
Level              : Relaxed density
State              :   2
Multiplicity       :   3
Irrep              :   0
Energy             :     0.0000000000000000 Eh
Relativity type    :
Basis              : AO
                                X                 Y                 Z
Electronic contribution:     -4.695585755      -8.738728227      -6.248734695
Nuclear contribution   :      4.695972094      10.422243527       8.744599545
                        -----------------------------------------
Total Dipole Moment    :      0.000386339       1.683515300       2.495864850
                        -----------------------------------------
Magnitude (a.u.)       :      3.010575570
Magnitude (Debye)      :      7.652274963

Rotational constants in cm-1:             0.022362             0.013307             0.012757
Rotational constants in MHz :           670.392790           398.929636           382.452016

                             ****ORCA TERMINATED NORMALLY****
TOTAL RUN TIME: 0 days 0 hours 5 minutes 33 seconds 748 msec
