                         Program Version 6.0.0  -   RELEASE  -
|  1> ! Engrad def2-TZVPPD wB97M-D3BJ
|  2> %pal nprocs 8 end%pal nprocs 64 end
|  3> %tddft
|  4>  Iroot 2 Nroots 3
|  5> sf true
|  6> end
|  7> *xyz 0 3
|  8> O   3.61361267 -0.82885563 -0.36432138
|  9> O   -1.21687854 1.33528137 -2.65440389
| 10> O   -0.46698289 -2.85166835 -0.50970882
| 11> O   -3.44950805 -0.64676607 0.85936536
| 12> N   0.04326753 -1.35905231 1.08732333
| 13> N   -1.75341645 0.7771352 1.22921815
| 14> N   1.44177068 -1.58112735 -0.74551456
| 15> N   -2.16110269 0.09201347 -0.96437135
| 16> C   1.88443851 0.0438265 0.96999319
| 17> C   -0.33442929 1.57136327 -0.51749757
| 18> C   0.53222469 -0.08853144 1.39929395
| 19> C   -0.47279489 1.21195434 0.89354858
| 20> C   2.82159747 1.07987801 1.52463371
| 21> C   0.62725493 2.6102255 -1.11521801
| 22> C   2.40760114 -0.80753477 -0.12288999
| 23> C   -1.2309738 0.92669971 -1.51637495
| 24> C   0.23451553 -1.97670236 -0.10123538
| 25> C   -2.50031484 -0.0057849 0.42829348
| 26> H   0.54722906 0.02038805 2.50515163
| 27> H   -0.17923884 1.95587597 1.57728099
| 28> H   3.85575878 0.93684929 1.18808002
| 29> H   2.58407931 2.0582014 1.07192881
| 30> H   2.71582904 1.10502361 2.61894311
| 31> H   0.66015374 2.43558671 -2.21369061
| 32> H   0.13497583 3.60316393 -0.9198524
| 33> H   1.65232828 2.57726853 -0.67439188
| 34> H   -0.81746504 -1.39772022 1.5602624
| 35> H   -1.84659223 0.60245147 2.21725335
| 36> H   1.74741672 -2.22826411 -1.46683144
| 37> H   -2.58665161 -0.68532618 -1.42924263
| 38> *
| 39>
| 40>                          ****END OF INPUT****

CARTESIAN COORDINATES (ANGSTROEM)
---------------------------------
  O      3.613613   -0.828856   -0.364321
  O     -1.216879    1.335281   -2.654404
  O     -0.466983   -2.851668   -0.509709
  O     -3.449508   -0.646766    0.859365
  N      0.043268   -1.359052    1.087323
  N     -1.753416    0.777135    1.229218
  N      1.441771   -1.581127   -0.745515
  N     -2.161103    0.092013   -0.964371
  C      1.884439    0.043826    0.969993
  C     -0.334429    1.571363   -0.517498
  C      0.532225   -0.088531    1.399294
  C     -0.472795    1.211954    0.893549
  C      2.821597    1.079878    1.524634
  C      0.627255    2.610225   -1.115218
  C      2.407601   -0.807535   -0.122890
  C     -1.230974    0.926700   -1.516375
  C      0.234516   -1.976702   -0.101235
  C     -2.500315   -0.005785    0.428293
  H      0.547229    0.020388    2.505152
  H     -0.179239    1.955876    1.577281
  H      3.855759    0.936849    1.188080
  H      2.584079    2.058201    1.071929
  H      2.715829    1.105024    2.618943
  H      0.660154    2.435587   -2.213691
  H      0.134976    3.603164   -0.919852
  H      1.652328    2.577269   -0.674392
  H     -0.817465   -1.397720    1.560262
  H     -1.846592    0.602451    2.217253
  H      1.747417   -2.228264   -1.466831
  H     -2.586652   -0.685326   -1.429243

 Total Charge           Charge          ....    0
 Multiplicity           Mult            ....    3
 Number of Electrons    NEL             ....  132
 Basis Dimension        Dim             ....  882

ORBITAL ENERGIES
----------------
                 SPIN UP ORBITALS
  NO   OCC          E(Eh)            E(eV)
   0   1.0000     -19.335610      -526.1487
   1   1.0000     -19.334900      -526.1294
   2   1.0000     -19.332248      -526.0572
   3   1.0000     -19.331618      -526.0401
   4   1.0000     -14.572430      -396.5360
   5   1.0000     -14.569854      -396.4659
   6   1.0000     -14.568425      -396.4270
   7   1.0000     -14.565062      -396.3355
   8   1.0000     -10.517702      -286.2012
   9   1.0000     -10.515450      -286.1399
  10   1.0000     -10.484077      -285.2862
  11   1.0000     -10.484020      -285.2847
  12   1.0000     -10.443616      -284.1852
  13   1.0000     -10.440789      -284.1083
  14   1.0000     -10.416938      -283.4593
  15   1.0000     -10.409738      -283.2634
  16   1.0000     -10.378297      -282.4078
  17   1.0000     -10.374853      -282.3141
  18   1.0000      -1.233994       -33.5787
  19   1.0000      -1.224384       -33.3172
  20   1.0000      -1.202706       -32.7273
  21   1.0000      -1.194588       -32.5064
  22   1.0000      -1.140683       -31.0396
  23   1.0000      -1.117996       -30.4222
  24   1.0000      -1.076989       -29.3064
  25   1.0000      -1.069056       -29.0905
  26   1.0000      -0.976779       -26.5795
  27   1.0000      -0.948560       -25.8116
  28   1.0000      -0.880923       -23.9711
  29   1.0000      -0.846284       -23.0286
  30   1.0000      -0.824401       -22.4331
  31   1.0000      -0.811762       -22.0892
  32   1.0000      -0.795630       -21.6502
  33   1.0000      -0.789917       -21.4947
  34   1.0000      -0.705516       -19.1981
  35   1.0000      -0.697273       -18.9738
  36   1.0000      -0.689544       -18.7634
  37   1.0000      -0.680749       -18.5241
  38   1.0000      -0.662638       -18.0313
  39   1.0000      -0.653044       -17.7702
  40   1.0000      -0.628203       -17.0943
  41   1.0000      -0.604279       -16.4433
  42   1.0000      -0.599882       -16.3236
  43   1.0000      -0.589532       -16.0420
  44   1.0000      -0.580221       -15.7886
  45   1.0000      -0.573779       -15.6133
  46   1.0000      -0.567629       -15.4460
  47   1.0000      -0.565059       -15.3760
  48   1.0000      -0.561166       -15.2701
  49   1.0000      -0.555910       -15.1271
  50   1.0000      -0.551430       -15.0052
  51   1.0000      -0.530582       -14.4379
  52   1.0000      -0.523865       -14.2551
  53   1.0000      -0.523025       -14.2322
  54   1.0000      -0.517448       -14.0805
  55   1.0000      -0.503801       -13.7091
  56   1.0000      -0.488319       -13.2878
  57   1.0000      -0.434136       -11.8134
  58   1.0000      -0.422603       -11.4996
  59   1.0000      -0.418572       -11.3899
  60   1.0000      -0.411909       -11.2086
  61   1.0000      -0.410854       -11.1799
  62   1.0000      -0.399741       -10.8775
  63   1.0000      -0.395318       -10.7572
  64   1.0000      -0.392018       -10.6673
  65   1.0000      -0.343069        -9.3354
  66   1.0000      -0.308988        -8.4080
  67   0.0000       0.004959         0.1349
  68   0.0000       0.028921         0.7870
  69   0.0000       0.033629         0.9151
  70   0.0000       0.035683         0.9710
  71   0.0000       0.052997         1.4421

                 SPIN DOWN ORBITALS
  NO   OCC          E(Eh)            E(eV)
   0   1.0000     -19.332075      -526.0525
   1   1.0000     -19.331464      -526.0359
   2   1.0000     -19.331286      -526.0310
   3   1.0000     -19.331092      -526.0258
   4   1.0000     -14.571941      -396.5227
   5   1.0000     -14.569232      -396.4490
   6   1.0000     -14.567796      -396.4099
   7   1.0000     -14.564842      -396.3295
   8   1.0000     -10.517755      -286.2027
   9   1.0000     -10.515501      -286.1413
  10   1.0000     -10.485116      -285.3145
  11   1.0000     -10.485021      -285.3119
  12   1.0000     -10.442843      -284.1642
  13   1.0000     -10.439825      -284.0821
  14   1.0000     -10.405651      -283.1522
  15   1.0000     -10.398727      -282.9637
  16   1.0000     -10.378807      -282.4217
  17   1.0000     -10.375449      -282.3303
  18   1.0000      -1.233200       -33.5571
  19   1.0000      -1.222946       -33.2780
  20   1.0000      -1.198040       -32.6003
  21   1.0000      -1.188701       -32.3462
  22   1.0000      -1.138420       -30.9780
  23   1.0000      -1.115938       -30.3662
  24   1.0000      -1.075027       -29.2530
  25   1.0000      -1.067261       -29.0416
  26   1.0000      -0.962917       -26.2023
  27   1.0000      -0.931378       -25.3441
  28   1.0000      -0.875237       -23.8164
  29   1.0000      -0.843043       -22.9404
  30   1.0000      -0.817651       -22.2494
  31   1.0000      -0.807114       -21.9627
  32   1.0000      -0.793498       -21.5922
  33   1.0000      -0.787632       -21.4326
  34   1.0000      -0.700574       -19.0636
  35   1.0000      -0.690700       -18.7949
  36   1.0000      -0.683218       -18.5913
  37   1.0000      -0.673452       -18.3256
  38   1.0000      -0.652635       -17.7591
  39   1.0000      -0.649779       -17.6814
  40   1.0000      -0.623580       -16.9685
  41   1.0000      -0.598803       -16.2943
  42   1.0000      -0.593435       -16.1482
  43   1.0000      -0.586049       -15.9472
  44   1.0000      -0.573504       -15.6059
  45   1.0000      -0.567783       -15.4501
  46   1.0000      -0.562117       -15.2960
  47   1.0000      -0.557240       -15.1633
  48   1.0000      -0.556299       -15.1377
  49   1.0000      -0.548830       -14.9344
  50   1.0000      -0.537613       -14.6292
  51   1.0000      -0.520026       -14.1506
  52   1.0000      -0.516231       -14.0474
  53   1.0000      -0.513237       -13.9659
  54   1.0000      -0.508693       -13.8422
  55   1.0000      -0.500433       -13.6175
  56   1.0000      -0.484133       -13.1739
  57   1.0000      -0.430458       -11.7134
  58   1.0000      -0.418690       -11.3931
  59   1.0000      -0.412943       -11.2367
  60   1.0000      -0.400804       -10.9064
  61   1.0000      -0.397156       -10.8072
  62   1.0000      -0.392031       -10.6677
  63   1.0000      -0.389304       -10.5935
  64   1.0000      -0.376518       -10.2456
  65   0.0000      -0.063331        -1.7233
  66   0.0000      -0.042331        -1.1519
  67   0.0000       0.004585         0.1248
  68   0.0000       0.028678         0.7804
  69   0.0000       0.033610         0.9146

----------------------------------------------------------------------------------------------------
          SPIN FLIP ABSORPTION SPECTRUM VIA TRANSITION ELECTRIC DIPOLE MOMENTS
----------------------------------------------------------------------------------------------------
     Transition      Energy     Energy  Wavelength fosc(D2)      D2        DX        DY        DZ
                      (eV)      (cm-1)    (nm)                 (au**2)    (au)      (au)      (au)
----------------------------------------------------------------------------------------------------
  1-3A  ->  2-3A    0.170896    1378.4  7255.0   0.000109034   0.02604  -0.13773   0.06699  -0.05084
  1-3A  ->  3-1A    2.323773   18742.5   533.5   0.097328599   1.70958  -0.88816   0.64220  -0.71298

Dispersion correction             ... done (  0.1 sec)

MULLIKEN ATOMIC CHARGES AND SPIN DENSITIES
------------------------------------------
   0 O :   -0.663336    0.006939
   1 O :   -0.634062   -0.007511
   2 O :   -0.615442    0.000581
   3 O :   -0.629688    0.001013
   4 N :   -0.182169   -0.001649
   5 N :   -0.356376   -0.002097
   6 N :    0.035890   -0.005380
   7 N :    0.044658   -0.004652
   8 C :    0.228808    0.370515
   9 C :    0.165833    0.418197
  10 C :    0.126215   -0.231861
  11 C :    0.388297   -0.327590
  12 C :   -1.178813   -0.001052
  13 C :   -1.265682   -0.002372
  14 C :    0.184261   -0.137305
  15 C :    0.402126   -0.137810
  16 C :    0.346928    0.006808
  17 C :    0.322881    0.013151
  18 H :    0.651318    0.007068
  19 H :    0.477314   -0.011747
  20 H :    0.298111   -0.000903
  21 H :    0.273296    0.011435
  22 H :    0.354812    0.008440
  23 H :    0.281620   -0.003959
  24 H :    0.319896    0.012671
  25 H :    0.280558    0.012871
  26 H :    0.098065   -0.000170
  27 H :    0.106421    0.001605
  28 H :    0.094046    0.002660
  29 H :    0.044213    0.002103
Sum of atomic charges       :   -0.0000000

LOEWDIN ATOMIC CHARGES AND SPIN DENSITIES
-----------------------------------------
   0 O :    0.069295    0.006552
   1 O :    0.090423   -0.006346
   2 O :    0.119757    0.000559
   3 O :    0.085635    0.000883
   4 N :    0.297673   -0.000354
   5 N :    0.248343   -0.000346
   6 N :    0.330496   -0.004699
   7 N :    0.345648   -0.003564
   8 C :   -0.041682    0.034957
   9 C :    0.010346   -0.011006
  10 C :   -0.128149   -0.003705
  11 C :   -0.082344   -0.002413
  12 C :    0.195499    0.003879
  13 C :    0.198003   -0.004285
  14 C :   -0.382789   -0.000996
  15 C :   -0.418336   -0.006988
  16 C :   -0.471984   -0.000357
  17 C :   -0.457115   -0.000139
  18 H :    0.069155   -0.001369
  19 H :    0.027766   -0.000618
  20 H :    0.000271    0.000100
  21 H :   -0.012900    0.001773
  22 H :    0.007856    0.000797
  23 H :   -0.001335    0.000058
  24 H :    0.026093   -0.001253
  25 H :   -0.012986   -0.000493
  26 H :   -0.067007    0.000012
  27 H :   -0.015388    0.000006
  28 H :   -0.007118   -0.000339
  29 H :   -0.023125   -0.000308

  Mayer bond orders larger than 0.100000
B(  0-O , 14-C ) :   1.4215 B(  1-O ,  9-C ) :   0.1097 B(  1-O , 15-C ) :   1.3269
B(  2-O , 16-C ) :   1.5947 B(  3-O , 17-C ) :   1.5854 B(  4-N ,  8-C ) :   0.2574
B(  4-N , 10-C ) :   0.1938 B(  4-N , 16-C ) :   0.9715 B(  4-N , 26-H ) :   1.0475
B(  5-N ,  9-C ) :   0.1934 B(  5-N , 10-C ) :   0.1262 B(  5-N , 17-C ) :   1.1399
B(  5-N , 27-H ) :   1.0751 B(  6-N , 10-C ) :   0.1127 B(  6-N , 14-C ) :   1.0511
B(  6-N , 16-C ) :   0.9458 B(  6-N , 28-H ) :   1.0397 B(  7-N , 11-C ) :   0.1352
B(  7-N , 15-C ) :   0.8608 B(  7-N , 17-C ) :   0.8892 B(  7-N , 29-H ) :   1.1007
B(  8-C ,  9-C ) :   0.1314 B(  8-C , 10-C ) :   0.6039 B(  8-C , 11-C ) :   0.2902
B(  8-C , 12-C ) :   0.5082 B(  8-C , 14-C ) :   0.8108 B(  8-C , 16-C ) :   0.1212
B(  8-C , 18-H ) :  -0.1945 B(  9-C , 10-C ) :   0.1559 B(  9-C , 11-C ) :   0.1698
B(  9-C , 13-C ) :   0.6445 B(  9-C , 15-C ) :   0.8462 B(  9-C , 19-H ) :  -0.1562
B(  9-C , 23-H ) :  -0.1050 B( 10-C , 11-C ) :   0.4329 B( 10-C , 16-C ) :  -0.1796
B( 10-C , 18-H ) :   0.7523 B( 11-C , 13-C ) :  -0.1392 B( 11-C , 15-C ) :   0.1093
B( 11-C , 17-C ) :  -0.2309 B( 11-C , 19-H ) :   0.8927 B( 12-C , 20-H ) :   1.0039
B( 12-C , 21-H ) :   0.8600 B( 12-C , 22-H ) :   0.9656 B( 13-C , 23-H ) :   1.0449
B( 13-C , 24-H ) :   0.8999 B( 13-C , 25-H ) :   0.9529 B( 15-C , 17-C ) :  -0.1131

Dispersion correction           -0.058818425
FINAL SINGLE POINT ENERGY      -908.762455282965

DIPOLE MOMENT
-------------

Method             : TDA/CIS
Type of density    : Electron Density
Level              : Relaxed density
State              :   2
Multiplicity       :   3
Irrep              :   0
Energy             :     0.0000000000000000 Eh
Relativity type    :
Basis              : AO
                                X                 Y                 Z
Electronic contribution:     -7.294653635      -9.257892965      -3.990265659
Nuclear contribution   :      8.004468989      10.742053891       5.894992441
                        -----------------------------------------
Total Dipole Moment    :      0.709815354       1.484160926       1.904726782
                        -----------------------------------------
Magnitude (a.u.)       :      2.516854307
Magnitude (Debye)      :      6.397335245

Rotational constants in cm-1:             0.020316             0.013328             0.011692
Rotational constants in MHz :           609.044176           399.564062           350.520170

                             ****ORCA TERMINATED NORMALLY****
TOTAL RUN TIME: 0 days 0 hours 4 minutes 57 seconds 359 msec
