                         Program Version 6.0.0  -   RELEASE  -
|  1> ! Engrad def2-TZVPPD wB97M-D3BJ
|  2> %pal nprocs 8 end%pal nprocs 64 end
|  3> %tddft
|  4>  Iroot 2 Nroots 3
|  5> sf true
|  6> end
|  7> *xyz 0 3
|  8> O   3.40840634 0.84320284 0.10586586
|  9> O   -0.79924245 0.79258208 -2.7499386
| 10> O   1.20573624 -2.94607117 -0.66828068
| 11> O   -3.68022586 -1.45561869 0.04307649
| 12> N   0.26535282 -1.42800173 0.79061508
| 13> N   -2.23798726 0.04159692 0.91692177
| 14> N   1.97037699 -0.82509783 -0.55787403
| 15> N   -2.15831739 -0.35652666 -1.29143597
| 16> C   1.48199602 0.60004265 1.32822496
| 17> C   -0.59328376 1.25498351 -0.46702894
| 18> C   0.25918967 -0.19304279 1.46326146
| 19> C   -0.93389749 0.77920155 0.89670318
| 20> C   1.81781618 1.66269759 2.37844011
| 21> C   0.25524473 2.47590386 -0.58560484
| 22> C   2.3470484 0.24891488 0.23161255
| 23> C   -1.10866408 0.52625383 -1.59672177
| 24> C   1.13206089 -1.85045089 -0.24406684
| 25> C   -2.71362461 -0.68701034 -0.0782337
| 26> H   -0.08856826 -0.44218209 2.45002668
| 27> H   -1.12085254 1.5778716 1.57767335
| 28> H   1.89508772 1.42863034 3.40215907
| 29> H   2.72303097 2.14341644 2.00153155
| 30> H   0.99573879 2.35559207 2.48994423
| 31> H   -0.19228802 3.21913277 -1.37986324
| 32> H   0.26272322 3.0362489 0.29657555
| 33> H   1.25265809 2.25947685 -0.93413734
| 34> H   -0.59441966 -2.00374627 0.81030224
| 35> H   -2.63728409 -0.15607327 1.84478685
| 36> H   2.70930121 -0.98380489 -1.22598206
| 37> H   -2.53232936 -0.79169183 -2.12355029
| 38> *
| 39>
| 40>                          ****END OF INPUT****

CARTESIAN COORDINATES (ANGSTROEM)
---------------------------------
  O      3.408406    0.843203    0.105866
  O     -0.799242    0.792582   -2.749939
  O      1.205736   -2.946071   -0.668281
  O     -3.680226   -1.455619    0.043076
  N      0.265353   -1.428002    0.790615
  N     -2.237987    0.041597    0.916922
  N      1.970377   -0.825098   -0.557874
  N     -2.158317   -0.356527   -1.291436
  C      1.481996    0.600043    1.328225
  C     -0.593284    1.254984   -0.467029
  C      0.259190   -0.193043    1.463261
  C     -0.933897    0.779202    0.896703
  C      1.817816    1.662698    2.378440
  C      0.255245    2.475904   -0.585605
  C      2.347048    0.248915    0.231613
  C     -1.108664    0.526254   -1.596722
  C      1.132061   -1.850451   -0.244067
  C     -2.713625   -0.687010   -0.078234
  H     -0.088568   -0.442182    2.450027
  H     -1.120853    1.577872    1.577673
  H      1.895088    1.428630    3.402159
  H      2.723031    2.143416    2.001532
  H      0.995739    2.355592    2.489944
  H     -0.192288    3.219133   -1.379863
  H      0.262723    3.036249    0.296576
  H      1.252658    2.259477   -0.934137
  H     -0.594420   -2.003746    0.810302
  H     -2.637284   -0.156073    1.844787
  H      2.709301   -0.983805   -1.225982
  H     -2.532329   -0.791692   -2.123550

 Total Charge           Charge          ....    0
 Multiplicity           Mult            ....    3
 Number of Electrons    NEL             ....  132
 Basis Dimension        Dim             ....  882

ORBITAL ENERGIES
----------------
                 SPIN UP ORBITALS
  NO   OCC          E(Eh)            E(eV)
   0   1.0000     -19.342325      -526.3314
   1   1.0000     -19.336175      -526.1641
   2   1.0000     -19.333503      -526.0914
   3   1.0000     -19.314205      -525.5662
   4   1.0000     -14.569066      -396.4444
   5   1.0000     -14.567160      -396.3926
   6   1.0000     -14.563408      -396.2905
   7   1.0000     -14.557267      -396.1234
   8   1.0000     -10.511317      -286.0275
   9   1.0000     -10.503825      -285.8236
  10   1.0000     -10.489114      -285.4233
  11   1.0000     -10.483773      -285.2780
  12   1.0000     -10.447626      -284.2943
  13   1.0000     -10.444122      -284.1990
  14   1.0000     -10.424941      -283.6771
  15   1.0000     -10.419469      -283.5282
  16   1.0000     -10.379007      -282.4271
  17   1.0000     -10.376664      -282.3634
  18   1.0000      -1.238260       -33.6948
  19   1.0000      -1.214006       -33.0348
  20   1.0000      -1.208928       -32.8966
  21   1.0000      -1.190531       -32.3960
  22   1.0000      -1.126738       -30.6601
  23   1.0000      -1.102544       -30.0017
  24   1.0000      -1.071551       -29.1584
  25   1.0000      -1.056083       -28.7375
  26   1.0000      -0.988841       -26.9077
  27   1.0000      -0.954762       -25.9804
  28   1.0000      -0.887448       -24.1487
  29   1.0000      -0.854880       -23.2625
  30   1.0000      -0.833840       -22.6899
  31   1.0000      -0.810621       -22.0581
  32   1.0000      -0.797167       -21.6920
  33   1.0000      -0.790406       -21.5080
  34   1.0000      -0.702054       -19.1039
  35   1.0000      -0.698874       -19.0173
  36   1.0000      -0.691798       -18.8248
  37   1.0000      -0.678984       -18.4761
  38   1.0000      -0.659246       -17.9390
  39   1.0000      -0.637951       -17.3595
  40   1.0000      -0.617492       -16.8028
  41   1.0000      -0.602188       -16.3864
  42   1.0000      -0.601386       -16.3645
  43   1.0000      -0.592447       -16.1213
  44   1.0000      -0.581798       -15.8315
  45   1.0000      -0.576729       -15.6936
  46   1.0000      -0.571964       -15.5639
  47   1.0000      -0.569749       -15.5036
  48   1.0000      -0.563621       -15.3369
  49   1.0000      -0.557102       -15.1595
  50   1.0000      -0.553226       -15.0540
  51   1.0000      -0.544828       -14.8255
  52   1.0000      -0.541021       -14.7219
  53   1.0000      -0.523060       -14.2332
  54   1.0000      -0.511682       -13.9236
  55   1.0000      -0.503872       -13.7110
  56   1.0000      -0.495317       -13.4783
  57   1.0000      -0.432141       -11.7591
  58   1.0000      -0.417367       -11.3571
  59   1.0000      -0.414685       -11.2842
  60   1.0000      -0.410670       -11.1749
  61   1.0000      -0.404239       -10.9999
  62   1.0000      -0.400492       -10.8979
  63   1.0000      -0.393762       -10.7148
  64   1.0000      -0.385072       -10.4783
  65   1.0000      -0.349620        -9.5137
  66   1.0000      -0.323740        -8.8094
  67   0.0000       0.005923         0.1612
  68   0.0000       0.029260         0.7962
  69   0.0000       0.032349         0.8803
  70   0.0000       0.033952         0.9239
  71   0.0000       0.053065         1.4440

                 SPIN DOWN ORBITALS
  NO   OCC          E(Eh)            E(eV)
   0   1.0000     -19.337496      -526.2000
   1   1.0000     -19.333506      -526.0914
   2   1.0000     -19.331871      -526.0469
   3   1.0000     -19.313990      -525.5604
   4   1.0000     -14.568408      -396.4265
   5   1.0000     -14.566792      -396.3826
   6   1.0000     -14.562747      -396.2725
   7   1.0000     -14.557154      -396.1203
   8   1.0000     -10.511365      -286.0288
   9   1.0000     -10.503879      -285.8251
  10   1.0000     -10.490143      -285.4513
  11   1.0000     -10.484786      -285.3055
  12   1.0000     -10.446696      -284.2691
  13   1.0000     -10.443561      -284.1837
  14   1.0000     -10.413811      -283.3742
  15   1.0000     -10.408305      -283.2244
  16   1.0000     -10.379610      -282.4435
  17   1.0000     -10.377222      -282.3786
  18   1.0000      -1.237421       -33.6719
  19   1.0000      -1.211359       -32.9628
  20   1.0000      -1.202781       -32.7293
  21   1.0000      -1.186111       -32.2757
  22   1.0000      -1.123882       -30.5824
  23   1.0000      -1.100373       -29.9427
  24   1.0000      -1.069409       -29.1001
  25   1.0000      -1.054457       -28.6932
  26   1.0000      -0.975159       -26.5354
  27   1.0000      -0.937527       -25.5114
  28   1.0000      -0.882236       -24.0069
  29   1.0000      -0.850138       -23.1334
  30   1.0000      -0.825057       -22.4509
  31   1.0000      -0.805515       -21.9192
  32   1.0000      -0.795156       -21.6373
  33   1.0000      -0.788545       -21.4574
  34   1.0000      -0.696859       -18.9625
  35   1.0000      -0.692881       -18.8542
  36   1.0000      -0.685520       -18.6540
  37   1.0000      -0.672098       -18.2887
  38   1.0000      -0.645910       -17.5761
  39   1.0000      -0.633967       -17.2511
  40   1.0000      -0.613488       -16.6939
  41   1.0000      -0.597457       -16.2576
  42   1.0000      -0.596066       -16.2198
  43   1.0000      -0.587636       -15.9904
  44   1.0000      -0.577304       -15.7093
  45   1.0000      -0.571954       -15.5637
  46   1.0000      -0.562474       -15.3057
  47   1.0000      -0.560180       -15.2433
  48   1.0000      -0.555573       -15.1179
  49   1.0000      -0.551011       -14.9938
  50   1.0000      -0.543064       -14.7775
  51   1.0000      -0.538225       -14.6458
  52   1.0000      -0.532911       -14.5012
  53   1.0000      -0.513725       -13.9792
  54   1.0000      -0.501897       -13.6573
  55   1.0000      -0.498596       -13.5675
  56   1.0000      -0.489286       -13.3142
  57   1.0000      -0.426881       -11.6160
  58   1.0000      -0.412001       -11.2111
  59   1.0000      -0.405449       -11.0328
  60   1.0000      -0.402619       -10.9558
  61   1.0000      -0.398338       -10.8393
  62   1.0000      -0.389039       -10.5863
  63   1.0000      -0.386558       -10.5188
  64   1.0000      -0.372108       -10.1256
  65   0.0000      -0.067085        -1.8255
  66   0.0000      -0.055988        -1.5235
  67   0.0000       0.005427         0.1477
  68   0.0000       0.028996         0.7890
  69   0.0000       0.032232         0.8771

----------------------------------------------------------------------------------------------------
          SPIN FLIP ABSORPTION SPECTRUM VIA TRANSITION ELECTRIC DIPOLE MOMENTS
----------------------------------------------------------------------------------------------------
     Transition      Energy     Energy  Wavelength fosc(D2)      D2        DX        DY        DZ
                      (eV)      (cm-1)    (nm)                 (au**2)    (au)      (au)      (au)
----------------------------------------------------------------------------------------------------
  1-3A  ->  2-3A    0.044741     360.9  27711.7   0.000021444   0.01956   0.13059   0.00863   0.04936
  1-3A  ->  3-1A    2.056675   16588.2   602.8   0.031872875   0.63255  -0.69277  -0.06317  -0.38553

Dispersion correction             ... done (  0.1 sec)

MULLIKEN ATOMIC CHARGES AND SPIN DENSITIES
------------------------------------------
   0 O :   -0.673193    0.001615
   1 O :   -0.668828    0.004651
   2 O :   -0.590093   -0.000026
   3 O :   -0.691683    0.000694
   4 N :   -0.259776   -0.002795
   5 N :   -0.290196   -0.001784
   6 N :    0.043098   -0.004508
   7 N :    0.017051    0.000132
   8 C :    0.464462    0.327001
   9 C :    0.739230    0.348307
  10 C :    0.175944   -0.153005
  11 C :    0.207669   -0.194616
  12 C :   -1.263273   -0.011523
  13 C :   -1.584776   -0.008748
  14 C :    0.096505   -0.185867
  15 C :   -0.000845   -0.162998
  16 C :    0.441462    0.008347
  17 C :    0.527765    0.010084
  18 H :    0.518255   -0.007215
  19 H :    0.583997   -0.001650
  20 H :    0.299559    0.005738
  21 H :    0.291970   -0.000663
  22 H :    0.316264    0.009868
  23 H :    0.401076    0.001231
  24 H :    0.344719    0.003767
  25 H :    0.274721    0.009570
  26 H :    0.093964    0.000016
  27 H :    0.088575    0.000913
  28 H :    0.066243    0.001487
  29 H :    0.030135    0.001979
Sum of atomic charges       :   -0.0000000

LOEWDIN ATOMIC CHARGES AND SPIN DENSITIES
-----------------------------------------
   0 O :    0.083243    0.001202
   1 O :    0.088715    0.004589
   2 O :    0.146272   -0.000224
   3 O :    0.051894    0.000594
   4 N :    0.265597   -0.000818
   5 N :    0.267125   -0.001292
   6 N :    0.336775   -0.005279
   7 N :    0.326929   -0.002028
   8 C :   -0.019926    0.003700
   9 C :   -0.021215    0.019499
  10 C :   -0.123610   -0.004198
  11 C :   -0.050374   -0.002228
  12 C :    0.238299   -0.000008
  13 C :    0.199298   -0.001667
  14 C :   -0.421438   -0.006140
  15 C :   -0.396777   -0.001994
  16 C :   -0.485313   -0.000424
  17 C :   -0.529378   -0.000298
  18 H :    0.046868   -0.001446
  19 H :    0.029294   -0.000122
  20 H :   -0.026307    0.000402
  21 H :    0.002583    0.000005
  22 H :   -0.018351    0.000198
  23 H :    0.076930   -0.001119
  24 H :   -0.045793    0.000228
  25 H :   -0.005274   -0.000393
  26 H :   -0.004999   -0.000025
  27 H :    0.002505   -0.000156
  28 H :   -0.005384   -0.000405
  29 H :   -0.008188   -0.000152

  Mayer bond orders larger than 0.100000
B(  0-O ,  8-C ) :  -0.1265 B(  0-O , 14-C ) :   1.4842 B(  1-O , 15-C ) :   1.3289
B(  2-O , 16-C ) :   1.6295 B(  3-O , 17-C ) :   1.5509 B(  4-N ,  8-C ) :   0.1269
B(  4-N , 10-C ) :   0.4980 B(  4-N , 16-C ) :   0.9544 B(  4-N , 26-H ) :   1.0546
B(  5-N ,  9-C ) :   0.1385 B(  5-N , 10-C ) :   0.1141 B(  5-N , 11-C ) :   0.2199
B(  5-N , 17-C ) :   1.1423 B(  5-N , 27-H ) :   1.0870 B(  6-N ,  8-C ) :  -0.1289
B(  6-N , 10-C ) :   0.1355 B(  6-N , 14-C ) :   1.0954 B(  6-N , 16-C ) :   0.9510
B(  6-N , 28-H ) :   1.0752 B(  7-N , 15-C ) :   1.0032 B(  7-N , 17-C ) :   0.9240
B(  7-N , 29-H ) :   1.1129 B(  8-C ,  9-C ) :   0.2082 B(  8-C , 10-C ) :   0.6793
B(  8-C , 11-C ) :   0.2171 B(  8-C , 12-C ) :   0.5275 B(  8-C , 14-C ) :   0.5523
B(  8-C , 16-C ) :   0.1061 B(  8-C , 18-H ) :  -0.1107 B(  8-C , 21-H ) :  -0.1082
B(  9-C , 11-C ) :   0.4307 B(  9-C , 13-C ) :   0.2067 B(  9-C , 15-C ) :   0.5901
B(  9-C , 19-H ) :  -0.2326 B(  9-C , 24-H ) :  -0.1968 B( 10-C , 11-C ) :   0.4935
B( 10-C , 16-C ) :  -0.1485 B( 10-C , 18-H ) :   0.7694 B( 11-C , 13-C ) :  -0.3238
B( 11-C , 15-C ) :  -0.1175 B( 11-C , 17-C ) :  -0.1026 B( 11-C , 18-H ) :  -0.1130
B( 11-C , 19-H ) :   0.7985 B( 12-C , 20-H ) :   0.9389 B( 12-C , 21-H ) :   1.0066
B( 12-C , 22-H ) :   0.8693 B( 13-C , 23-H ) :   0.8448 B( 13-C , 24-H ) :   1.1305
B( 13-C , 25-H ) :   0.9108

Dispersion correction           -0.059404112
FINAL SINGLE POINT ENERGY      -908.767609460122

DIPOLE MOMENT
-------------

Method             : TDA/CIS
Type of density    : Electron Density
Level              : Relaxed density
State              :   2
Multiplicity       :   3
Irrep              :   0
Energy             :     0.0000000000000000 Eh
Relativity type    :
Basis              : AO
                                X                 Y                 Z
Electronic contribution:     -2.610509971      -9.702140542      -6.550599610
Nuclear contribution   :      2.590544358      11.345596765       8.818101457
                        -----------------------------------------
Total Dipole Moment    :     -0.019965613       1.643456223       2.267501847
                        -----------------------------------------
Magnitude (a.u.)       :      2.800519882
Magnitude (Debye)      :      7.118355835

Rotational constants in cm-1:             0.021009             0.012681             0.011779
Rotational constants in MHz :           629.826145           380.180622           353.130925

                             ****ORCA TERMINATED NORMALLY****
TOTAL RUN TIME: 0 days 0 hours 4 minutes 54 seconds 335 msec
