                         Program Version 6.0.0  -   RELEASE  -
|  1> ! Engrad def2-TZVPPD wB97M-D3BJ
|  2> %pal nprocs 8 end%pal nprocs 64 end
|  3> %tddft
|  4>  Iroot 2 Nroots 3
|  5> sf true
|  6> end
|  7> *xyz 0 3
|  8> O   0.83713592 -0.42672662 1.00326581
|  9> C   0.42178315 -0.31791626 -0.33809062
| 10> C   -0.12764875 1.00273789 -0.5178152
| 11> H   -0.33736713 -1.15183411 -0.63658937
| 12> H   1.26175337 -0.57551355 -1.04599743
| 13> H   0.17613587 1.59357463 -1.32079301
| 14> H   -0.61580172 1.42194723 0.39388645
| 15> *
| 16>
| 17>                          ****END OF INPUT****

CARTESIAN COORDINATES (ANGSTROEM)
---------------------------------
  O      0.837136   -0.426727    1.003266
  C      0.421783   -0.317916   -0.338091
  C     -0.127649    1.002738   -0.517815
  H     -0.337367   -1.151834   -0.636589
  H      1.261753   -0.575514   -1.045997
  H      0.176136    1.593575   -1.320793
  H     -0.615802    1.421947    0.393886

 Total Charge           Charge          ....    0
 Multiplicity           Mult            ....    3
 Number of Electrons    NEL             ....   24
 Basis Dimension        Dim             ....  182

ORBITAL ENERGIES
----------------
                 SPIN UP ORBITALS
  NO   OCC          E(Eh)            E(eV)
   0   1.0000     -19.391646      -527.6735
   1   1.0000     -10.419064      -283.5171
   2   1.0000     -10.361967      -281.9635
   3   1.0000      -1.157465       -31.4962
   4   1.0000      -0.882990       -24.0274
   5   1.0000      -0.731018       -19.8920
   6   1.0000      -0.606466       -16.5028
   7   1.0000      -0.591863       -16.1054
   8   1.0000      -0.546492       -14.8708
   9   1.0000      -0.509585       -13.8665
  10   1.0000      -0.443797       -12.0763
  11   1.0000      -0.421605       -11.4724
  12   1.0000      -0.319162        -8.6848
  13   0.0000       0.041464         1.1283
  14   0.0000       0.061108         1.6628
  15   0.0000       0.078979         2.1491
  16   0.0000       0.085026         2.3137
  17   0.0000       0.111837         3.0432

                 SPIN DOWN ORBITALS
  NO   OCC          E(Eh)            E(eV)
   0   1.0000     -19.367580      -527.0186
   1   1.0000     -10.420682      -283.5612
   2   1.0000     -10.348793      -281.6050
   3   1.0000      -1.102194       -29.9922
   4   1.0000      -0.849988       -23.1294
   5   1.0000      -0.705903       -19.2086
   6   1.0000      -0.589317       -16.0361
   7   1.0000      -0.536402       -14.5962
   8   1.0000      -0.522299       -14.2125
   9   1.0000      -0.486732       -13.2447
  10   1.0000      -0.388654       -10.5758
  11   0.0000      -0.058083        -1.5805
  12   0.0000       0.001585         0.0431
  13   0.0000       0.040363         1.0983
  14   0.0000       0.061402         1.6708
  15   0.0000       0.078567         2.1379

----------------------------------------------------------------------------------------------------
          SPIN FLIP ABSORPTION SPECTRUM VIA TRANSITION ELECTRIC DIPOLE MOMENTS
----------------------------------------------------------------------------------------------------
     Transition      Energy     Energy  Wavelength fosc(D2)      D2        DX        DY        DZ
                      (eV)      (cm-1)    (nm)                 (au**2)    (au)      (au)      (au)
----------------------------------------------------------------------------------------------------
  1-3A  ->  2-3A    0.381584    3077.7  3249.2   0.000122854   0.01314   0.02418   0.02558  -0.10910
  1-3A  ->  3-1A    1.243465   10029.2   997.1   0.071200278   2.33717   0.70202  -0.83996   1.06715

Dispersion correction             ... done (  0.2 sec)

MULLIKEN ATOMIC CHARGES AND SPIN DENSITIES
------------------------------------------
   0 O :   -0.325684    0.729398
   1 C :   -0.075583    0.000587
   2 C :   -0.291873   -0.582748
   3 H :    0.194398   -0.007360
   4 H :    0.212223    0.017344
   5 H :    0.126877   -0.088730
   6 H :    0.159642   -0.068491
Sum of atomic charges       :    0.0000000

LOEWDIN ATOMIC CHARGES AND SPIN DENSITIES
-----------------------------------------
   0 O :    0.026369    0.681979
   1 C :   -0.267144   -0.023404
   2 C :    0.253628   -0.542432
   3 H :    0.077056    0.012380
   4 H :    0.047225    0.014867
   5 H :   -0.108582   -0.084243
   6 H :   -0.028553   -0.059148

  Mayer bond orders larger than 0.100000
B(  0-O ,  1-C ) :   0.9173 B(  1-C ,  2-C ) :   0.8715 B(  1-C ,  3-H ) :   0.9146
B(  1-C ,  4-H ) :   0.9416 B(  2-C ,  5-H ) :   1.0568 B(  2-C ,  6-H ) :   1.0210

Dispersion correction           -0.005565216
FINAL SINGLE POINT ENERGY      -153.743555741505

DIPOLE MOMENT
-------------

Method             : TDA/CIS
Type of density    : Electron Density
Level              : Relaxed density
State              :   2
Multiplicity       :   3
Irrep              :   0
Energy             :     0.0000000000000000 Eh
Relativity type    :
Basis              : AO
                                X                 Y                 Z
Electronic contribution:      0.927206628      -1.034630654       2.000090536
Nuclear contribution   :     -1.022211013       0.971599148      -2.701917141
                        -----------------------------------------
Total Dipole Moment    :     -0.095004386      -0.063031506      -0.701826605
                        -----------------------------------------
Magnitude (a.u.)       :      0.711026995
Magnitude (Debye)      :      1.807286994

Rotational constants in cm-1:             1.269543             0.383445             0.319518
Rotational constants in MHz :         38059.933700         11495.401475          9578.923317

                             ****ORCA TERMINATED NORMALLY****
TOTAL RUN TIME: 0 days 0 hours 0 minutes 26 seconds 958 msec
