                         Program Version 6.0.0  -   RELEASE  -
|  1> ! Engrad wB97M-D3BJ def2-TZVPPD
|  2> %pal nprocs 8 end%pal nprocs 16 end
|  3> %tddft nroots 2 Iroot 1
|  4>  sf true
|  5> end
|  6> *xyz 0 3
|  7> O   0.94073519082035 1.18463405426264 0.07246512020525
|  8> C   0.89133206333177 0.03844573377803 -0.30728222589222
|  9> C   -0.31721952898399 -0.71371616829739 0.2077590090594
| 10> H   -0.017337355203 -1.59785554546717 0.77363911982281
| 11> H   1.64347916394543 -0.42342045650836 -0.96332993734335
| 12> H   -0.93400979602229 -1.07216156137203 -0.61875706353802
| 13> H   -0.88508751904213 -0.03885685195149 0.83550597768614
| 14> *
| 15>
| 16>                          ****END OF INPUT****

CARTESIAN COORDINATES (ANGSTROEM)
---------------------------------
  O      0.940735    1.184634    0.072465
  C      0.891332    0.038446   -0.307282
  C     -0.317220   -0.713716    0.207759
  H     -0.017337   -1.597856    0.773639
  H      1.643479   -0.423420   -0.963330
  H     -0.934010   -1.072162   -0.618757
  H     -0.885088   -0.038857    0.835506

 Total Charge           Charge          ....    0
 Multiplicity           Mult            ....    3
 Number of Electrons    NEL             ....   24
 Basis Dimension        Dim             ....  182

ORBITAL ENERGIES
----------------
                 SPIN UP ORBITALS
  NO   OCC          E(Eh)            E(eV)
   0   1.0000     -19.411080      -528.2023
   1   1.0000     -10.380886      -282.4783
   2   1.0000     -10.366352      -282.0828
   3   1.0000      -1.246874       -33.9292
   4   1.0000      -0.875647       -23.8276
   5   1.0000      -0.721374       -19.6296
   6   1.0000      -0.638965       -17.3871
   7   1.0000      -0.582195       -15.8423
   8   1.0000      -0.581842       -15.8327
   9   1.0000      -0.514267       -13.9939
  10   1.0000      -0.509891       -13.8748
  11   1.0000      -0.436288       -11.8720
  12   1.0000      -0.224865        -6.1189
  13   0.0000       0.042775         1.1640
  14   0.0000       0.060496         1.6462
  15   0.0000       0.079669         2.1679
  16   0.0000       0.088522         2.4088
  17   0.0000       0.108879         2.9628

                 SPIN DOWN ORBITALS
  NO   OCC          E(Eh)            E(eV)
   0   1.0000     -19.382969      -527.4374
   1   1.0000     -10.370471      -282.1949
   2   1.0000     -10.363925      -282.0167
   3   1.0000      -1.188087       -32.3295
   4   1.0000      -0.855853       -23.2889
   5   1.0000      -0.678308       -18.4577
   6   1.0000      -0.585279       -15.9262
   7   1.0000      -0.539807       -14.6889
   8   1.0000      -0.532362       -14.4863
   9   1.0000      -0.502470       -13.6729
  10   1.0000      -0.469285       -12.7699
  11   0.0000      -0.078969        -2.1489
  12   0.0000       0.042517         1.1569
  13   0.0000       0.060141         1.6365
  14   0.0000       0.080121         2.1802
  15   0.0000       0.081790         2.2256

----------------------------------------------------------------------------------------------------
          SPIN FLIP ABSORPTION SPECTRUM VIA TRANSITION ELECTRIC DIPOLE MOMENTS
----------------------------------------------------------------------------------------------------
     Transition      Energy     Energy  Wavelength fosc(D2)      D2        DX        DY        DZ
                      (eV)      (cm-1)    (nm)                 (au**2)    (au)      (au)      (au)
----------------------------------------------------------------------------------------------------
  1-3A  ->  2-3A    4.355338   35128.2   284.7   0.000000068   0.00000   0.00055  -0.00051   0.00027

Dispersion correction             ... done (  0.0 sec)

MULLIKEN ATOMIC CHARGES AND SPIN DENSITIES
------------------------------------------
   0 O :   -0.512327    0.053844
   1 C :    0.211897   -0.168282
   2 C :   -0.670602    0.046493
   3 H :    0.219341   -0.005404
   4 H :    0.296014    0.074081
   5 H :    0.218084   -0.005545
   6 H :    0.237592    0.004812
Sum of atomic charges       :   -0.0000000

LOEWDIN ATOMIC CHARGES AND SPIN DENSITIES
-----------------------------------------
   0 O :    0.020404    0.021232
   1 C :   -0.183526   -0.013820
   2 C :    0.171691   -0.001039
   3 H :   -0.013772   -0.001157
   4 H :    0.029426   -0.004346
   5 H :   -0.013410   -0.001157
   6 H :   -0.010813    0.000288

  Mayer bond orders larger than 0.100000
B(  0-O ,  1-C ) :   1.7877 B(  1-C ,  2-C ) :   0.7589 B(  1-C ,  4-H ) :   0.9305
B(  2-C ,  3-H ) :   0.9958 B(  2-C ,  5-H ) :   0.9940 B(  2-C ,  6-H ) :   0.9597

Dispersion correction           -0.005556215
FINAL SINGLE POINT ENERGY      -153.917747556688

DIPOLE MOMENT
-------------

Method             : TDA/CIS
Type of density    : Electron Density
Level              : Relaxed density
State              :   1
Multiplicity       :   3
Irrep              :   0
Energy             :     0.0000000000000000 Eh
Relativity type    :
Basis              : AO
                                X                 Y                 Z
Electronic contribution:      1.812278681       2.433495617      -0.300395324
Nuclear contribution   :     -2.027384264      -3.578354798       0.027203526
                        -----------------------------------------
Total Dipole Moment    :     -0.215105583      -1.144859180      -0.273191798
                        -----------------------------------------
Magnitude (a.u.)       :      1.196497686
Magnitude (Debye)      :      3.041255426

Rotational constants in cm-1:             1.635734             0.371948             0.320801
Rotational constants in MHz :         49038.073784         11150.715160          9617.370086

                             ****ORCA TERMINATED NORMALLY****
TOTAL RUN TIME: 0 days 0 hours 0 minutes 16 seconds 553 msec
