                         Program Version 6.0.0  -   RELEASE  -
|  1> ! Engrad def2-TZVPPD wB97M-D3BJ
|  2> %pal nprocs 8 end%pal nprocs 64 end
|  3> %tddft
|  4>  Iroot 1 Nroots 3
|  5> sf true
|  6> end
|  7> *xyz 0 3
|  8> O   3.41262844 -1.12737312 -1.93325793
|  9> O   -2.36417869 1.8020875 -1.26333239
| 10> O   -0.96769511 -2.14988111 -1.94300453
| 11> O   -2.95368348 0.56274845 3.01695418
| 12> N   0.02231015 -1.67845697 0.08923846
| 13> N   -0.83941341 0.39038662 2.09987023
| 14> N   1.20543796 -1.42128046 -1.89101742
| 15> N   -2.61561381 1.23277537 0.84486061
| 16> C   2.20389458 -0.64813358 0.12469816
| 17> C   -0.32288076 1.21975802 -0.09727742
| 18> C   0.90009862 -0.7480992 0.78744542
| 19> C   0.19523331 0.6246862 1.1097121
| 20> C   3.36698454 0.03487879 0.75191201
| 21> C   0.63301503 1.71342272 -1.19453634
| 22> C   2.35825568 -1.11324711 -1.28735565
| 23> C   -1.79135925 1.44739888 -0.2955458
| 24> C   -0.05943371 -1.68274227 -1.29415898
| 25> C   -2.21107897 0.76750697 2.08051261
| 26> H   1.08280198 -1.20515827 1.82454165
| 27> H   0.92706343 1.28881928 1.62442828
| 28> H   3.13039994 0.47053679 1.75211818
| 29> H   4.18493995 -0.64663466 0.86704527
| 30> H   3.75315963 0.77770672 0.08360636
| 31> H   0.55502954 1.10751568 -2.12252931
| 32> H   0.55087615 2.76025935 -1.50599239
| 33> H   1.59575106 1.56847079 -0.8415005
| 34> H   -0.84188247 -1.80016825 0.55638144
| 35> H   -0.60646423 -0.05827839 2.99626845
| 36> H   1.25732385 -1.76513323 -2.90826006
| 37> H   -3.62245119 1.4511453 0.73395014
| 38> *
| 39>
| 40>                          ****END OF INPUT****

CARTESIAN COORDINATES (ANGSTROEM)
---------------------------------
  O      3.412628   -1.127373   -1.933258
  O     -2.364179    1.802087   -1.263332
  O     -0.967695   -2.149881   -1.943005
  O     -2.953683    0.562748    3.016954
  N      0.022310   -1.678457    0.089238
  N     -0.839413    0.390387    2.099870
  N      1.205438   -1.421280   -1.891017
  N     -2.615614    1.232775    0.844861
  C      2.203895   -0.648134    0.124698
  C     -0.322881    1.219758   -0.097277
  C      0.900099   -0.748099    0.787445
  C      0.195233    0.624686    1.109712
  C      3.366985    0.034879    0.751912
  C      0.633015    1.713423   -1.194536
  C      2.358256   -1.113247   -1.287356
  C     -1.791359    1.447399   -0.295546
  C     -0.059434   -1.682742   -1.294159
  C     -2.211079    0.767507    2.080513
  H      1.082802   -1.205158    1.824542
  H      0.927063    1.288819    1.624428
  H      3.130400    0.470537    1.752118
  H      4.184940   -0.646635    0.867045
  H      3.753160    0.777707    0.083606
  H      0.555030    1.107516   -2.122529
  H      0.550876    2.760259   -1.505992
  H      1.595751    1.568471   -0.841500
  H     -0.841882   -1.800168    0.556381
  H     -0.606464   -0.058278    2.996268
  H      1.257324   -1.765133   -2.908260
  H     -3.622451    1.451145    0.733950

 Total Charge           Charge          ....    0
 Multiplicity           Mult            ....    3
 Number of Electrons    NEL             ....  132
 Basis Dimension        Dim             ....  882

ORBITAL ENERGIES
----------------
                 SPIN UP ORBITALS
  NO   OCC          E(Eh)            E(eV)
   0   1.0000     -19.340342      -526.2775
   1   1.0000     -19.334896      -526.1293
   2   1.0000     -19.328935      -525.9671
   3   1.0000     -19.325387      -525.8705
   4   1.0000     -14.570296      -396.4779
   5   1.0000     -14.565154      -396.3380
   6   1.0000     -14.562989      -396.2791
   7   1.0000     -14.560924      -396.2229
   8   1.0000     -10.516326      -286.1638
   9   1.0000     -10.510938      -286.0172
  10   1.0000     -10.489526      -285.4345
  11   1.0000     -10.483066      -285.2587
  12   1.0000     -10.453650      -284.4583
  13   1.0000     -10.451124      -284.3895
  14   1.0000     -10.429993      -283.8145
  15   1.0000     -10.422073      -283.5990
  16   1.0000     -10.378341      -282.4090
  17   1.0000     -10.377124      -282.3759
  18   1.0000      -1.231342       -33.5065
  19   1.0000      -1.223210       -33.2852
  20   1.0000      -1.205452       -32.8020
  21   1.0000      -1.190622       -32.3985
  22   1.0000      -1.122618       -30.5480
  23   1.0000      -1.097530       -29.8653
  24   1.0000      -1.065427       -28.9918
  25   1.0000      -1.049980       -28.5714
  26   1.0000      -0.983247       -26.7555
  27   1.0000      -0.957967       -26.0676
  28   1.0000      -0.887665       -24.1546
  29   1.0000      -0.849718       -23.1220
  30   1.0000      -0.824848       -22.4452
  31   1.0000      -0.794431       -21.6176
  32   1.0000      -0.793602       -21.5950
  33   1.0000      -0.778446       -21.1826
  34   1.0000      -0.698630       -19.0107
  35   1.0000      -0.692847       -18.8533
  36   1.0000      -0.687028       -18.6950
  37   1.0000      -0.685931       -18.6651
  38   1.0000      -0.654935       -17.8217
  39   1.0000      -0.633068       -17.2267
  40   1.0000      -0.615575       -16.7507
  41   1.0000      -0.603920       -16.4335
  42   1.0000      -0.598023       -16.2730
  43   1.0000      -0.592422       -16.1206
  44   1.0000      -0.576126       -15.6772
  45   1.0000      -0.572089       -15.5673
  46   1.0000      -0.568702       -15.4752
  47   1.0000      -0.565317       -15.3830
  48   1.0000      -0.560837       -15.2611
  49   1.0000      -0.557942       -15.1824
  50   1.0000      -0.555870       -15.1260
  51   1.0000      -0.535753       -14.5786
  52   1.0000      -0.531689       -14.4680
  53   1.0000      -0.526795       -14.3348
  54   1.0000      -0.519324       -14.1315
  55   1.0000      -0.515992       -14.0409
  56   1.0000      -0.511523       -13.9192
  57   1.0000      -0.428061       -11.6481
  58   1.0000      -0.422378       -11.4935
  59   1.0000      -0.407901       -11.0996
  60   1.0000      -0.405376       -11.0308
  61   1.0000      -0.404959       -11.0195
  62   1.0000      -0.395632       -10.7657
  63   1.0000      -0.393974       -10.7206
  64   1.0000      -0.386719       -10.5232
  65   1.0000      -0.357004        -9.7146
  66   1.0000      -0.323873        -8.8130
  67   0.0000       0.009390         0.2555
  68   0.0000       0.028761         0.7826
  69   0.0000       0.031151         0.8477
  70   0.0000       0.032966         0.8970
  71   0.0000       0.051702         1.4069

                 SPIN DOWN ORBITALS
  NO   OCC          E(Eh)            E(eV)
   0   1.0000     -19.337200      -526.1920
   1   1.0000     -19.334688      -526.1236
   2   1.0000     -19.325960      -525.8861
   3   1.0000     -19.325354      -525.8696
   4   1.0000     -14.569561      -396.4579
   5   1.0000     -14.565165      -396.3383
   6   1.0000     -14.562427      -396.2638
   7   1.0000     -14.560886      -396.2218
   8   1.0000     -10.516399      -286.1658
   9   1.0000     -10.510973      -286.0181
  10   1.0000     -10.490495      -285.4609
  11   1.0000     -10.483939      -285.2825
  12   1.0000     -10.453217      -284.4465
  13   1.0000     -10.450746      -284.3793
  14   1.0000     -10.418265      -283.4954
  15   1.0000     -10.410362      -283.2804
  16   1.0000     -10.378867      -282.4233
  17   1.0000     -10.377598      -282.3888
  18   1.0000      -1.227377       -33.3986
  19   1.0000      -1.222256       -33.2593
  20   1.0000      -1.204540       -32.7772
  21   1.0000      -1.186903       -32.2973
  22   1.0000      -1.119875       -30.4733
  23   1.0000      -1.095528       -29.8108
  24   1.0000      -1.063480       -28.9388
  25   1.0000      -1.048659       -28.5355
  26   1.0000      -0.970562       -26.4103
  27   1.0000      -0.940148       -25.5827
  28   1.0000      -0.882319       -24.0091
  29   1.0000      -0.844599       -22.9827
  30   1.0000      -0.815209       -22.1830
  31   1.0000      -0.791801       -21.5460
  32   1.0000      -0.788383       -21.4530
  33   1.0000      -0.776987       -21.1429
  34   1.0000      -0.694133       -18.8883
  35   1.0000      -0.687432       -18.7060
  36   1.0000      -0.679867       -18.5001
  37   1.0000      -0.678962       -18.4755
  38   1.0000      -0.641432       -17.4543
  39   1.0000      -0.627508       -17.0754
  40   1.0000      -0.608532       -16.5590
  41   1.0000      -0.599988       -16.3265
  42   1.0000      -0.594986       -16.1904
  43   1.0000      -0.587776       -15.9942
  44   1.0000      -0.569060       -15.4849
  45   1.0000      -0.567366       -15.4388
  46   1.0000      -0.563018       -15.3205
  47   1.0000      -0.556406       -15.1406
  48   1.0000      -0.554335       -15.0842
  49   1.0000      -0.553003       -15.0480
  50   1.0000      -0.543564       -14.7911
  51   1.0000      -0.528596       -14.3838
  52   1.0000      -0.524403       -14.2697
  53   1.0000      -0.521036       -14.1781
  54   1.0000      -0.513007       -13.9596
  55   1.0000      -0.509226       -13.8568
  56   1.0000      -0.505342       -13.7511
  57   1.0000      -0.425492       -11.5782
  58   1.0000      -0.419801       -11.4234
  59   1.0000      -0.405435       -11.0324
  60   1.0000      -0.396260       -10.7828
  61   1.0000      -0.392317       -10.6755
  62   1.0000      -0.391000       -10.6396
  63   1.0000      -0.389879       -10.6091
  64   1.0000      -0.379901       -10.3376
  65   0.0000      -0.070092        -1.9073
  66   0.0000      -0.045920        -1.2495
  67   0.0000       0.009294         0.2529
  68   0.0000       0.028552         0.7769
  69   0.0000       0.031749         0.8639

----------------------------------------------------------------------------------------------------
          SPIN FLIP ABSORPTION SPECTRUM VIA TRANSITION ELECTRIC DIPOLE MOMENTS
----------------------------------------------------------------------------------------------------
     Transition      Energy     Energy  Wavelength fosc(D2)      D2        DX        DY        DZ
                      (eV)      (cm-1)    (nm)                 (au**2)    (au)      (au)      (au)
----------------------------------------------------------------------------------------------------
  1-3A  ->  2-3A    0.174088    1404.1  7121.9   0.000055296   0.01296   0.09123  -0.05672  -0.03775
  1-3A  ->  3-3A    2.470815   19928.5   501.8   0.015694647   0.25927  -0.37246   0.31904  -0.13695

Dispersion correction             ... done (  0.1 sec)

MULLIKEN ATOMIC CHARGES AND SPIN DENSITIES
------------------------------------------
   0 O :   -0.701676   -0.004081
   1 O :   -0.617089   -0.000082
   2 O :   -0.632763   -0.001320
   3 O :   -0.644401   -0.000262
   4 N :   -0.239903   -0.015214
   5 N :   -0.211600   -0.002064
   6 N :   -0.039584   -0.001746
   7 N :   -0.061177   -0.000777
   8 C :    0.140111    0.352737
   9 C :    0.607110    0.485003
  10 C :    0.326807   -0.214628
  11 C :    0.229718   -0.273815
  12 C :   -1.381869   -0.014751
  13 C :   -1.653119   -0.019862
  14 C :    0.425783   -0.125124
  15 C :    0.282612   -0.222645
  16 C :    0.424445    0.002801
  17 C :    0.495663    0.011728
  18 H :    0.474273    0.000258
  19 H :    0.462363   -0.002367
  20 H :    0.320782   -0.001722
  21 H :    0.362322    0.010097
  22 H :    0.302936    0.007250
  23 H :    0.278362    0.004380
  24 H :    0.374853    0.003048
  25 H :    0.319239    0.014032
  26 H :    0.080005    0.002163
  27 H :    0.073383    0.002036
  28 H :    0.125526    0.002743
  29 H :    0.076888    0.002185
Sum of atomic charges       :   -0.0000000

LOEWDIN ATOMIC CHARGES AND SPIN DENSITIES
-----------------------------------------
   0 O :    0.062230   -0.002715
   1 O :    0.126144    0.001537
   2 O :    0.102004   -0.001271
   3 O :    0.077464   -0.000203
   4 N :    0.292819   -0.001213
   5 N :    0.249775   -0.001724
   6 N :    0.273696   -0.000839
   7 N :    0.298961   -0.001355
   8 C :   -0.036213    0.002464
   9 C :    0.017020    0.018514
  10 C :   -0.135527   -0.005061
  11 C :   -0.163242   -0.003184
  12 C :    0.186713   -0.000460
  13 C :    0.236570    0.001369
  14 C :   -0.435953   -0.004075
  15 C :   -0.398864   -0.001448
  16 C :   -0.449754   -0.000345
  17 C :   -0.466115   -0.000402
  18 H :    0.097884   -0.001022
  19 H :    0.070506   -0.000246
  20 H :    0.020250    0.000025
  21 H :   -0.004110    0.000205
  22 H :   -0.008259    0.000323
  23 H :    0.025238    0.001021
  24 H :    0.021389    0.000545
  25 H :   -0.070643   -0.000078
  26 H :   -0.054904   -0.000072
  27 H :   -0.016255   -0.000175
  28 H :    0.065349   -0.000024
  29 H :    0.015827   -0.000093

  Mayer bond orders larger than 0.100000
B(  0-O , 14-C ) :   1.2861 B(  1-O , 15-C ) :   1.3840 B(  2-O , 16-C ) :   1.5234
B(  3-O , 17-C ) :   1.6299 B(  4-N ,  8-C ) :   0.3018 B(  4-N , 10-C ) :   0.2192
B(  4-N , 16-C ) :   1.0016 B(  4-N , 18-H ) :  -0.1198 B(  4-N , 26-H ) :   1.0112
B(  5-N , 10-C ) :   0.2036 B(  5-N , 11-C ) :   0.5130 B(  5-N , 17-C ) :   1.0539
B(  5-N , 27-H ) :   1.1156 B(  6-N , 13-C ) :   0.1043 B(  6-N , 14-C ) :   1.0765
B(  6-N , 16-C ) :   0.9387 B(  6-N , 28-H ) :   1.0353 B(  7-N , 15-C ) :   0.9952
B(  7-N , 17-C ) :   0.9463 B(  7-N , 29-H ) :   1.0940 B(  8-C ,  9-C ) :   0.1997
B(  8-C , 10-C ) :   0.4659 B(  8-C , 11-C ) :   0.2397 B(  8-C , 12-C ) :   0.3457
B(  8-C , 13-C ) :   0.1952 B(  8-C , 14-C ) :   0.8855 B(  8-C , 18-H ) :  -0.1453
B(  8-C , 20-H ) :  -0.1525 B(  9-C , 11-C ) :   0.7130 B(  9-C , 13-C ) :   0.3132
B(  9-C , 15-C ) :   0.5273 B(  9-C , 19-H ) :  -0.1171 B(  9-C , 25-H ) :  -0.1112
B( 10-C , 11-C ) :   0.3004 B( 10-C , 12-C ) :  -0.1129 B( 10-C , 13-C ) :  -0.1229
B( 10-C , 15-C ) :   0.1243 B( 10-C , 16-C ) :  -0.1059 B( 10-C , 18-H ) :   0.8614
B( 11-C , 12-C ) :   0.1035 B( 11-C , 13-C ) :  -0.4075 B( 11-C , 15-C ) :   0.1960
B( 11-C , 19-H ) :   0.8591 B( 12-C , 20-H ) :   1.0093 B( 12-C , 21-H ) :   0.9505
B( 12-C , 22-H ) :   0.9141 B( 13-C , 23-H ) :   1.0092 B( 13-C , 24-H ) :   0.8783
B( 13-C , 25-H ) :   0.9466

Dispersion correction           -0.057856275
FINAL SINGLE POINT ENERGY      -908.781809708911

DIPOLE MOMENT
-------------

Method             : TDA/CIS
Type of density    : Electron Density
Level              : Relaxed density
State              :   1
Multiplicity       :   3
Irrep              :   0
Energy             :     0.0000000000000000 Eh
Relativity type    :
Basis              : AO
                                X                 Y                 Z
Electronic contribution:     -9.723767874      -3.601625640      -1.761439172
Nuclear contribution   :     11.251482473       4.218134514       3.144007926
                        -----------------------------------------
Total Dipole Moment    :      1.527714598       0.616508874       1.382568754
                        -----------------------------------------
Magnitude (a.u.)       :      2.150695572
Magnitude (Debye)      :      5.466633704

Rotational constants in cm-1:             0.023873             0.010726             0.009793
Rotational constants in MHz :           715.703157           321.554994           293.594259

                             ****ORCA TERMINATED NORMALLY****
TOTAL RUN TIME: 0 days 0 hours 5 minutes 2 seconds 879 msec
