                         Program Version 6.0.0  -   RELEASE  -
|  1> ! Engrad def2-TZVPPD wB97M-D3BJ
|  2> %pal nprocs 8 end%pal nprocs 64 end
|  3> %tddft Nroots 2 Iroot 1
|  4> sf true
|  5> end
|  6> *xyz 0 3
|  7> O   3.86828067 0.37467699 -0.08506424
|  8> O   -1.52122646 1.19027113 -2.44062832
|  9> O   0.93575628 -2.94177479 -1.05637016
| 10> O   -3.64322511 -1.277388 0.70484716
| 11> N   0.20471066 -1.35498704 0.37409391
| 12> N   -1.91202395 0.07503462 1.3706976
| 13> N   2.3209846 -1.20531659 -0.66154885
| 14> N   -2.50058364 -0.08641485 -0.83435971
| 15> C   1.81730582 0.46393599 0.96506246
| 16> C   -0.79072639 1.46764119 -0.20717762
| 17> C   0.50613826 -0.20342487 1.23877339
| 18> C   -0.66554078 0.81461355 1.12795034
| 19> C   2.16939294 1.5932093 1.92070124
| 20> C   -0.03683845 2.72267976 -0.49021426
| 21> C   2.78724398 -0.10683741 0.07782721
| 22> C   -1.5849759 0.8259315 -1.25855944
| 23> C   1.12722488 -1.89212641 -0.49913569
| 24> C   -2.75116837 -0.49467591 0.46348294
| 25> H   0.52376613 -0.48528466 2.28413199
| 26> H   -0.64245772 1.5717076 1.91517405
| 27> H   3.0606221 1.24670429 2.44207691
| 28> H   2.27525469 2.5186536 1.39539184
| 29> H   1.34188851 1.74900628 2.67913973
| 30> H   -0.47946638 3.55730181 0.09814933
| 31> H   1.02377081 2.68181086 -0.32496919
| 32> H   -0.17254081 2.8874223 -1.57185075
| 33> H   -0.60086155 -1.94062288 0.6201387
| 34> H   -2.27748178 0.03713433 2.26434822
| 35> H   3.01757914 -1.62517941 -1.30126554
| 36> H   -3.02446896 -0.58805485 -1.58464418
| 37> *
| 38>
| 39>                          ****END OF INPUT****

CARTESIAN COORDINATES (ANGSTROEM)
---------------------------------
  O      3.868281    0.374677   -0.085064
  O     -1.521226    1.190271   -2.440628
  O      0.935756   -2.941775   -1.056370
  O     -3.643225   -1.277388    0.704847
  N      0.204711   -1.354987    0.374094
  N     -1.912024    0.075035    1.370698
  N      2.320985   -1.205317   -0.661549
  N     -2.500584   -0.086415   -0.834360
  C      1.817306    0.463936    0.965062
  C     -0.790726    1.467641   -0.207178
  C      0.506138   -0.203425    1.238773
  C     -0.665541    0.814614    1.127950
  C      2.169393    1.593209    1.920701
  C     -0.036838    2.722680   -0.490214
  C      2.787244   -0.106837    0.077827
  C     -1.584976    0.825932   -1.258559
  C      1.127225   -1.892126   -0.499136
  C     -2.751168   -0.494676    0.463483
  H      0.523766   -0.485285    2.284132
  H     -0.642458    1.571708    1.915174
  H      3.060622    1.246704    2.442077
  H      2.275255    2.518654    1.395392
  H      1.341889    1.749006    2.679140
  H     -0.479466    3.557302    0.098149
  H      1.023771    2.681811   -0.324969
  H     -0.172541    2.887422   -1.571851
  H     -0.600862   -1.940623    0.620139
  H     -2.277482    0.037134    2.264348
  H      3.017579   -1.625179   -1.301266
  H     -3.024469   -0.588055   -1.584644

 Total Charge           Charge          ....    0
 Multiplicity           Mult            ....    3
 Number of Electrons    NEL             ....  132
 Basis Dimension        Dim             ....  882

ORBITAL ENERGIES
----------------
                 SPIN UP ORBITALS
  NO   OCC          E(Eh)            E(eV)
   0   1.0000     -19.337948      -526.2123
   1   1.0000     -19.331159      -526.0276
   2   1.0000     -19.325674      -525.8783
   3   1.0000     -19.314802      -525.5825
   4   1.0000     -14.565805      -396.3557
   5   1.0000     -14.565380      -396.3441
   6   1.0000     -14.561302      -396.2332
   7   1.0000     -14.560357      -396.2075
   8   1.0000     -10.509706      -285.9836
   9   1.0000     -10.504593      -285.8445
  10   1.0000     -10.482415      -285.2410
  11   1.0000     -10.481692      -285.2213
  12   1.0000     -10.448962      -284.3307
  13   1.0000     -10.446353      -284.2597
  14   1.0000     -10.422640      -283.6145
  15   1.0000     -10.418214      -283.4940
  16   1.0000     -10.387497      -282.6582
  17   1.0000     -10.371668      -282.2274
  18   1.0000      -1.224848       -33.3298
  19   1.0000      -1.222668       -33.2705
  20   1.0000      -1.205564       -32.8051
  21   1.0000      -1.188675       -32.3455
  22   1.0000      -1.121764       -30.5248
  23   1.0000      -1.095995       -29.8235
  24   1.0000      -1.068627       -29.0788
  25   1.0000      -1.054124       -28.6842
  26   1.0000      -0.986537       -26.8450
  27   1.0000      -0.955214       -25.9927
  28   1.0000      -0.892549       -24.2875
  29   1.0000      -0.844000       -22.9664
  30   1.0000      -0.829568       -22.5737
  31   1.0000      -0.800628       -21.7862
  32   1.0000      -0.793221       -21.5846
  33   1.0000      -0.784148       -21.3377
  34   1.0000      -0.705731       -19.2039
  35   1.0000      -0.699069       -19.0226
  36   1.0000      -0.687776       -18.7153
  37   1.0000      -0.678289       -18.4572
  38   1.0000      -0.648636       -17.6503
  39   1.0000      -0.639521       -17.4022
  40   1.0000      -0.630478       -17.1562
  41   1.0000      -0.605433       -16.4747
  42   1.0000      -0.594291       -16.1715
  43   1.0000      -0.587664       -15.9912
  44   1.0000      -0.583627       -15.8813
  45   1.0000      -0.576643       -15.6913
  46   1.0000      -0.568752       -15.4765
  47   1.0000      -0.562800       -15.3146
  48   1.0000      -0.561112       -15.2686
  49   1.0000      -0.557889       -15.1809
  50   1.0000      -0.552164       -15.0251
  51   1.0000      -0.538033       -14.6406
  52   1.0000      -0.532523       -14.4907
  53   1.0000      -0.527612       -14.3571
  54   1.0000      -0.518845       -14.1185
  55   1.0000      -0.506426       -13.7806
  56   1.0000      -0.485916       -13.2224
  57   1.0000      -0.423502       -11.5241
  58   1.0000      -0.419313       -11.4101
  59   1.0000      -0.413295       -11.2463
  60   1.0000      -0.405814       -11.0428
  61   1.0000      -0.401302       -10.9200
  62   1.0000      -0.393644       -10.7116
  63   1.0000      -0.390254       -10.6193
  64   1.0000      -0.386700       -10.5226
  65   1.0000      -0.348260        -9.4766
  66   1.0000      -0.334974        -9.1151
  67   0.0000       0.006339         0.1725
  68   0.0000       0.028833         0.7846
  69   0.0000       0.030644         0.8339
  70   0.0000       0.034802         0.9470
  71   0.0000       0.052752         1.4355

                 SPIN DOWN ORBITALS
  NO   OCC          E(Eh)            E(eV)
   0   1.0000     -19.333895      -526.1020
   1   1.0000     -19.326755      -525.9077
   2   1.0000     -19.325498      -525.8735
   3   1.0000     -19.314784      -525.5820
   4   1.0000     -14.565363      -396.3437
   5   1.0000     -14.564563      -396.3219
   6   1.0000     -14.561342      -396.2343
   7   1.0000     -14.560105      -396.2006
   8   1.0000     -10.509739      -285.9845
   9   1.0000     -10.504633      -285.8456
  10   1.0000     -10.483371      -285.2670
  11   1.0000     -10.482812      -285.2518
  12   1.0000     -10.448733      -284.3245
  13   1.0000     -10.446069      -284.2520
  14   1.0000     -10.411090      -283.3002
  15   1.0000     -10.406571      -283.1772
  16   1.0000     -10.387983      -282.6714
  17   1.0000     -10.372185      -282.2415
  18   1.0000      -1.222600       -33.2686
  19   1.0000      -1.220136       -33.2016
  20   1.0000      -1.202959       -32.7342
  21   1.0000      -1.183132       -32.1947
  22   1.0000      -1.119330       -30.4585
  23   1.0000      -1.093842       -29.7649
  24   1.0000      -1.066638       -29.0247
  25   1.0000      -1.052765       -28.6472
  26   1.0000      -0.974310       -26.5123
  27   1.0000      -0.937441       -25.5091
  28   1.0000      -0.886433       -24.1211
  29   1.0000      -0.838800       -22.8249
  30   1.0000      -0.820799       -22.3351
  31   1.0000      -0.795650       -21.6507
  32   1.0000      -0.791020       -21.5247
  33   1.0000      -0.782786       -21.3007
  34   1.0000      -0.702011       -19.1027
  35   1.0000      -0.692855       -18.8535
  36   1.0000      -0.681157       -18.5352
  37   1.0000      -0.671815       -18.2810
  38   1.0000      -0.637731       -17.3536
  39   1.0000      -0.635570       -17.2947
  40   1.0000      -0.622332       -16.9345
  41   1.0000      -0.600377       -16.3371
  42   1.0000      -0.586201       -15.9513
  43   1.0000      -0.582296       -15.8451
  44   1.0000      -0.576560       -15.6890
  45   1.0000      -0.569245       -15.4899
  46   1.0000      -0.562987       -15.3197
  47   1.0000      -0.558047       -15.1852
  48   1.0000      -0.554834       -15.0978
  49   1.0000      -0.550378       -14.9765
  50   1.0000      -0.546273       -14.8648
  51   1.0000      -0.528765       -14.3884
  52   1.0000      -0.523016       -14.2320
  53   1.0000      -0.522696       -14.2233
  54   1.0000      -0.509363       -13.8605
  55   1.0000      -0.502079       -13.6623
  56   1.0000      -0.480810       -13.0835
  57   1.0000      -0.419308       -11.4100
  58   1.0000      -0.415725       -11.3125
  59   1.0000      -0.404978       -11.0200
  60   1.0000      -0.393844       -10.7170
  61   1.0000      -0.392502       -10.6805
  62   1.0000      -0.388285       -10.5658
  63   1.0000      -0.386437       -10.5155
  64   1.0000      -0.379631       -10.3303
  65   0.0000      -0.059365        -1.6154
  66   0.0000      -0.054306        -1.4777
  67   0.0000       0.006131         0.1668
  68   0.0000       0.028683         0.7805
  69   0.0000       0.030289         0.8242

----------------------------------------------------------------------------------------------------
          SPIN FLIP ABSORPTION SPECTRUM VIA TRANSITION ELECTRIC DIPOLE MOMENTS
----------------------------------------------------------------------------------------------------
     Transition      Energy     Energy  Wavelength fosc(D2)      D2        DX        DY        DZ
                      (eV)      (cm-1)    (nm)                 (au**2)    (au)      (au)      (au)
----------------------------------------------------------------------------------------------------
  1-3A  ->  2-3A    0.023625     190.5  52481.2   0.000000018   0.00003  -0.00554  -0.00036   0.00070

Dispersion correction             ... done (  0.1 sec)

MULLIKEN ATOMIC CHARGES AND SPIN DENSITIES
------------------------------------------
   0 O :   -0.649510   -0.156642
   1 O :   -0.687114    0.159159
   2 O :   -0.656612   -0.001893
   3 O :   -0.649504    0.004180
   4 N :   -0.174302    0.000213
   5 N :   -0.210478    0.009020
   6 N :   -0.075262   -0.038853
   7 N :   -0.044065    0.020513
   8 C :    1.187126    0.410692
   9 C :   -0.285793    0.365829
  10 C :   -0.314584   -0.513496
  11 C :    0.540473    0.063960
  12 C :   -1.180592    0.074219
  13 C :   -1.259746    0.058867
  14 C :   -0.191568   -0.592074
  15 C :    0.560771    0.129150
  16 C :    0.508943    0.042536
  17 C :    0.463492   -0.006802
  18 H :    0.387864   -0.063908
  19 H :    0.712504    0.018444
  20 H :    0.403847   -0.005417
  21 H :    0.271528   -0.000670
  22 H :    0.296982   -0.006250
  23 H :    0.304710    0.016834
  24 H :    0.236077   -0.004474
  25 H :    0.323333    0.006697
  26 H :    0.058438    0.002949
  27 H :   -0.043745    0.000908
  28 H :    0.089521    0.008944
  29 H :    0.077262   -0.002636
Sum of atomic charges       :   -0.0000000

LOEWDIN ATOMIC CHARGES AND SPIN DENSITIES
-----------------------------------------
   0 O :    0.105141   -0.131380
   1 O :    0.073070    0.142927
   2 O :    0.090631   -0.001196
   3 O :    0.092245    0.003934
   4 N :    0.289461    0.003857
   5 N :    0.295906    0.004600
   6 N :    0.315861   -0.034936
   7 N :    0.302391    0.017235
   8 C :   -0.001075   -0.490801
   9 C :   -0.008338    0.512172
  10 C :   -0.109476   -0.041881
  11 C :   -0.103382    0.036129
  12 C :    0.199718   -0.056190
  13 C :    0.203860    0.066704
  14 C :   -0.449912   -0.095917
  15 C :   -0.388113    0.075824
  16 C :   -0.483623   -0.000771
  17 C :   -0.501089    0.000853
  18 H :    0.053071   -0.020169
  19 H :    0.049953    0.005643
  20 H :    0.010082   -0.014728
  21 H :   -0.020896   -0.013118
  22 H :    0.023369    0.000491
  23 H :    0.027731    0.022679
  24 H :   -0.032413    0.011115
  25 H :    0.001039   -0.001851
  26 H :   -0.010895    0.000178
  27 H :   -0.077314    0.000050
  28 H :    0.017176   -0.002537
  29 H :    0.035821    0.001084

  Mayer bond orders larger than 0.100000
B(  0-O ,  8-C ) :   0.1110 B(  0-O , 12-C ) :   0.1071 B(  0-O , 14-C ) :   1.3394
B(  1-O , 15-C ) :   1.2649 B(  2-O , 16-C ) :   1.5766 B(  3-O , 17-C ) :   1.6119
B(  4-N , 10-C ) :   0.7836 B(  4-N , 16-C ) :   1.0717 B(  4-N , 26-H ) :   1.1055
B(  5-N ,  9-C ) :   0.1832 B(  5-N , 10-C ) :   0.2159 B(  5-N , 11-C ) :   0.2396
B(  5-N , 17-C ) :   1.1013 B(  5-N , 27-H ) :   1.2105 B(  6-N , 14-C ) :   1.0455
B(  6-N , 16-C ) :   0.9376 B(  6-N , 28-H ) :   1.0857 B(  7-N , 15-C ) :   1.0586
B(  7-N , 17-C ) :   0.9378 B(  7-N , 29-H ) :   1.0741 B(  8-C , 10-C ) :   0.4648
B(  8-C , 11-C ) :   0.1628 B(  8-C , 12-C ) :   0.4705 B(  8-C , 14-C ) :   0.1012
B(  8-C , 22-H ) :  -0.1577 B(  9-C , 10-C ) :   0.2498 B(  9-C , 11-C ) :  -0.4328
B(  9-C , 13-C ) :   0.6100 B(  9-C , 15-C ) :   0.9152 B(  9-C , 19-H ) :  -0.3188
B(  9-C , 25-H ) :  -0.1155 B( 10-C , 11-C ) :   0.7622 B( 10-C , 12-C ) :  -0.1717
B( 10-C , 14-C ) :   0.4214 B( 10-C , 16-C ) :  -0.1073 B( 10-C , 18-H ) :   0.8679
B( 11-C , 12-C ) :   0.1055 B( 11-C , 13-C ) :  -0.1034 B( 11-C , 15-C ) :  -0.1019
B( 11-C , 17-C ) :  -0.1375 B( 11-C , 19-H ) :   0.7204 B( 12-C , 14-C ) :   0.1146
B( 12-C , 20-H ) :   0.8636 B( 12-C , 21-H ) :   0.8819 B( 12-C , 22-H ) :   1.0886
B( 13-C , 23-H ) :   0.9343 B( 13-C , 24-H ) :   0.8808 B( 13-C , 25-H ) :   1.0546

Dispersion correction           -0.057496831
FINAL SINGLE POINT ENERGY      -908.789045713523

DIPOLE MOMENT
-------------

Method             : TDA/CIS
Type of density    : Electron Density
Level              : Relaxed density
State              :   1
Multiplicity       :   3
Irrep              :   0
Energy             :     0.0000000000000000 Eh
Relativity type    :
Basis              : AO
                                X                 Y                 Z
Electronic contribution:     -3.539429788      -9.506735541      -5.659694636
Nuclear contribution   :      3.651790760      11.038729338       8.029331245
                        -----------------------------------------
Total Dipole Moment    :      0.112360972       1.531993798       2.369636609
                        -----------------------------------------
Magnitude (a.u.)       :      2.823970191
Magnitude (Debye)      :      7.177961784

Rotational constants in cm-1:             0.020799             0.011910             0.010493
Rotational constants in MHz :           623.539542           357.048017           314.570484

                             ****ORCA TERMINATED NORMALLY****
TOTAL RUN TIME: 0 days 0 hours 4 minutes 27 seconds 540 msec
