                         Program Version 6.0.0  -   RELEASE  -
|  1> ! Opt wB97M-D3BJ def2-TZVPPD
|  2> %pal nprocs 8 end %pal nprocs 64 end
|  3> %geom
|  4> Constraints
|  5>     {A 2 1 0 74.54545454545455 C }
|  6> end
|  7> MaxIter 500
|  8> end
|  9> *xyz 0 1
| 10> O   -0.0007 0.8141 0.0
| 11> C   0.7509 -0.4065 0.0
| 12> C   -0.7502 -0.4076 0.0
| 13> H   1.2625 -0.6786 0.9136
| 14> H   1.2625 -0.6787 -0.9136
| 15> H   -1.2614 -0.6806 -0.9136
| 16> H   -1.2614 -0.6805 0.9136
| 17> *
| 18>
| 19>                          ****END OF INPUT****
 Total Charge           Charge          ....    0
 Multiplicity           Mult            ....    1
 Number of Electrons    NEL             ....   24
Dispersion correction           -0.005285376
FINAL SINGLE POINT ENERGY      -153.858200372090
Dispersion correction             ... done (  0.1 sec)
Dispersion correction           -0.005255617
FINAL SINGLE POINT ENERGY      -153.863566007590
Dispersion correction             ... done (  0.2 sec)
Dispersion correction           -0.005245992
FINAL SINGLE POINT ENERGY      -153.865320798456
Dispersion correction             ... done (  0.2 sec)
FINAL SINGLE POINT ENERGY      -153.865585118140
FINAL SINGLE POINT ENERGY      -153.865677232209
Dispersion correction             ... done (  0.1 sec)
Dispersion correction           -0.005252659
FINAL SINGLE POINT ENERGY      -153.865696021433
Dispersion correction             ... done (  0.1 sec)
Dispersion correction           -0.005253528
FINAL SINGLE POINT ENERGY      -153.865699357627
Dispersion correction             ... done (  0.1 sec)
                    ***********************HURRAY********************

CARTESIAN COORDINATES (ANGSTROEM)
---------------------------------
  O      0.133807    0.873701   -0.000255
  C      0.674316   -0.372541    0.000126
  C     -0.729278   -0.569612   -0.000153
  H      1.227909   -0.650782    0.898670
  H      1.227533   -0.650962   -0.898651
  H     -1.266340   -0.674955   -0.927415
  H     -1.265746   -0.673250    0.927678

 Multiplicity           Mult            ....    1
 Number of Electrons    NEL             ....   24
 Basis Dimension        Dim             ....  182

ORBITAL ENERGIES
----------------

  NO   OCC          E(Eh)            E(eV)
   0   2.0000     -19.346421      -526.4429
   1   2.0000     -10.410894      -283.2948
   2   2.0000     -10.396574      -282.9052
   3   2.0000      -1.174735       -31.9662
   4   2.0000      -0.837242       -22.7825
   5   2.0000      -0.742128       -20.1943
   6   2.0000      -0.628275       -17.0962
   7   2.0000      -0.589409       -16.0386
   8   2.0000      -0.501691       -13.6517
   9   2.0000      -0.496498       -13.5104
  10   2.0000      -0.415203       -11.2982
  11   2.0000      -0.376321       -10.2402
  12   0.0000       0.037711         1.0262
  13   0.0000       0.053443         1.4543
  14   0.0000       0.062103         1.6899
  15   0.0000       0.077021         2.0959
  16   0.0000       0.106553         2.8994

MULLIKEN ATOMIC CHARGES
-----------------------
   0 O :   -0.420867
   1 C :   -0.106615
   2 C :   -0.270438
   3 H :    0.201281
   4 H :    0.201222
   5 H :    0.197639
   6 H :    0.197778
Sum of atomic charges:   -0.0000000

LOEWDIN ATOMIC CHARGES
----------------------
   0 O :   -0.026735
   1 C :   -0.218067
   2 C :    0.197800
   3 H :    0.023610
   4 H :    0.023610
   5 H :   -0.000099
   6 H :   -0.000120

  Mayer bond orders larger than 0.100000
B(  0-O ,  1-C ) :   0.7152 B(  0-O ,  2-C ) :   0.9117 B(  1-C ,  2-C ) :   0.7912
B(  1-C ,  3-H ) :   1.0476 B(  1-C ,  4-H ) :   1.0475 B(  2-C ,  5-H ) :   0.9811
B(  2-C ,  6-H ) :   0.9811

Dispersion correction           -0.005253737
FINAL SINGLE POINT ENERGY      -153.865700173353

DIPOLE MOMENT
-------------

Method             : SCF
Type of density    : Electron Density
Multiplicity       :   1
Irrep              :   0
Energy             :  -153.8604464362537385 Eh
Relativity type    :
Basis              : AO
                                X                 Y                 Z
Electronic contribution:      0.019222978       1.532328223      -0.000460219
Nuclear contribution   :     -0.189946398      -2.472427383       0.000614308
                        -----------------------------------------
Total Dipole Moment    :     -0.170723421      -0.940099159       0.000154088
                        -----------------------------------------
Magnitude (a.u.)       :      0.955475243
Magnitude (Debye)      :      2.428625061

Rotational constants in cm-1:             0.920174             0.640650             0.444695
Rotational constants in MHz :         27586.116016         19206.197521         13331.625794

                             ****ORCA TERMINATED NORMALLY****
TOTAL RUN TIME: 0 days 0 hours 1 minutes 47 seconds 726 msec
