                         Program Version 6.0.0  -   RELEASE  -
|  1> ! Engrad def2-TZVPPD wB97M-D3BJ
|  2> %pal nprocs 8 end%pal nprocs 64 end
|  3> %tddft
|  4>  Iroot 2 Nroots 3
|  5> sf true
|  6> end
|  7> *xyz 0 3
|  8> O   2.7218773 -0.99063668 -2.23695013
|  9> O   -2.31343133 1.53352691 -1.37175719
| 10> O   -1.34537408 -2.60933658 -1.14110579
| 11> O   -2.2827566 1.01169986 3.09815225
| 12> N   -0.05068615 -1.69463867 0.47302285
| 13> N   -0.27756043 0.88972265 2.11813569
| 14> N   0.51433635 -1.54256746 -1.76069605
| 15> N   -2.2151536 1.17509311 0.86624172
| 16> C   2.09020438 -0.76200223 -0.11885699
| 17> C   -0.1875981 1.27023075 -0.29402452
| 18> C   0.97443148 -0.73762877 0.79629522
| 19> C   0.51524437 0.73621999 0.93086434
| 20> C   3.40525108 -0.20696732 0.28871223
| 21> C   0.44363872 1.8268225 -1.49480695
| 22> C   1.80082686 -1.09516404 -1.4726772
| 23> C   -1.65996498 1.37200321 -0.33937588
| 24> C   -0.34686668 -1.99001187 -0.82703847
| 25> C   -1.60462411 1.01731634 2.11464991
| 26> H   1.38868181 -0.98791602 1.77432826
| 27> H   1.50459533 1.19909136 1.01174734
| 28> H   3.34591319 -0.0951138 1.37545406
| 29> H   4.23714548 -0.89526782 -0.07302794
| 30> H   3.59675281 0.71779976 -0.19883895
| 31> H   -0.25979401 2.42489544 -1.95889489
| 32> H   1.29200975 2.39065442 -1.12022155
| 33> H   0.95048833 1.1304865 -2.184636
| 34> H   -0.57277774 -2.16260534 1.16545449
| 35> H   0.16233179 0.60000452 2.93763265
| 36> H   0.28973671 -1.56564763 -2.77582014
| 37> H   -3.20122076 1.37270553 0.83825171
| 38> *
| 39>
| 40>                          ****END OF INPUT****

CARTESIAN COORDINATES (ANGSTROEM)
---------------------------------
  O      2.721877   -0.990637   -2.236950
  O     -2.313431    1.533527   -1.371757
  O     -1.345374   -2.609337   -1.141106
  O     -2.282757    1.011700    3.098152
  N     -0.050686   -1.694639    0.473023
  N     -0.277560    0.889723    2.118136
  N      0.514336   -1.542567   -1.760696
  N     -2.215154    1.175093    0.866242
  C      2.090204   -0.762002   -0.118857
  C     -0.187598    1.270231   -0.294025
  C      0.974431   -0.737629    0.796295
  C      0.515244    0.736220    0.930864
  C      3.405251   -0.206967    0.288712
  C      0.443639    1.826822   -1.494807
  C      1.800827   -1.095164   -1.472677
  C     -1.659965    1.372003   -0.339376
  C     -0.346867   -1.990012   -0.827038
  C     -1.604624    1.017316    2.114650
  H      1.388682   -0.987916    1.774328
  H      1.504595    1.199091    1.011747
  H      3.345913   -0.095114    1.375454
  H      4.237145   -0.895268   -0.073028
  H      3.596753    0.717800   -0.198839
  H     -0.259794    2.424895   -1.958895
  H      1.292010    2.390654   -1.120222
  H      0.950488    1.130486   -2.184636
  H     -0.572778   -2.162605    1.165454
  H      0.162332    0.600005    2.937633
  H      0.289737   -1.565648   -2.775820
  H     -3.201221    1.372706    0.838252

 Total Charge           Charge          ....    0
 Multiplicity           Mult            ....    3
 Number of Electrons    NEL             ....  132
 Basis Dimension        Dim             ....  882

ORBITAL ENERGIES
----------------
                 SPIN UP ORBITALS
  NO   OCC          E(Eh)            E(eV)
   0   1.0000     -19.340106      -526.2710
   1   1.0000     -19.327220      -525.9204
   2   1.0000     -19.319241      -525.7033
   3   1.0000     -19.309823      -525.4470
   4   1.0000     -14.571641      -396.5145
   5   1.0000     -14.567130      -396.3918
   6   1.0000     -14.561433      -396.2367
   7   1.0000     -14.559189      -396.1757
   8   1.0000     -10.507757      -285.9306
   9   1.0000     -10.501395      -285.7575
  10   1.0000     -10.479179      -285.1530
  11   1.0000     -10.474899      -285.0365
  12   1.0000     -10.447052      -284.2787
  13   1.0000     -10.437916      -284.0301
  14   1.0000     -10.414179      -283.3842
  15   1.0000     -10.410648      -283.2881
  16   1.0000     -10.385575      -282.6059
  17   1.0000     -10.360518      -281.9240
  18   1.0000      -1.230686       -33.4887
  19   1.0000      -1.228065       -33.4173
  20   1.0000      -1.203805       -32.7572
  21   1.0000      -1.190340       -32.3908
  22   1.0000      -1.128543       -30.7092
  23   1.0000      -1.107365       -30.1329
  24   1.0000      -1.077519       -29.3208
  25   1.0000      -1.068916       -29.0867
  26   1.0000      -0.995080       -27.0775
  27   1.0000      -0.959200       -26.1012
  28   1.0000      -0.897124       -24.4120
  29   1.0000      -0.850766       -23.1505
  30   1.0000      -0.826907       -22.5013
  31   1.0000      -0.806405       -21.9434
  32   1.0000      -0.804663       -21.8960
  33   1.0000      -0.795118       -21.6363
  34   1.0000      -0.713639       -19.4191
  35   1.0000      -0.703853       -19.1528
  36   1.0000      -0.697900       -18.9908
  37   1.0000      -0.686463       -18.6796
  38   1.0000      -0.662943       -18.0396
  39   1.0000      -0.649551       -17.6752
  40   1.0000      -0.628093       -17.0913
  41   1.0000      -0.614554       -16.7229
  42   1.0000      -0.606147       -16.4941
  43   1.0000      -0.590776       -16.0758
  44   1.0000      -0.578543       -15.7430
  45   1.0000      -0.573441       -15.6041
  46   1.0000      -0.571601       -15.5541
  47   1.0000      -0.565647       -15.3920
  48   1.0000      -0.557680       -15.1752
  49   1.0000      -0.555154       -15.1065
  50   1.0000      -0.552775       -15.0418
  51   1.0000      -0.535342       -14.5674
  52   1.0000      -0.529514       -14.4088
  53   1.0000      -0.524278       -14.2663
  54   1.0000      -0.519359       -14.1325
  55   1.0000      -0.512013       -13.9326
  56   1.0000      -0.500840       -13.6285
  57   1.0000      -0.422968       -11.5096
  58   1.0000      -0.417816       -11.3693
  59   1.0000      -0.415466       -11.3054
  60   1.0000      -0.405323       -11.0294
  61   1.0000      -0.401967       -10.9381
  62   1.0000      -0.391559       -10.6549
  63   1.0000      -0.389813       -10.6074
  64   1.0000      -0.380533       -10.3548
  65   1.0000      -0.348483        -9.4827
  66   1.0000      -0.322956        -8.7881
  67   0.0000       0.005983         0.1628
  68   0.0000       0.027393         0.7454
  69   0.0000       0.033540         0.9127
  70   0.0000       0.034667         0.9433
  71   0.0000       0.053188         1.4473

                 SPIN DOWN ORBITALS
  NO   OCC          E(Eh)            E(eV)
   0   1.0000     -19.335267      -526.1394
   1   1.0000     -19.323975      -525.8321
   2   1.0000     -19.319072      -525.6987
   3   1.0000     -19.309692      -525.4434
   4   1.0000     -14.571091      -396.4995
   5   1.0000     -14.566787      -396.3824
   6   1.0000     -14.560618      -396.2146
   7   1.0000     -14.559125      -396.1739
   8   1.0000     -10.507804      -285.9319
   9   1.0000     -10.501429      -285.7584
  10   1.0000     -10.480128      -285.1788
  11   1.0000     -10.475838      -285.0621
  12   1.0000     -10.446553      -284.2652
  13   1.0000     -10.437466      -284.0179
  14   1.0000     -10.402632      -283.0700
  15   1.0000     -10.399582      -282.9870
  16   1.0000     -10.386147      -282.6214
  17   1.0000     -10.361133      -281.9408
  18   1.0000      -1.229604       -33.4592
  19   1.0000      -1.223980       -33.3062
  20   1.0000      -1.200299       -32.6618
  21   1.0000      -1.186090       -32.2751
  22   1.0000      -1.126096       -30.6426
  23   1.0000      -1.105351       -30.0781
  24   1.0000      -1.075337       -29.2614
  25   1.0000      -1.067395       -29.0453
  26   1.0000      -0.983157       -26.7531
  27   1.0000      -0.942152       -25.6373
  28   1.0000      -0.890648       -24.2358
  29   1.0000      -0.845187       -22.9987
  30   1.0000      -0.818428       -22.2705
  31   1.0000      -0.805072       -21.9071
  32   1.0000      -0.800013       -21.7695
  33   1.0000      -0.793214       -21.5844
  34   1.0000      -0.708856       -19.2890
  35   1.0000      -0.699244       -19.0274
  36   1.0000      -0.692302       -18.8385
  37   1.0000      -0.678477       -18.4623
  38   1.0000      -0.653628       -17.7861
  39   1.0000      -0.643486       -17.5102
  40   1.0000      -0.623991       -16.9797
  41   1.0000      -0.607130       -16.5208
  42   1.0000      -0.598054       -16.2739
  43   1.0000      -0.584789       -15.9129
  44   1.0000      -0.572818       -15.5872
  45   1.0000      -0.568066       -15.4579
  46   1.0000      -0.564852       -15.3704
  47   1.0000      -0.558253       -15.1908
  48   1.0000      -0.551896       -15.0178
  49   1.0000      -0.548293       -14.9198
  50   1.0000      -0.542013       -14.7489
  51   1.0000      -0.529678       -14.4133
  52   1.0000      -0.521272       -14.1845
  53   1.0000      -0.518120       -14.0988
  54   1.0000      -0.512153       -13.9364
  55   1.0000      -0.500724       -13.6254
  56   1.0000      -0.494986       -13.4692
  57   1.0000      -0.418674       -11.3927
  58   1.0000      -0.412829       -11.2337
  59   1.0000      -0.408613       -11.1189
  60   1.0000      -0.393876       -10.7179
  61   1.0000      -0.391044       -10.6409
  62   1.0000      -0.387794       -10.5524
  63   1.0000      -0.384661       -10.4672
  64   1.0000      -0.374827       -10.1996
  65   0.0000      -0.064059        -1.7431
  66   0.0000      -0.045593        -1.2407
  67   0.0000       0.005645         0.1536
  68   0.0000       0.026838         0.7303
  69   0.0000       0.033078         0.9001

----------------------------------------------------------------------------------------------------
          SPIN FLIP ABSORPTION SPECTRUM VIA TRANSITION ELECTRIC DIPOLE MOMENTS
----------------------------------------------------------------------------------------------------
     Transition      Energy     Energy  Wavelength fosc(D2)      D2        DX        DY        DZ
                      (eV)      (cm-1)    (nm)                 (au**2)    (au)      (au)      (au)
----------------------------------------------------------------------------------------------------
  1-3A  ->  2-3A    0.093880     757.2  13206.6   0.000029784   0.01295   0.08174  -0.05085  -0.06068
  1-3A  ->  3-3A    2.181938   17598.5   568.2   0.002131507   0.03987  -0.15515   0.05402   0.11351

Dispersion correction             ... done (  0.1 sec)

MULLIKEN ATOMIC CHARGES AND SPIN DENSITIES
------------------------------------------
   0 O :   -0.634758    0.023241
   1 O :   -0.714861   -0.017468
   2 O :   -0.683845    0.000352
   3 O :   -0.645633   -0.000248
   4 N :   -0.188318   -0.002977
   5 N :   -0.195990    0.001847
   6 N :    0.055305    0.001026
   7 N :   -0.045635   -0.006281
   8 C :    0.688848    0.318247
   9 C :    0.606471    0.424683
  10 C :    0.207815   -0.130093
  11 C :    0.261265   -0.307709
  12 C :   -1.594026    0.000863
  13 C :   -1.353463   -0.026613
  14 C :   -0.134104   -0.117311
  15 C :    0.121576   -0.215257
  16 C :    0.399879    0.004302
  17 C :    0.409375    0.016339
  18 H :    0.621227    0.000567
  19 H :    0.656167   -0.015020
  20 H :    0.364220    0.001663
  21 H :    0.385525    0.004746
  22 H :    0.340694    0.011258
  23 H :    0.378494   -0.003462
  24 H :    0.333981    0.014895
  25 H :    0.232418    0.016496
  26 H :   -0.014834   -0.001349
  27 H :    0.009783    0.002244
  28 H :    0.091411   -0.001780
  29 H :    0.041013    0.002796
Sum of atomic charges       :   -0.0000000

LOEWDIN ATOMIC CHARGES AND SPIN DENSITIES
-----------------------------------------
   0 O :    0.106829    0.020343
   1 O :    0.077133   -0.015296
   2 O :    0.084989    0.000239
   3 O :    0.106851   -0.000315
   4 N :    0.322976   -0.000315
   5 N :    0.313795   -0.000147
   6 N :    0.326269   -0.001478
   7 N :    0.330985   -0.006008
   8 C :   -0.057494    0.068744
   9 C :    0.029616   -0.054939
  10 C :   -0.147891    0.003725
  11 C :   -0.095377   -0.003764
  12 C :    0.197687    0.008759
  13 C :    0.212907   -0.011105
  14 C :   -0.447642    0.006603
  15 C :   -0.417399   -0.013317
  16 C :   -0.503914   -0.000503
  17 C :   -0.493646   -0.000357
  18 H :    0.056061    0.000554
  19 H :    0.043293   -0.000861
  20 H :    0.001077   -0.000147
  21 H :    0.052707    0.002551
  22 H :   -0.013936    0.002732
  23 H :   -0.042543   -0.000361
  24 H :    0.008022   -0.001495
  25 H :    0.013624   -0.003349
  26 H :   -0.041489    0.000053
  27 H :   -0.055638    0.000037
  28 H :    0.039284   -0.000139
  29 H :   -0.007134   -0.000445

  Mayer bond orders larger than 0.100000
B(  0-O , 14-C ) :   1.4666 B(  1-O , 15-C ) :   1.4077 B(  2-O , 16-C ) :   1.5167
B(  3-O , 17-C ) :   1.6245 B(  4-N ,  8-C ) :   0.2521 B(  4-N , 10-C ) :   0.1971
B(  4-N , 16-C ) :   1.1840 B(  4-N , 26-H ) :   1.1410 B(  5-N ,  9-C ) :   0.1142
B(  5-N , 10-C ) :   0.1203 B(  5-N , 11-C ) :   0.3494 B(  5-N , 17-C ) :   1.1812
B(  5-N , 19-H ) :  -0.1208 B(  5-N , 27-H ) :   1.1591 B(  6-N ,  8-C ) :  -0.1450
B(  6-N , 14-C ) :   1.0432 B(  6-N , 16-C ) :   0.9894 B(  6-N , 28-H ) :   1.0853
B(  7-N , 15-C ) :   1.0552 B(  7-N , 17-C ) :   0.9557 B(  7-N , 29-H ) :   1.1137
B(  8-C , 10-C ) :   0.5059 B(  8-C , 11-C ) :   0.3459 B(  8-C , 12-C ) :   0.1011
B(  8-C , 14-C ) :   0.6764 B(  8-C , 16-C ) :   0.1333 B(  8-C , 18-H ) :  -0.1305
B(  8-C , 20-H ) :  -0.1881 B(  9-C , 10-C ) :   0.2420 B(  9-C , 11-C ) :   0.3999
B(  9-C , 13-C ) :   0.3700 B(  9-C , 15-C ) :   0.5352 B(  9-C , 19-H ) :  -0.1588
B( 10-C , 11-C ) :   0.3632 B( 10-C , 14-C ) :  -0.1718 B( 10-C , 16-C ) :  -0.2418
B( 10-C , 18-H ) :   0.7247 B( 10-C , 19-H ) :  -0.1359 B( 11-C , 13-C ) :  -0.1843
B( 11-C , 17-C ) :  -0.2129 B( 11-C , 19-H ) :   0.6687 B( 12-C , 20-H ) :   1.1072
B( 12-C , 21-H ) :   0.8808 B( 12-C , 22-H ) :   0.8650 B( 13-C , 23-H ) :   0.8701
B( 13-C , 24-H ) :   0.9857 B( 13-C , 25-H ) :   0.9244 B( 14-C , 16-C ) :  -0.1253

Dispersion correction           -0.059182754
FINAL SINGLE POINT ENERGY      -908.772533870399

DIPOLE MOMENT
-------------

Method             : TDA/CIS
Type of density    : Electron Density
Level              : Relaxed density
State              :   2
Multiplicity       :   3
Irrep              :   0
Energy             :     0.0000000000000000 Eh
Relativity type    :
Basis              : AO
                                X                 Y                 Z
Electronic contribution:     -9.657822549      -3.862593464       0.251949648
Nuclear contribution   :     11.971925595       4.388933214       1.035865455
                        -----------------------------------------
Total Dipole Moment    :      2.314103046       0.526339750       1.287815103
                        -----------------------------------------
Magnitude (a.u.)       :      2.700106328
Magnitude (Debye)      :      6.863124863

Rotational constants in cm-1:             0.022003             0.012102             0.011318
Rotational constants in MHz :           659.630735           362.817128           339.306621

                             ****ORCA TERMINATED NORMALLY****
TOTAL RUN TIME: 0 days 0 hours 8 minutes 36 seconds 306 msec
