                         Program Version 6.0.0  -   RELEASE  -
|  1> ! Engrad def2-TZVPPD wB97M-D3BJ
|  2> %pal nprocs 8 end%pal nprocs 64 end
|  3> %tddft
|  4>  Iroot 1 Nroots 3
|  5> sf true
|  6> end
|  7> *xyz 0 3
|  8> O   3.56376232 0.36405629 0.51865651
|  9> O   -0.851353 0.89190391 -2.90003156
| 10> O   0.63738269 -2.79084142 -1.03455943
| 11> O   -3.83295668 -0.76363844 -0.02587952
| 12> N   -0.03141771 -1.46215218 0.67974087
| 13> N   -2.1649926 0.52016702 0.84910562
| 14> N   2.14704044 -1.2515368 -0.16832018
| 15> N   -2.08071837 -0.26021112 -1.3996786
| 16> C   1.47474147 0.2587574 1.54994557
| 17> C   -0.39304215 1.24873298 -0.57225715
| 18> C   0.11240453 -0.19079681 1.38101724
| 19> C   -0.8068834 0.9830173 0.7959471
| 20> C   1.87042383 1.31751023 2.47038507
| 21> C   0.75940766 2.20694089 -0.76032739
| 22> C   2.50164026 -0.24394417 0.66158009
| 23> C   -1.10099547 0.67638443 -1.71480671
| 24> C   0.88436786 -1.92520289 -0.22597703
| 25> C   -2.77522781 -0.18447182 -0.15827521
| 26> H   -0.31615646 -0.26355399 2.39551026
| 27> H   -0.6274596 1.88968946 1.34171184
| 28> H   2.32913384 2.07811293 1.93792267
| 29> H   1.00622295 1.62491903 3.07691492
| 30> H   2.58813021 0.88805634 3.10615982
| 31> H   1.73486365 1.65847098 -0.84370966
| 32> H   0.50205057 2.8700151 -1.5427518
| 33> H   0.9237847 2.77711469 0.07850012
| 34> H   -0.9412308 -1.87772544 0.59132995
| 35> H   -2.57234439 0.37697898 1.76892288
| 36> H   2.86575119 -1.48761877 -0.85663125
| 37> H   -2.63642221 -0.47331772 -2.22068618
| 38> *
| 39>
| 40>                          ****END OF INPUT****

CARTESIAN COORDINATES (ANGSTROEM)
---------------------------------
  O      3.563762    0.364056    0.518657
  O     -0.851353    0.891904   -2.900032
  O      0.637383   -2.790841   -1.034559
  O     -3.832957   -0.763638   -0.025880
  N     -0.031418   -1.462152    0.679741
  N     -2.164993    0.520167    0.849106
  N      2.147040   -1.251537   -0.168320
  N     -2.080718   -0.260211   -1.399679
  C      1.474741    0.258757    1.549946
  C     -0.393042    1.248733   -0.572257
  C      0.112405   -0.190797    1.381017
  C     -0.806883    0.983017    0.795947
  C      1.870424    1.317510    2.470385
  C      0.759408    2.206941   -0.760327
  C      2.501640   -0.243944    0.661580
  C     -1.100995    0.676384   -1.714807
  C      0.884368   -1.925203   -0.225977
  C     -2.775228   -0.184472   -0.158275
  H     -0.316156   -0.263554    2.395510
  H     -0.627460    1.889689    1.341712
  H      2.329134    2.078113    1.937923
  H      1.006223    1.624919    3.076915
  H      2.588130    0.888056    3.106160
  H      1.734864    1.658471   -0.843710
  H      0.502051    2.870015   -1.542752
  H      0.923785    2.777115    0.078500
  H     -0.941231   -1.877725    0.591330
  H     -2.572344    0.376979    1.768923
  H      2.865751   -1.487619   -0.856631
  H     -2.636422   -0.473318   -2.220686

 Total Charge           Charge          ....    0
 Multiplicity           Mult            ....    3
 Number of Electrons    NEL             ....  132
 Basis Dimension        Dim             ....  882

ORBITAL ENERGIES
----------------
                 SPIN UP ORBITALS
  NO   OCC          E(Eh)            E(eV)
   0   1.0000     -19.333107      -526.0806
   1   1.0000     -19.330916      -526.0210
   2   1.0000     -19.327616      -525.9312
   3   1.0000     -19.326643      -525.9047
   4   1.0000     -14.573255      -396.5584
   5   1.0000     -14.569744      -396.4629
   6   1.0000     -14.568194      -396.4207
   7   1.0000     -14.562938      -396.2777
   8   1.0000     -10.515641      -286.1452
   9   1.0000     -10.514743      -286.1207
  10   1.0000     -10.479999      -285.1753
  11   1.0000     -10.478556      -285.1360
  12   1.0000     -10.449874      -284.3555
  13   1.0000     -10.445896      -284.2473
  14   1.0000     -10.418731      -283.5081
  15   1.0000     -10.412868      -283.3485
  16   1.0000     -10.370020      -282.1826
  17   1.0000     -10.366180      -282.0781
  18   1.0000      -1.222475       -33.2652
  19   1.0000      -1.219080       -33.1729
  20   1.0000      -1.195501       -32.5312
  21   1.0000      -1.192096       -32.4386
  22   1.0000      -1.126478       -30.6530
  23   1.0000      -1.102168       -29.9915
  24   1.0000      -1.066481       -29.0204
  25   1.0000      -1.059852       -28.8400
  26   1.0000      -0.996710       -27.1219
  27   1.0000      -0.964506       -26.2455
  28   1.0000      -0.895127       -24.3577
  29   1.0000      -0.851724       -23.1766
  30   1.0000      -0.830163       -22.5899
  31   1.0000      -0.805493       -21.9186
  32   1.0000      -0.792560       -21.5667
  33   1.0000      -0.782881       -21.3033
  34   1.0000      -0.706902       -19.2358
  35   1.0000      -0.696659       -18.9570
  36   1.0000      -0.693124       -18.8609
  37   1.0000      -0.684839       -18.6354
  38   1.0000      -0.661136       -17.9904
  39   1.0000      -0.644536       -17.5387
  40   1.0000      -0.628241       -17.0953
  41   1.0000      -0.607698       -16.5363
  42   1.0000      -0.606976       -16.5167
  43   1.0000      -0.586160       -15.9502
  44   1.0000      -0.582155       -15.8412
  45   1.0000      -0.571736       -15.5577
  46   1.0000      -0.569957       -15.5093
  47   1.0000      -0.565716       -15.3939
  48   1.0000      -0.563619       -15.3369
  49   1.0000      -0.559896       -15.2355
  50   1.0000      -0.552821       -15.0430
  51   1.0000      -0.540100       -14.6969
  52   1.0000      -0.534982       -14.5576
  53   1.0000      -0.528622       -14.3845
  54   1.0000      -0.521459       -14.1896
  55   1.0000      -0.513527       -13.9738
  56   1.0000      -0.495611       -13.4863
  57   1.0000      -0.429572       -11.6893
  58   1.0000      -0.424865       -11.5612
  59   1.0000      -0.411204       -11.1894
  60   1.0000      -0.410018       -11.1572
  61   1.0000      -0.402138       -10.9427
  62   1.0000      -0.398804       -10.8520
  63   1.0000      -0.391266       -10.6469
  64   1.0000      -0.387140       -10.5346
  65   1.0000      -0.352344        -9.5878
  66   1.0000      -0.318176        -8.6580
  67   0.0000       0.006311         0.1717
  68   0.0000       0.029963         0.8153
  69   0.0000       0.032203         0.8763
  70   0.0000       0.035408         0.9635
  71   0.0000       0.054831         1.4920

                 SPIN DOWN ORBITALS
  NO   OCC          E(Eh)            E(eV)
   0   1.0000     -19.328597      -525.9579
   1   1.0000     -19.327552      -525.9294
   2   1.0000     -19.327141      -525.9182
   3   1.0000     -19.326539      -525.9019
   4   1.0000     -14.572987      -396.5511
   5   1.0000     -14.568901      -396.4400
   6   1.0000     -14.568243      -396.4220
   7   1.0000     -14.562401      -396.2631
   8   1.0000     -10.515692      -286.1465
   9   1.0000     -10.514787      -286.1219
  10   1.0000     -10.481095      -285.2051
  11   1.0000     -10.479370      -285.1582
  12   1.0000     -10.449280      -284.3394
  13   1.0000     -10.445137      -284.2266
  14   1.0000     -10.407466      -283.2015
  15   1.0000     -10.401743      -283.0458
  16   1.0000     -10.370442      -282.1941
  17   1.0000     -10.366685      -282.0918
  18   1.0000      -1.221240       -33.2316
  19   1.0000      -1.217889       -33.1404
  20   1.0000      -1.191025       -32.4094
  21   1.0000      -1.186513       -32.2867
  22   1.0000      -1.123632       -30.5756
  23   1.0000      -1.100082       -29.9348
  24   1.0000      -1.064207       -28.9586
  25   1.0000      -1.058110       -28.7926
  26   1.0000      -0.984076       -26.7781
  27   1.0000      -0.948013       -25.7968
  28   1.0000      -0.889365       -24.2008
  29   1.0000      -0.846352       -23.0304
  30   1.0000      -0.820280       -22.3209
  31   1.0000      -0.799686       -21.7606
  32   1.0000      -0.791039       -21.5253
  33   1.0000      -0.781143       -21.2560
  34   1.0000      -0.703296       -19.1377
  35   1.0000      -0.691489       -18.8164
  36   1.0000      -0.686776       -18.6881
  37   1.0000      -0.678239       -18.4558
  38   1.0000      -0.647100       -17.6085
  39   1.0000      -0.639894       -17.4124
  40   1.0000      -0.624607       -16.9964
  41   1.0000      -0.601825       -16.3765
  42   1.0000      -0.598224       -16.2785
  43   1.0000      -0.580996       -15.8097
  44   1.0000      -0.575679       -15.6650
  45   1.0000      -0.566193       -15.4069
  46   1.0000      -0.563369       -15.3301
  47   1.0000      -0.560901       -15.2629
  48   1.0000      -0.555977       -15.1289
  49   1.0000      -0.553396       -15.0587
  50   1.0000      -0.543669       -14.7940
  51   1.0000      -0.530723       -14.4417
  52   1.0000      -0.529108       -14.3978
  53   1.0000      -0.521356       -14.1868
  54   1.0000      -0.515904       -14.0385
  55   1.0000      -0.504681       -13.7331
  56   1.0000      -0.488801       -13.3010
  57   1.0000      -0.424593       -11.5538
  58   1.0000      -0.420816       -11.4510
  59   1.0000      -0.407250       -11.0818
  60   1.0000      -0.396387       -10.7863
  61   1.0000      -0.393641       -10.7115
  62   1.0000      -0.389872       -10.6089
  63   1.0000      -0.386161       -10.5080
  64   1.0000      -0.378514       -10.2999
  65   0.0000      -0.067536        -1.8377
  66   0.0000      -0.045849        -1.2476
  67   0.0000       0.005856         0.1593
  68   0.0000       0.029357         0.7989
  69   0.0000       0.032173         0.8755

----------------------------------------------------------------------------------------------------
          SPIN FLIP ABSORPTION SPECTRUM VIA TRANSITION ELECTRIC DIPOLE MOMENTS
----------------------------------------------------------------------------------------------------
     Transition      Energy     Energy  Wavelength fosc(D2)      D2        DX        DY        DZ
                      (eV)      (cm-1)    (nm)                 (au**2)    (au)      (au)      (au)
----------------------------------------------------------------------------------------------------
  1-3A  ->  2-3A    0.169661    1368.4  7307.7   0.000082099   0.01975   0.11594  -0.03334   0.07209
  1-3A  ->  3-3A    2.244120   18100.0   552.5   0.006217822   0.11309   0.09707  -0.15806   0.28051

Dispersion correction             ... done (  0.1 sec)

MULLIKEN ATOMIC CHARGES AND SPIN DENSITIES
------------------------------------------
   0 O :   -0.693398   -0.019805
   1 O :   -0.682143    0.027060
   2 O :   -0.630714   -0.000925
   3 O :   -0.644204   -0.000445
   4 N :   -0.194552   -0.007326
   5 N :   -0.305027   -0.003779
   6 N :   -0.015924   -0.005606
   7 N :    0.069015    0.004366
   8 C :    0.480220    0.326137
   9 C :    0.655710    0.380596
  10 C :    0.266354   -0.230932
  11 C :    0.227927   -0.158298
  12 C :   -1.529761   -0.026849
  13 C :   -1.582277   -0.006975
  14 C :    0.123665   -0.180281
  15 C :    0.190437   -0.143411
  16 C :    0.423911    0.015064
  17 C :    0.272368    0.007995
  18 H :    0.507810   -0.027966
  19 H :    0.593698    0.005952
  20 H :    0.344704    0.007724
  21 H :    0.360387   -0.001311
  22 H :    0.408495    0.006533
  23 H :    0.269240    0.020040
  24 H :    0.401073    0.003240
  25 H :    0.347469    0.004063
  26 H :    0.080914   -0.000076
  27 H :    0.090298    0.001178
  28 H :    0.048394    0.003038
  29 H :    0.115912    0.001001
Sum of atomic charges       :    0.0000000

LOEWDIN ATOMIC CHARGES AND SPIN DENSITIES
-----------------------------------------
   0 O :    0.058230   -0.017203
   1 O :    0.079730    0.024483
   2 O :    0.098145   -0.000620
   3 O :    0.081293   -0.000496
   4 N :    0.303251   -0.001070
   5 N :    0.274551   -0.001759
   6 N :    0.334589   -0.006397
   7 N :    0.319401    0.001622
   8 C :   -0.060953   -0.068345
   9 C :   -0.003915    0.088851
  10 C :   -0.096308   -0.009564
  11 C :   -0.116248   -0.000044
  12 C :    0.208900   -0.011168
  13 C :    0.249149    0.010581
  14 C :   -0.446290   -0.015856
  15 C :   -0.392770    0.010371
  16 C :   -0.440233   -0.000283
  17 C :   -0.468556   -0.000620
  18 H :    0.067672   -0.003336
  19 H :    0.043188    0.000630
  20 H :   -0.030803   -0.002070
  21 H :    0.023031    0.000178
  22 H :   -0.006248   -0.002976
  23 H :    0.036943    0.004260
  24 H :   -0.007528    0.001386
  25 H :   -0.059163    0.000199
  26 H :   -0.035106   -0.000111
  27 H :   -0.012957   -0.000349
  28 H :    0.008643   -0.000495
  29 H :   -0.009638    0.000203

  Mayer bond orders larger than 0.100000
B(  0-O , 14-C ) :   1.4038 B(  1-O , 15-C ) :   1.2523 B(  2-O , 16-C ) :   1.5685
B(  3-O , 17-C ) :   1.6116 B(  4-N ,  8-C ) :   0.1464 B(  4-N , 10-C ) :   0.5316
B(  4-N , 16-C ) :   1.0965 B(  4-N , 26-H ) :   1.0222 B(  5-N ,  9-C ) :   0.2334
B(  5-N , 10-C ) :   0.1055 B(  5-N , 11-C ) :   0.1609 B(  5-N , 17-C ) :   1.1778
B(  5-N , 19-H ) :  -0.1016 B(  5-N , 27-H ) :   1.0583 B(  6-N ,  8-C ) :  -0.1452
B(  6-N , 10-C ) :   0.1062 B(  6-N , 14-C ) :   1.1039 B(  6-N , 16-C ) :   0.9262
B(  6-N , 28-H ) :   1.1107 B(  7-N , 15-C ) :   1.1019 B(  7-N , 17-C ) :   0.9893
B(  7-N , 29-H ) :   0.9755 B(  8-C ,  9-C ) :   0.1767 B(  8-C , 10-C ) :   0.6356
B(  8-C , 11-C ) :   0.2862 B(  8-C , 12-C ) :   0.2786 B(  8-C , 14-C ) :   0.6246
B(  8-C , 16-C ) :   0.1128 B(  8-C , 18-H ) :  -0.1549 B(  8-C , 21-H ) :  -0.1479
B(  9-C , 10-C ) :   0.1473 B(  9-C , 11-C ) :   0.1465 B(  9-C , 13-C ) :   0.1737
B(  9-C , 15-C ) :   0.9177 B(  9-C , 17-C ) :   0.1125 B(  9-C , 19-H ) :  -0.1439
B(  9-C , 25-H ) :  -0.1532 B( 10-C , 11-C ) :   0.5204 B( 10-C , 12-C ) :  -0.1233
B( 10-C , 16-C ) :  -0.1404 B( 10-C , 18-H ) :   0.7988 B( 10-C , 19-H ) :  -0.1000
B( 11-C , 13-C ) :  -0.2417 B( 11-C , 17-C ) :  -0.2924 B( 11-C , 18-H ) :  -0.1038
B( 11-C , 19-H ) :   0.7954 B( 12-C , 20-H ) :   0.8359 B( 12-C , 21-H ) :   1.0356
B( 12-C , 22-H ) :   0.8782 B( 13-C , 14-C ) :   0.1283 B( 13-C , 23-H ) :   0.8802
B( 13-C , 24-H ) :   0.9042 B( 13-C , 25-H ) :   1.1037 B( 15-C , 17-C ) :  -0.1166

Dispersion correction           -0.060038414
FINAL SINGLE POINT ENERGY      -908.790597930817

DIPOLE MOMENT
-------------

Method             : TDA/CIS
Type of density    : Electron Density
Level              : Relaxed density
State              :   1
Multiplicity       :   3
Irrep              :   0
Energy             :     0.0000000000000000 Eh
Relativity type    :
Basis              : AO
                                X                 Y                 Z
Electronic contribution:     -4.691133561      -8.563953846      -6.035518396
Nuclear contribution   :      4.641569211       9.894818592       8.485287626
                        -----------------------------------------
Total Dipole Moment    :     -0.049564350       1.330864746       2.449769229
                        -----------------------------------------
Magnitude (a.u.)       :      2.788373518
Magnitude (Debye)      :      7.087482231

Rotational constants in cm-1:             0.022002             0.012222             0.011650
Rotational constants in MHz :           659.593939           366.411755           349.261323

                             ****ORCA TERMINATED NORMALLY****
TOTAL RUN TIME: 0 days 0 hours 5 minutes 8 seconds 6 msec
