                         Program Version 6.0.0  -   RELEASE  -
|  1> ! Engrad def2-TZVPPD wB97M-D3BJ
|  2> %pal nprocs 8 end%pal nprocs 64 end
|  3> %tddft
|  4>  Iroot 1 Nroots 3
|  5> sf true
|  6> end
|  7> *xyz 0 3
|  8> O   -0.50443945 0.72151876 0.12876662
|  9> C   0.74644503 0.2612575 0.48963191
| 10> C   1.1003066 -0.85107176 -0.42013841
| 11> H   0.55913813 -0.24917527 1.43546781
| 12> H   1.41207272 1.1262781 0.6332269
| 13> H   0.73532604 -1.81013775 -0.21682704
| 14> H   1.51506653 -0.63950947 -1.38962819
| 15> *
| 16>
| 17>                          ****END OF INPUT****

CARTESIAN COORDINATES (ANGSTROEM)
---------------------------------
  O     -0.504439    0.721519    0.128767
  C      0.746445    0.261257    0.489632
  C      1.100307   -0.851072   -0.420138
  H      0.559138   -0.249175    1.435468
  H      1.412073    1.126278    0.633227
  H      0.735326   -1.810138   -0.216827
  H      1.515067   -0.639509   -1.389628

 Total Charge           Charge          ....    0
 Multiplicity           Mult            ....    3
 Number of Electrons    NEL             ....   24
 Basis Dimension        Dim             ....  182

ORBITAL ENERGIES
----------------
                 SPIN UP ORBITALS
  NO   OCC          E(Eh)            E(eV)
   0   1.0000     -19.387071      -527.5490
   1   1.0000     -10.409976      -283.2698
   2   1.0000     -10.363982      -282.0183
   3   1.0000      -1.167536       -31.7703
   4   1.0000      -0.877894       -23.8887
   5   1.0000      -0.737263       -20.0619
   6   1.0000      -0.628422       -17.1002
   7   1.0000      -0.577578       -15.7167
   8   1.0000      -0.551378       -15.0037
   9   1.0000      -0.527622       -14.3573
  10   1.0000      -0.432987       -11.7822
  11   1.0000      -0.416864       -11.3435
  12   1.0000      -0.328034        -8.9263
  13   0.0000       0.041431         1.1274
  14   0.0000       0.062105         1.6900
  15   0.0000       0.075717         2.0604
  16   0.0000       0.088806         2.4165
  17   0.0000       0.116250         3.1633

                 SPIN DOWN ORBITALS
  NO   OCC          E(Eh)            E(eV)
   0   1.0000     -19.361650      -526.8573
   1   1.0000     -10.411201      -283.3032
   2   1.0000     -10.350644      -281.6554
   3   1.0000      -1.111179       -30.2367
   4   1.0000      -0.842712       -22.9314
   5   1.0000      -0.712334       -19.3836
   6   1.0000      -0.600257       -16.3338
   7   1.0000      -0.549854       -14.9623
   8   1.0000      -0.521985       -14.2039
   9   1.0000      -0.489942       -13.3320
  10   1.0000      -0.382230       -10.4010
  11   0.0000      -0.052419        -1.4264
  12   0.0000      -0.001652        -0.0449
  13   0.0000       0.040631         1.1056
  14   0.0000       0.062659         1.7051
  15   0.0000       0.075685         2.0595

----------------------------------------------------------------------------------------------------
          SPIN FLIP ABSORPTION SPECTRUM VIA TRANSITION ELECTRIC DIPOLE MOMENTS
----------------------------------------------------------------------------------------------------
     Transition      Energy     Energy  Wavelength fosc(D2)      D2        DX        DY        DZ
                      (eV)      (cm-1)    (nm)                 (au**2)    (au)      (au)      (au)
----------------------------------------------------------------------------------------------------
  1-3A  ->  2-3A    0.398969    3217.9  3107.6   0.000335822   0.03436  -0.12329   0.07059   0.11905
  1-3A  ->  3-3A    1.150729    9281.3  1077.4   0.008209134   0.29118  -0.30929   0.41603   0.14980

Dispersion correction             ... done (  0.2 sec)

MULLIKEN ATOMIC CHARGES AND SPIN DENSITIES
------------------------------------------
   0 O :   -0.448916   -0.390193
   1 C :   -0.049059   -0.011159
   2 C :   -0.422662    0.298883
   3 H :    0.182285    0.063817
   4 H :    0.244475   -0.012195
   5 H :    0.258471    0.038879
   6 H :    0.235406    0.011968
Sum of atomic charges       :    0.0000000

LOEWDIN ATOMIC CHARGES AND SPIN DENSITIES
-----------------------------------------
   0 O :   -0.040286   -0.394014
   1 C :   -0.303783    0.026408
   2 C :    0.391645    0.294685
   3 H :    0.006232    0.017572
   4 H :    0.023337   -0.012236
   5 H :   -0.048376    0.037905
   6 H :   -0.028768    0.029678

  Mayer bond orders larger than 0.100000
B(  0-O ,  1-C ) :   0.8017 B(  0-O ,  2-C ) :   0.5430 B(  1-C ,  2-C ) :   0.7365
B(  1-C ,  3-H ) :   1.0415 B(  1-C ,  4-H ) :   0.9755 B(  2-C ,  5-H ) :   0.9387
B(  2-C ,  6-H ) :   0.9477

Dispersion correction           -0.005565244
FINAL SINGLE POINT ENERGY      -153.759796168925

DIPOLE MOMENT
-------------

Method             : TDA/CIS
Type of density    : Electron Density
Level              : Relaxed density
State              :   1
Multiplicity       :   3
Irrep              :   0
Energy             :     0.0000000000000000 Eh
Relativity type    :
Basis              : AO
                                X                 Y                 Z
Electronic contribution:     -1.279005710       0.859592302      -0.174821407
Nuclear contribution   :      2.382438111      -1.710459822       0.148147981
                        -----------------------------------------
Total Dipole Moment    :      1.103432401      -0.850867520      -0.026673426
                        -----------------------------------------
Magnitude (a.u.)       :      1.393646322
Magnitude (Debye)      :      3.542367434

Rotational constants in cm-1:             1.306984             0.371154             0.325767
Rotational constants in MHz :         39182.394405         11126.919792          9766.250021

                             ****ORCA TERMINATED NORMALLY****
TOTAL RUN TIME: 0 days 0 hours 0 minutes 26 seconds 711 msec
