                         Program Version 6.0.0  -   RELEASE  -
|  1> ! Engrad def2-TZVPPD wB97M-D3BJ
|  2> %pal nprocs 8 end%pal nprocs 32 end
|  3> %tddft Nroots 2 Iroot 1
|  4> sf true
|  5> end
|  6> *xyz 0 3
|  7> O   0.50785223 1.41372946 0.11848055
|  8> C   0.58190788 0.191745 -0.29284583
|  9> C   -0.44539241 -0.93388573 0.15995289
| 10> H   0.12559789 -1.74517387 0.65945107
| 11> H   1.43420959 -0.10734813 -0.88319928
| 12> H   -1.04600486 -1.37693831 -0.66759978
| 13> H   -1.08206774 -0.39854304 0.8595126
| 14> *
| 15>
| 16>                          ****END OF INPUT****

CARTESIAN COORDINATES (ANGSTROEM)
---------------------------------
  O      0.507852    1.413729    0.118481
  C      0.581908    0.191745   -0.292846
  C     -0.445392   -0.933886    0.159953
  H      0.125598   -1.745174    0.659451
  H      1.434210   -0.107348   -0.883199
  H     -1.046005   -1.376938   -0.667600
  H     -1.082068   -0.398543    0.859513

 Total Charge           Charge          ....    0
 Multiplicity           Mult            ....    3
 Number of Electrons    NEL             ....   24
 Basis Dimension        Dim             ....  182

ORBITAL ENERGIES
----------------
                 SPIN UP ORBITALS
  NO   OCC          E(Eh)            E(eV)
   0   1.0000     -19.420269      -528.4524
   1   1.0000     -10.394261      -282.8422
   2   1.0000     -10.377977      -282.3991
   3   1.0000      -1.209611       -32.9152
   4   1.0000      -0.866127       -23.5685
   5   1.0000      -0.724448       -19.7132
   6   1.0000      -0.619295       -16.8519
   7   1.0000      -0.569362       -15.4931
   8   1.0000      -0.559847       -15.2342
   9   1.0000      -0.516034       -14.0420
  10   1.0000      -0.509458       -13.8630
  11   1.0000      -0.440459       -11.9855
  12   1.0000      -0.247707        -6.7404
  13   0.0000       0.040906         1.1131
  14   0.0000       0.060490         1.6460
  15   0.0000       0.079965         2.1760
  16   0.0000       0.090398         2.4599
  17   0.0000       0.105995         2.8843

                 SPIN DOWN ORBITALS
  NO   OCC          E(Eh)            E(eV)
   0   1.0000     -19.392053      -527.6846
   1   1.0000     -10.383032      -282.5367
   2   1.0000     -10.376370      -282.3554
   3   1.0000      -1.145894       -31.1814
   4   1.0000      -0.848992       -23.1022
   5   1.0000      -0.682304       -18.5664
   6   1.0000      -0.575060       -15.6482
   7   1.0000      -0.529302       -14.4031
   8   1.0000      -0.518335       -14.1046
   9   1.0000      -0.490640       -13.3510
  10   1.0000      -0.461146       -12.5484
  11   0.0000      -0.083098        -2.2612
  12   0.0000       0.041251         1.1225
  13   0.0000       0.061014         1.6603
  14   0.0000       0.067244         1.8298
  15   0.0000       0.080304         2.1852

----------------------------------------------------------------------------------------------------
          SPIN FLIP ABSORPTION SPECTRUM VIA TRANSITION ELECTRIC DIPOLE MOMENTS
----------------------------------------------------------------------------------------------------
     Transition      Energy     Energy  Wavelength fosc(D2)      D2        DX        DY        DZ
                      (eV)      (cm-1)    (nm)                 (au**2)    (au)      (au)      (au)
----------------------------------------------------------------------------------------------------
  1-3A  ->  2-3A    3.864073   31165.9   320.9   0.000054903   0.00058   0.01841   0.01548  -0.00121

Dispersion correction             ... done (  0.1 sec)

MULLIKEN ATOMIC CHARGES AND SPIN DENSITIES
------------------------------------------
   0 O :   -0.541583    0.037598
   1 C :    0.213391   -0.152693
   2 C :   -0.651202    0.041507
   3 H :    0.219972   -0.002323
   4 H :    0.292501    0.071878
   5 H :    0.229641   -0.001002
   6 H :    0.237280    0.005034
Sum of atomic charges       :    0.0000000

LOEWDIN ATOMIC CHARGES AND SPIN DENSITIES
-----------------------------------------
   0 O :   -0.052277    0.006478
   1 C :   -0.089516   -0.007049
   2 C :    0.183216    0.001742
   3 H :   -0.008848   -0.000364
   4 H :   -0.001661   -0.000617
   5 H :   -0.004674   -0.000665
   6 H :   -0.026240    0.000475

  Mayer bond orders larger than 0.100000
B(  0-O ,  1-C ) :   1.7857 B(  1-C ,  2-C ) :   0.7703 B(  1-C ,  4-H ) :   0.9293
B(  2-C ,  3-H ) :   0.9778 B(  2-C ,  5-H ) :   0.9755 B(  2-C ,  6-H ) :   0.9681

Dispersion correction           -0.005393700
FINAL SINGLE POINT ENERGY      -153.904108622457

DIPOLE MOMENT
-------------

Method             : TDA/CIS
Type of density    : Electron Density
Level              : Relaxed density
State              :   1
Multiplicity       :   3
Irrep              :   0
Energy             :     0.0000000000000000 Eh
Relativity type    :
Basis              : AO
                                X                 Y                 Z
Electronic contribution:      1.241025675       2.879805191      -0.264481884
Nuclear contribution   :     -1.311739523      -4.242069671      -0.050975233
                        -----------------------------------------
Total Dipole Moment    :     -0.070713848      -1.362264480      -0.315457117
                        -----------------------------------------
Magnitude (a.u.)       :      1.400099337
Magnitude (Debye)      :      3.558769695

Rotational constants in cm-1:             1.765283             0.307288             0.275818
Rotational constants in MHz :         52921.863874          9212.274571          8268.823901

                             ****ORCA TERMINATED NORMALLY****
TOTAL RUN TIME: 0 days 0 hours 0 minutes 16 seconds 124 msec
