                         Program Version 6.0.0  -   RELEASE  -
|  1> ! Engrad def2-TZVPPD wB97M-D3BJ
|  2> %pal nprocs 8 end%pal nprocs 64 end
|  3> %tddft Nroots 2 Iroot 2
|  4> sf true
|  5> end
|  6> *xyz 0 3
|  7> O   2.96709334 1.25471353 -0.44316069
|  8> O   -0.55425814 0.44387254 -1.89845957
|  9> O   1.41999079 -2.83520627 -1.75527041
| 10> O   -3.11744324 -1.38602664 1.39265109
| 11> N   0.66245597 -2.03443325 0.22225994
| 12> N   -2.30918321 0.72295881 1.64135969
| 13> N   2.22112171 -0.79312705 -1.08093701
| 14> N   -1.94977166 -0.35959896 -0.32048239
| 15> C   1.46777772 0.14135551 1.00157736
| 16> C   -0.92525762 1.81704748 0.04573882
| 17> C   0.68218103 -1.03695794 1.18788291
| 18> C   -1.60108286 1.81318795 1.19392584
| 19> C   1.60773657 1.21260335 2.00098897
| 20> C   -0.10573459 2.9160034 -0.51605686
| 21> C   2.2664703 0.2860057 -0.18259641
| 22> C   -1.04741298 0.60651517 -0.80216045
| 23> C   1.43896546 -1.94270045 -0.9671952
| 24> C   -2.49788901 -0.4510709 0.93914932
| 25> H   0.37909534 -1.29327561 2.21867983
| 26> H   -1.74570851 2.70720971 1.77696531
| 27> H   1.47336014 2.15861709 1.45997985
| 28> H   0.88292175 1.06907431 2.79916702
| 29> H   2.61243188 1.18260936 2.38946242
| 30> H   -0.40468176 3.20735313 -1.53983099
| 31> H   -0.14437521 3.78800581 0.12123422
| 32> H   0.9518601 2.58077985 -0.5829104
| 33> H   0.03461824 -2.81799529 0.31105561
| 34> H   -2.79344696 0.7958184 2.52779166
| 35> H   2.63260549 -0.7030285 -1.99484047
| 36> H   -1.96594663 -1.23145863 -0.82597542
| 37> *
| 38>
| 39>                          ****END OF INPUT****

CARTESIAN COORDINATES (ANGSTROEM)
---------------------------------
  O      2.967093    1.254714   -0.443161
  O     -0.554258    0.443873   -1.898460
  O      1.419991   -2.835206   -1.755270
  O     -3.117443   -1.386027    1.392651
  N      0.662456   -2.034433    0.222260
  N     -2.309183    0.722959    1.641360
  N      2.221122   -0.793127   -1.080937
  N     -1.949772   -0.359599   -0.320482
  C      1.467778    0.141356    1.001577
  C     -0.925258    1.817047    0.045739
  C      0.682181   -1.036958    1.187883
  C     -1.601083    1.813188    1.193926
  C      1.607737    1.212603    2.000989
  C     -0.105735    2.916003   -0.516057
  C      2.266470    0.286006   -0.182596
  C     -1.047413    0.606515   -0.802160
  C      1.438965   -1.942700   -0.967195
  C     -2.497889   -0.451071    0.939149
  H      0.379095   -1.293276    2.218680
  H     -1.745709    2.707210    1.776965
  H      1.473360    2.158617    1.459980
  H      0.882922    1.069074    2.799167
  H      2.612432    1.182609    2.389462
  H     -0.404682    3.207353   -1.539831
  H     -0.144375    3.788006    0.121234
  H      0.951860    2.580780   -0.582910
  H      0.034618   -2.817995    0.311056
  H     -2.793447    0.795818    2.527792
  H      2.632605   -0.703028   -1.994840
  H     -1.965947   -1.231459   -0.825975

 Total Charge           Charge          ....    0
 Multiplicity           Mult            ....    3
 Number of Electrons    NEL             ....  132
 Basis Dimension        Dim             ....  882

ORBITAL ENERGIES
----------------
                 SPIN UP ORBITALS
  NO   OCC          E(Eh)            E(eV)
   0   1.0000     -19.331077      -526.0253
   1   1.0000     -19.330018      -525.9965
   2   1.0000     -19.328878      -525.9655
   3   1.0000     -19.321100      -525.7538
   4   1.0000     -14.585790      -396.8995
   5   1.0000     -14.581908      -396.7939
   6   1.0000     -14.569406      -396.4537
   7   1.0000     -14.550582      -395.9415
   8   1.0000     -10.513994      -286.1003
   9   1.0000     -10.509368      -285.9744
  10   1.0000     -10.483980      -285.2836
  11   1.0000     -10.460367      -284.6411
  12   1.0000     -10.433198      -283.9018
  13   1.0000     -10.410213      -283.2763
  14   1.0000     -10.406235      -283.1680
  15   1.0000     -10.383604      -282.5522
  16   1.0000     -10.366475      -282.0861
  17   1.0000     -10.356122      -281.8044
  18   1.0000      -1.227044       -33.3896
  19   1.0000      -1.225297       -33.3420
  20   1.0000      -1.196904       -32.5694
  21   1.0000      -1.187406       -32.3110
  22   1.0000      -1.123662       -30.5764
  23   1.0000      -1.109009       -30.1777
  24   1.0000      -1.068192       -29.0670
  25   1.0000      -1.054376       -28.6910
  26   1.0000      -0.968761       -26.3613
  27   1.0000      -0.957118       -26.0445
  28   1.0000      -0.850891       -23.1539
  29   1.0000      -0.848231       -23.0815
  30   1.0000      -0.809036       -22.0150
  31   1.0000      -0.806155       -21.9366
  32   1.0000      -0.792105       -21.5543
  33   1.0000      -0.778556       -21.1856
  34   1.0000      -0.694937       -18.9102
  35   1.0000      -0.693288       -18.8653
  36   1.0000      -0.688962       -18.7476
  37   1.0000      -0.682384       -18.5686
  38   1.0000      -0.643498       -17.5105
  39   1.0000      -0.632181       -17.2025
  40   1.0000      -0.625333       -17.0162
  41   1.0000      -0.602382       -16.3916
  42   1.0000      -0.597610       -16.2618
  43   1.0000      -0.591258       -16.0890
  44   1.0000      -0.577898       -15.7254
  45   1.0000      -0.569935       -15.5087
  46   1.0000      -0.565263       -15.3816
  47   1.0000      -0.556546       -15.1444
  48   1.0000      -0.554292       -15.0831
  49   1.0000      -0.539657       -14.6848
  50   1.0000      -0.530205       -14.4276
  51   1.0000      -0.526940       -14.3388
  52   1.0000      -0.520725       -14.1697
  53   1.0000      -0.512558       -13.9474
  54   1.0000      -0.509730       -13.8704
  55   1.0000      -0.498131       -13.5548
  56   1.0000      -0.482672       -13.1342
  57   1.0000      -0.477622       -12.9968
  58   1.0000      -0.421906       -11.4806
  59   1.0000      -0.418526       -11.3887
  60   1.0000      -0.409189       -11.1346
  61   1.0000      -0.397677       -10.8213
  62   1.0000      -0.391000       -10.6396
  63   1.0000      -0.387596       -10.5470
  64   1.0000      -0.379831       -10.3357
  65   1.0000      -0.345667        -9.4061
  66   1.0000      -0.229195        -6.2367
  67   0.0000       0.011963         0.3255
  68   0.0000       0.019590         0.5331
  69   0.0000       0.029348         0.7986
  70   0.0000       0.037783         1.0281
  71   0.0000       0.041868         1.1393

                 SPIN DOWN ORBITALS
  NO   OCC          E(Eh)            E(eV)
   0   1.0000     -19.329972      -525.9953
   1   1.0000     -19.329461      -525.9814
   2   1.0000     -19.328942      -525.9673
   3   1.0000     -19.315104      -525.5907
   4   1.0000     -14.581712      -396.7886
   5   1.0000     -14.580979      -396.7686
   6   1.0000     -14.569299      -396.4508
   7   1.0000     -14.549825      -395.9209
   8   1.0000     -10.513995      -286.1004
   9   1.0000     -10.509721      -285.9840
  10   1.0000     -10.483942      -285.2826
  11   1.0000     -10.460281      -284.6387
  12   1.0000     -10.432817      -283.8914
  13   1.0000     -10.400468      -283.0111
  14   1.0000     -10.395435      -282.8742
  15   1.0000     -10.383669      -282.5540
  16   1.0000     -10.366914      -282.0981
  17   1.0000     -10.356109      -281.8041
  18   1.0000      -1.226588       -33.3772
  19   1.0000      -1.222342       -33.2616
  20   1.0000      -1.196905       -32.5694
  21   1.0000      -1.178415       -32.0663
  22   1.0000      -1.123327       -30.5673
  23   1.0000      -1.098407       -29.8892
  24   1.0000      -1.067883       -29.0586
  25   1.0000      -1.048917       -28.5425
  26   1.0000      -0.960835       -26.1457
  27   1.0000      -0.943430       -25.6720
  28   1.0000      -0.850141       -23.1335
  29   1.0000      -0.835543       -22.7363
  30   1.0000      -0.808613       -22.0035
  31   1.0000      -0.792964       -21.5777
  32   1.0000      -0.791141       -21.5280
  33   1.0000      -0.773740       -21.0545
  34   1.0000      -0.694399       -18.8955
  35   1.0000      -0.689746       -18.7689
  36   1.0000      -0.685253       -18.6467
  37   1.0000      -0.670532       -18.2461
  38   1.0000      -0.641549       -17.4574
  39   1.0000      -0.622409       -16.9366
  40   1.0000      -0.620459       -16.8835
  41   1.0000      -0.598105       -16.2753
  42   1.0000      -0.591888       -16.1061
  43   1.0000      -0.583066       -15.8660
  44   1.0000      -0.569972       -15.5097
  45   1.0000      -0.565106       -15.3773
  46   1.0000      -0.558552       -15.1990
  47   1.0000      -0.553486       -15.0611
  48   1.0000      -0.548808       -14.9338
  49   1.0000      -0.536147       -14.5893
  50   1.0000      -0.525860       -14.3094
  51   1.0000      -0.519963       -14.1489
  52   1.0000      -0.509551       -13.8656
  53   1.0000      -0.505271       -13.7491
  54   1.0000      -0.500130       -13.6092
  55   1.0000      -0.496283       -13.5046
  56   1.0000      -0.475968       -12.9517
  57   1.0000      -0.440523       -11.9872
  58   1.0000      -0.421256       -11.4630
  59   1.0000      -0.414072       -11.2675
  60   1.0000      -0.403383       -10.9766
  61   1.0000      -0.390854       -10.6357
  62   1.0000      -0.380181       -10.3452
  63   1.0000      -0.378178       -10.2907
  64   1.0000      -0.347129        -9.4459
  65   0.0000      -0.095611        -2.6017
  66   0.0000       0.011736         0.3194
  67   0.0000       0.022043         0.5998
  68   0.0000       0.027573         0.7503
  69   0.0000       0.035417         0.9638

----------------------------------------------------------------------------------------------------
          SPIN FLIP ABSORPTION SPECTRUM VIA TRANSITION ELECTRIC DIPOLE MOMENTS
----------------------------------------------------------------------------------------------------
     Transition      Energy     Energy  Wavelength fosc(D2)      D2        DX        DY        DZ
                      (eV)      (cm-1)    (nm)                 (au**2)    (au)      (au)      (au)
----------------------------------------------------------------------------------------------------
  1-3A  ->  2-3A    3.393114   27367.3   365.4   0.000546654   0.00658  -0.05027  -0.02210   0.05967

Dispersion correction             ... done (  0.1 sec)

MULLIKEN ATOMIC CHARGES AND SPIN DENSITIES
------------------------------------------
   0 O :   -0.701100    0.003411
   1 O :   -0.652905   -0.001598
   2 O :   -0.591832    0.000392
   3 O :   -0.659205    0.000534
   4 N :    0.034219    0.009423
   5 N :   -0.013706   -0.005283
   6 N :   -0.011192   -0.004442
   7 N :   -0.030589   -0.006674
   8 C :    1.140203    0.087825
   9 C :    0.442728   -0.002787
  10 C :   -0.591375    0.006197
  11 C :    0.097343    0.009949
  12 C :   -1.477498    0.004759
  13 C :   -1.334168    0.004531
  14 C :    0.420144   -0.130994
  15 C :    0.571014   -0.008576
  16 C :    0.473312    0.007385
  17 C :    0.465799    0.002123
  18 H :    0.167935    0.014632
  19 H :    0.181244    0.000841
  20 H :    0.274770    0.007140
  21 H :    0.334041   -0.000045
  22 H :    0.425645    0.007049
  23 H :    0.330337    0.000278
  24 H :    0.328307    0.000516
  25 H :    0.181273   -0.003788
  26 H :    0.069652   -0.001793
  27 H :    0.029367   -0.000894
  28 H :    0.032623    0.001328
  29 H :    0.063613   -0.001441
Sum of atomic charges       :    0.0000000

LOEWDIN ATOMIC CHARGES AND SPIN DENSITIES
-----------------------------------------
   0 O :    0.060854    0.003512
   1 O :    0.101411   -0.000534
   2 O :    0.124876    0.000030
   3 O :    0.082558    0.000084
   4 N :    0.293224    0.014923
   5 N :    0.269792   -0.000989
   6 N :    0.323395   -0.003924
   7 N :    0.325301   -0.001069
   8 C :   -0.099041    0.002401
   9 C :   -0.149822   -0.000216
  10 C :    0.025893   -0.005037
  11 C :    0.047491   -0.000309
  12 C :    0.193168    0.000279
  13 C :    0.172381   -0.000084
  14 C :   -0.436851   -0.005332
  15 C :   -0.384965   -0.000076
  16 C :   -0.451622   -0.001435
  17 C :   -0.493771   -0.000189
  18 H :    0.013392   -0.003641
  19 H :    0.039139   -0.000051
  20 H :   -0.002811    0.000362
  21 H :   -0.000903   -0.000093
  22 H :    0.010881    0.000517
  23 H :    0.019153    0.000002
  24 H :   -0.009199   -0.000026
  25 H :   -0.011831   -0.000064
  26 H :   -0.016649    0.001488
  27 H :   -0.013366   -0.000044
  28 H :   -0.016233   -0.000418
  29 H :   -0.015843   -0.000067

  Mayer bond orders larger than 0.100000
B(  0-O , 14-C ) :   1.2463 B(  1-O , 15-C ) :   1.4197 B(  2-O , 16-C ) :   1.5945
B(  3-O , 17-C ) :   1.5414 B(  4-N , 10-C ) :   0.9882 B(  4-N , 16-C ) :   0.9184
B(  4-N , 26-H ) :   1.0889 B(  5-N , 11-C ) :   1.0376 B(  5-N , 17-C ) :   1.0237
B(  5-N , 27-H ) :   1.1310 B(  6-N , 14-C ) :   0.9478 B(  6-N , 16-C ) :   0.9880
B(  6-N , 28-H ) :   1.0940 B(  7-N , 15-C ) :   0.9592 B(  7-N , 17-C ) :   0.9538
B(  7-N , 29-H ) :   1.0638 B(  8-C , 10-C ) :   0.4140 B(  8-C , 12-C ) :   0.2289
B(  8-C , 14-C ) :   0.7986 B(  8-C , 18-H ) :  -0.1556 B(  8-C , 21-H ) :  -0.1017
B(  9-C , 11-C ) :   1.0886 B(  9-C , 13-C ) :   0.3341 B(  9-C , 15-C ) :   0.7942
B(  9-C , 24-H ) :  -0.1255 B( 10-C , 18-H ) :   1.2107 B( 11-C , 13-C ) :  -0.1693
B( 11-C , 19-H ) :   1.0624 B( 12-C , 20-H ) :   1.0107 B( 12-C , 21-H ) :   1.0145
B( 12-C , 22-H ) :   0.8296 B( 13-C , 23-H ) :   0.9518 B( 13-C , 24-H ) :   1.0798
B( 13-C , 25-H ) :   0.9486 B( 14-C , 16-C ) :  -0.1038

Dispersion correction           -0.058543107
FINAL SINGLE POINT ENERGY      -908.773320953886

DIPOLE MOMENT
-------------

Method             : TDA/CIS
Type of density    : Electron Density
Level              : Relaxed density
State              :   2
Multiplicity       :   3
Irrep              :   0
Energy             :     0.0000000000000000 Eh
Relativity type    :
Basis              : AO
                                X                 Y                 Z
Electronic contribution:     -2.182998419      -9.632134558      -5.187614114
Nuclear contribution   :      1.368078772      10.637587002       7.242850765
                        -----------------------------------------
Total Dipole Moment    :     -0.814919647       1.005452443       2.055236652
                        -----------------------------------------
Magnitude (a.u.)       :      2.428791128
Magnitude (Debye)      :      6.173496431

Rotational constants in cm-1:             0.019539             0.013896             0.011114
Rotational constants in MHz :           585.758268           416.580870           333.195253

                             ****ORCA TERMINATED NORMALLY****
TOTAL RUN TIME: 0 days 0 hours 4 minutes 45 seconds 737 msec
