                         Program Version 6.0.0  -   RELEASE  -
|  1> ! EnGrad wB97M-D3BJ def2-TZVPPD
|  2> %pal nprocs 8 end%pal nprocs 16 end
|  3> %tddft
|  4>  sf true
|  5>  nroots 2 Iroot 1 end
|  6> *xyz 0 3
|  7> O   0.32110923146737 0.99991012558959 -0.0023312460445
|  8> C   0.6323037286412 -0.30301530194779 -0.00045965901849
|  9> C   -0.73907922668142 -0.70040712333927 0.00062908804915
| 10> H   1.18862664372379 -0.63634271433421 0.88590567425365
| 11> H   1.18869583121598 -0.63880470653376 -0.88580203658211
| 12> H   -1.29533206700735 -0.72160283603583 -0.92460845917689
| 13> H   -1.29412414135957 -0.71813744339873 0.92666663851918
| 14> *
| 15>
| 16>                          ****END OF INPUT****

CARTESIAN COORDINATES (ANGSTROEM)
---------------------------------
  O      0.321109    0.999910   -0.002331
  C      0.632304   -0.303015   -0.000460
  C     -0.739079   -0.700407    0.000629
  H      1.188627   -0.636343    0.885906
  H      1.188696   -0.638805   -0.885802
  H     -1.295332   -0.721603   -0.924608
  H     -1.294124   -0.718137    0.926667

 Total Charge           Charge          ....    0
 Multiplicity           Mult            ....    3
 Number of Electrons    NEL             ....   24
 Basis Dimension        Dim             ....  182

ORBITAL ENERGIES
----------------
                 SPIN UP ORBITALS
  NO   OCC          E(Eh)            E(eV)
   0   1.0000     -19.404088      -528.0121
   1   1.0000     -10.406817      -283.1839
   2   1.0000     -10.342212      -281.4259
   3   1.0000      -1.207529       -32.8585
   4   1.0000      -0.868955       -23.6455
   5   1.0000      -0.739012       -20.1095
   6   1.0000      -0.641892       -17.4668
   7   1.0000      -0.603757       -16.4291
   8   1.0000      -0.552091       -15.0232
   9   1.0000      -0.508822       -13.8457
  10   1.0000      -0.448368       -12.2007
  11   1.0000      -0.433836       -11.8053
  12   1.0000      -0.283904        -7.7254
  13   0.0000       0.041079         1.1178
  14   0.0000       0.063647         1.7319
  15   0.0000       0.073126         1.9898
  16   0.0000       0.086214         2.3460
  17   0.0000       0.117150         3.1878

                 SPIN DOWN ORBITALS
  NO   OCC          E(Eh)            E(eV)
   0   1.0000     -19.376507      -527.2616
   1   1.0000     -10.408038      -283.2171
   2   1.0000     -10.329515      -281.0804
   3   1.0000      -1.148535       -31.2532
   4   1.0000      -0.834870       -22.7180
   5   1.0000      -0.716986       -19.5102
   6   1.0000      -0.600220       -16.3328
   7   1.0000      -0.567987       -15.4557
   8   1.0000      -0.529271       -14.4022
   9   1.0000      -0.474615       -12.9149
  10   1.0000      -0.388004       -10.5581
  11   0.0000      -0.072320        -1.9679
  12   0.0000       0.025814         0.7024
  13   0.0000       0.039714         1.0807
  14   0.0000       0.064277         1.7491
  15   0.0000       0.072116         1.9624

----------------------------------------------------------------------------------------------------
          SPIN FLIP ABSORPTION SPECTRUM VIA TRANSITION ELECTRIC DIPOLE MOMENTS
----------------------------------------------------------------------------------------------------
     Transition      Energy     Energy  Wavelength fosc(D2)      D2        DX        DY        DZ
                      (eV)      (cm-1)    (nm)                 (au**2)    (au)      (au)      (au)
----------------------------------------------------------------------------------------------------
  1-3A  ->  2-3A    2.036631   16426.5   608.8   0.000552853   0.01108   0.00030   0.00047   0.10526

Dispersion correction             ... done (  0.0 sec)

MULLIKEN ATOMIC CHARGES AND SPIN DENSITIES
------------------------------------------
   0 O :   -0.528840   -0.197004
   1 C :   -0.134730   -0.054633
   2 C :   -0.294816    0.127589
   3 H :    0.234619    0.036259
   4 H :    0.234700    0.036156
   5 H :    0.244537    0.025751
   6 H :    0.244530    0.025880
Sum of atomic charges       :    0.0000000

LOEWDIN ATOMIC CHARGES AND SPIN DENSITIES
-----------------------------------------
   0 O :   -0.058254   -0.215839
   1 C :   -0.367103    0.002891
   2 C :    0.370974    0.167234
   3 H :    0.029383    0.006207
   4 H :    0.029368    0.006170
   5 H :   -0.002183    0.016663
   6 H :   -0.002185    0.016673

  Mayer bond orders larger than 0.100000
B(  0-O ,  1-C ) :   0.7426 B(  0-O ,  2-C ) :   0.8554 B(  1-C ,  2-C ) :   0.7777
B(  1-C ,  3-H ) :   1.0244 B(  1-C ,  4-H ) :   1.0243 B(  2-C ,  5-H ) :   0.9390
B(  2-C ,  6-H ) :   0.9391

Dispersion correction           -0.005670601
FINAL SINGLE POINT ENERGY      -153.800958000497

DIPOLE MOMENT
-------------

Method             : TDA/CIS
Type of density    : Electron Density
Level              : Relaxed density
State              :   1
Multiplicity       :   3
Irrep              :   0
Energy             :     0.0000000000000000 Eh
Relativity type    :
Basis              : AO
                                X                 Y                 Z
Electronic contribution:     -0.000974559       1.214789118      -0.002397241
Nuclear contribution   :     -0.505664876      -2.635638634       0.004823049
                        -----------------------------------------
Total Dipole Moment    :     -0.506639435      -1.420849515       0.002425809
                        -----------------------------------------
Magnitude (a.u.)       :      1.508476963
Magnitude (Debye)      :      3.834243727

Rotational constants in cm-1:             1.092385             0.482355             0.385213
Rotational constants in MHz :         32748.887902         14460.626564         11548.389817

                             ****ORCA TERMINATED NORMALLY****
TOTAL RUN TIME: 0 days 0 hours 0 minutes 16 seconds 751 msec
