                         Program Version 6.0.0  -   RELEASE  -
|  1> ! Opt wB97M-D3BJ def2-TZVPPD
|  2> %pal nprocs 8 end %pal nprocs 64 end
|  3> %geom
|  4> Constraints
|  5>     {A 2 1 0 120.9090909090909 C }
|  6> end
|  7> MaxIter 500
|  8> end
|  9> *xyz 0 1
| 10> O   -0.0007 0.8141 0.0
| 11> C   0.7509 -0.4065 0.0
| 12> C   -0.7502 -0.4076 0.0
| 13> H   1.2625 -0.6786 0.9136
| 14> H   1.2625 -0.6787 -0.9136
| 15> H   -1.2614 -0.6806 -0.9136
| 16> H   -1.2614 -0.6805 0.9136
| 17> *
| 18>
| 19>                          ****END OF INPUT****
 Total Charge           Charge          ....    0
 Multiplicity           Mult            ....    1
 Number of Electrons    NEL             ....   24
Dispersion correction           -0.005771486
FINAL SINGLE POINT ENERGY      -153.615092822545
Dispersion correction             ... done (  0.0 sec)
Dispersion correction           -0.005661786
FINAL SINGLE POINT ENERGY      -153.700478775394
Dispersion correction             ... done (  0.1 sec)
Dispersion correction           -0.005587318
FINAL SINGLE POINT ENERGY      -153.722935496872
Dispersion correction             ... done (  0.1 sec)
FINAL SINGLE POINT ENERGY      -153.735667852194
FINAL SINGLE POINT ENERGY      -153.744122327300
FINAL SINGLE POINT ENERGY      -153.747996962212
FINAL SINGLE POINT ENERGY      -153.750576979107
FINAL SINGLE POINT ENERGY      -153.757141141036
FINAL SINGLE POINT ENERGY      -153.765941460349
FINAL SINGLE POINT ENERGY      -153.776337285920
FINAL SINGLE POINT ENERGY      -153.931190319457
FINAL SINGLE POINT ENERGY      -153.931276130830
FINAL SINGLE POINT ENERGY      -153.931300794508
FINAL SINGLE POINT ENERGY      -153.931329800680
FINAL SINGLE POINT ENERGY      -153.931351513200
FINAL SINGLE POINT ENERGY      -153.931357214622
FINAL SINGLE POINT ENERGY      -153.931357894367
Dispersion correction             ... done (  0.1 sec)
Dispersion correction           -0.005544521
FINAL SINGLE POINT ENERGY      -153.931358524644
Dispersion correction             ... done (  0.1 sec)
Dispersion correction           -0.005544161
FINAL SINGLE POINT ENERGY      -153.931359514911
Dispersion correction             ... done (  0.1 sec)
                    ***********************HURRAY********************

CARTESIAN COORDINATES (ANGSTROEM)
---------------------------------
  O      0.510165    1.334137    0.090416
  C      0.566983    0.189214   -0.276661
  C     -0.428380   -0.826856    0.207568
  H      0.089926   -1.640976    0.716112
  H      1.350916   -0.151030   -0.976359
  H     -0.951764   -1.269329   -0.641294
  H     -1.135644   -0.353560    0.880218

 Multiplicity           Mult            ....    1
 Number of Electrons    NEL             ....   24
 Basis Dimension        Dim             ....  182

ORBITAL ENERGIES
----------------

  NO   OCC          E(Eh)            E(eV)
   0   2.0000     -19.338382      -526.2241
   1   2.0000     -10.442899      -284.1657
   2   2.0000     -10.354959      -281.7728
   3   2.0000      -1.187444       -32.3120
   4   2.0000      -0.879857       -23.9421
   5   2.0000      -0.704997       -19.1839
   6   2.0000      -0.598615       -16.2892
   7   2.0000      -0.558865       -15.2075
   8   2.0000      -0.551131       -14.9970
   9   2.0000      -0.507722       -13.8158
  10   2.0000      -0.474398       -12.9090
  11   2.0000      -0.368517       -10.0279
  12   0.0000       0.038327         1.0429
  13   0.0000       0.053286         1.4500
  14   0.0000       0.059118         1.6087
  15   0.0000       0.083921         2.2836
  16   0.0000       0.086613         2.3569

MULLIKEN ATOMIC CHARGES
-----------------------
   0 O :   -0.474376
   1 C :    0.238818
   2 C :   -0.694950
   3 H :    0.222554
   4 H :    0.243394
   5 H :    0.223448
   6 H :    0.241112
Sum of atomic charges:   -0.0000000

LOEWDIN ATOMIC CHARGES
----------------------
   0 O :    0.062771
   1 C :   -0.218320
   2 C :    0.166913
   3 H :   -0.012536
   4 H :    0.023370
   5 H :   -0.012584
   6 H :   -0.009615

  Mayer bond orders larger than 0.100000
B(  0-O ,  1-C ) :   1.7709 B(  1-C ,  2-C ) :   0.7668 B(  1-C ,  4-H ) :   0.9830
B(  2-C ,  3-H ) :   0.9931 B(  2-C ,  5-H ) :   0.9936 B(  2-C ,  6-H ) :   0.9576

Dispersion correction           -0.005543969
FINAL SINGLE POINT ENERGY      -153.931360130297

DIPOLE MOMENT
-------------

Method             : SCF
Type of density    : Electron Density
Multiplicity       :   1
Irrep              :   0
Energy             :  -153.9258161611913920 Eh
Relativity type    :
Basis              : AO
                                X                 Y                 Z
Electronic contribution:      1.286113413       2.976282735      -0.159621653
Nuclear contribution   :     -1.383724428      -4.060121937      -0.069568898
                        -----------------------------------------
Total Dipole Moment    :     -0.097611016      -1.083839202      -0.229190551
                        -----------------------------------------
Magnitude (a.u.)       :      1.112098753
Magnitude (Debye)      :      2.826730385

Rotational constants in cm-1:             1.818187             0.350400             0.310505
Rotational constants in MHz :         54507.874565         10504.718263          9308.696021

                             ****ORCA TERMINATED NORMALLY****
TOTAL RUN TIME: 0 days 0 hours 9 minutes 53 seconds 515 msec
