                         Program Version 6.0.0  -   RELEASE  -
|  1> ! Engrad def2-TZVPPD wB97M-D3BJ
|  2> %pal nprocs 8 end%pal nprocs 64 end
|  3> %tddft
|  4>  Iroot 1 Nroots 3
|  5> sf true
|  6> end
|  7> *xyz 0 3
|  8> O   2.77093387 -0.95389512 -2.50036436
|  9> O   -2.49832932 1.41985078 -1.2504084
| 10> O   -1.26828524 -2.47352063 -1.09432128
| 11> O   -2.46856701 0.81047295 3.17464179
| 12> N   0.07289448 -1.52689103 0.42789535
| 13> N   -0.3779487 1.01751215 2.15558839
| 14> N   0.781026 -1.74783309 -1.72849257
| 15> N   -2.45407849 0.94820218 0.89550678
| 16> C   2.25841962 -0.51375987 -0.21383205
| 17> C   -0.35671365 1.27515035 -0.2348972
| 18> C   1.12310013 -0.47196682 0.76703022
| 19> C   0.46935924 0.92554452 0.95492594
| 20> C   3.66111098 -0.30299242 0.21222142
| 21> C   0.34968239 1.75028001 -1.46893019
| 22> C   1.97994974 -1.08688792 -1.53650774
| 23> C   -1.76219522 1.25437478 -0.28669478
| 24> C   -0.26890594 -1.91331682 -0.81942147
| 25> C   -1.78399009 0.85895432 2.14849134
| 26> H   1.45039719 -0.68780397 1.82951086
| 27> H   1.36639912 1.59065231 1.04664651
| 28> H   4.17194798 -1.2894817 0.48685259
| 29> H   4.30417738 0.0787269 -0.53296694
| 30> H   3.61608991 0.34294994 1.06786195
| 31> H   -0.14728354 2.56810079 -1.98956678
| 32> H   1.3300757 2.02020429 -1.15759318
| 33> H   0.35881577 0.9303689 -2.22283258
| 34> H   -0.72272388 -1.56776588 1.09258568
| 35> H   0.12073699 1.20490177 3.000933
| 36> H   0.53408998 -2.09626914 -2.64628273
| 37> H   -3.5047823 0.90830603 0.91437184
| 38> *
| 39>
| 40>                          ****END OF INPUT****

CARTESIAN COORDINATES (ANGSTROEM)
---------------------------------
  O      2.770934   -0.953895   -2.500364
  O     -2.498329    1.419851   -1.250408
  O     -1.268285   -2.473521   -1.094321
  O     -2.468567    0.810473    3.174642
  N      0.072894   -1.526891    0.427895
  N     -0.377949    1.017512    2.155588
  N      0.781026   -1.747833   -1.728493
  N     -2.454078    0.948202    0.895507
  C      2.258420   -0.513760   -0.213832
  C     -0.356714    1.275150   -0.234897
  C      1.123100   -0.471967    0.767030
  C      0.469359    0.925545    0.954926
  C      3.661111   -0.302992    0.212221
  C      0.349682    1.750280   -1.468930
  C      1.979950   -1.086888   -1.536508
  C     -1.762195    1.254375   -0.286695
  C     -0.268906   -1.913317   -0.819421
  C     -1.783990    0.858954    2.148491
  H      1.450397   -0.687804    1.829511
  H      1.366399    1.590652    1.046647
  H      4.171948   -1.289482    0.486853
  H      4.304177    0.078727   -0.532967
  H      3.616090    0.342950    1.067862
  H     -0.147284    2.568101   -1.989567
  H      1.330076    2.020204   -1.157593
  H      0.358816    0.930369   -2.222833
  H     -0.722724   -1.567766    1.092586
  H      0.120737    1.204902    3.000933
  H      0.534090   -2.096269   -2.646283
  H     -3.504782    0.908306    0.914372

 Total Charge           Charge          ....    0
 Multiplicity           Mult            ....    3
 Number of Electrons    NEL             ....  132
 Basis Dimension        Dim             ....  882

ORBITAL ENERGIES
----------------
                 SPIN UP ORBITALS
  NO   OCC          E(Eh)            E(eV)
   0   1.0000     -19.334897      -526.1293
   1   1.0000     -19.330741      -526.0162
   2   1.0000     -19.323998      -525.8327
   3   1.0000     -19.322718      -525.7979
   4   1.0000     -14.573132      -396.5551
   5   1.0000     -14.564515      -396.3206
   6   1.0000     -14.564170      -396.3112
   7   1.0000     -14.561314      -396.2335
   8   1.0000     -10.518461      -286.2219
   9   1.0000     -10.500142      -285.7234
  10   1.0000     -10.490030      -285.4482
  11   1.0000     -10.476578      -285.0822
  12   1.0000     -10.457940      -284.5750
  13   1.0000     -10.457547      -284.5643
  14   1.0000     -10.429978      -283.8141
  15   1.0000     -10.422955      -283.6230
  16   1.0000     -10.383940      -282.5614
  17   1.0000     -10.373129      -282.2672
  18   1.0000      -1.231150       -33.5013
  19   1.0000      -1.209754       -32.9191
  20   1.0000      -1.188626       -32.3442
  21   1.0000      -1.186530       -32.2871
  22   1.0000      -1.113474       -30.2992
  23   1.0000      -1.093549       -29.7570
  24   1.0000      -1.055716       -28.7275
  25   1.0000      -1.046641       -28.4805
  26   1.0000      -0.987429       -26.8693
  27   1.0000      -0.964420       -26.2432
  28   1.0000      -0.896065       -24.3832
  29   1.0000      -0.846263       -23.0280
  30   1.0000      -0.830105       -22.5883
  31   1.0000      -0.800546       -21.7840
  32   1.0000      -0.781455       -21.2645
  33   1.0000      -0.776030       -21.1168
  34   1.0000      -0.701192       -19.0804
  35   1.0000      -0.699213       -19.0265
  36   1.0000      -0.687939       -18.7198
  37   1.0000      -0.678933       -18.4747
  38   1.0000      -0.649751       -17.6806
  39   1.0000      -0.634928       -17.2773
  40   1.0000      -0.626141       -17.0382
  41   1.0000      -0.601982       -16.3808
  42   1.0000      -0.597766       -16.2660
  43   1.0000      -0.588374       -16.0105
  44   1.0000      -0.572475       -15.5778
  45   1.0000      -0.571282       -15.5454
  46   1.0000      -0.567025       -15.4295
  47   1.0000      -0.560767       -15.2592
  48   1.0000      -0.560288       -15.2462
  49   1.0000      -0.556975       -15.1561
  50   1.0000      -0.553621       -15.0648
  51   1.0000      -0.538888       -14.6639
  52   1.0000      -0.530411       -14.4332
  53   1.0000      -0.522880       -14.2283
  54   1.0000      -0.514508       -14.0005
  55   1.0000      -0.510132       -13.8814
  56   1.0000      -0.502914       -13.6850
  57   1.0000      -0.424588       -11.5536
  58   1.0000      -0.419573       -11.4172
  59   1.0000      -0.409089       -11.1319
  60   1.0000      -0.406189       -11.0530
  61   1.0000      -0.397650       -10.8206
  62   1.0000      -0.394752       -10.7417
  63   1.0000      -0.387990       -10.5577
  64   1.0000      -0.384013       -10.4495
  65   1.0000      -0.356172        -9.6919
  66   1.0000      -0.335573        -9.1314
  67   0.0000       0.005269         0.1434
  68   0.0000       0.028579         0.7777
  69   0.0000       0.030850         0.8395
  70   0.0000       0.034038         0.9262
  71   0.0000       0.053067         1.4440

                 SPIN DOWN ORBITALS
  NO   OCC          E(Eh)            E(eV)
   0   1.0000     -19.330790      -526.0175
   1   1.0000     -19.325647      -525.8776
   2   1.0000     -19.323844      -525.8285
   3   1.0000     -19.322689      -525.7971
   4   1.0000     -14.572980      -396.5510
   5   1.0000     -14.564075      -396.3086
   6   1.0000     -14.563655      -396.2972
   7   1.0000     -14.561084      -396.2272
   8   1.0000     -10.518506      -286.2231
   9   1.0000     -10.500178      -285.7244
  10   1.0000     -10.491152      -285.4788
  11   1.0000     -10.477662      -285.1117
  12   1.0000     -10.457613      -284.5661
  13   1.0000     -10.457252      -284.5563
  14   1.0000     -10.418323      -283.4970
  15   1.0000     -10.411868      -283.3213
  16   1.0000     -10.384536      -282.5776
  17   1.0000     -10.373561      -282.2789
  18   1.0000      -1.230758       -33.4906
  19   1.0000      -1.206203       -32.8225
  20   1.0000      -1.184393       -32.2290
  21   1.0000      -1.181020       -32.1372
  22   1.0000      -1.110532       -30.2191
  23   1.0000      -1.091424       -29.6992
  24   1.0000      -1.053699       -28.6726
  25   1.0000      -1.044904       -28.4333
  26   1.0000      -0.974800       -26.5257
  27   1.0000      -0.947006       -25.7693
  28   1.0000      -0.889938       -24.2164
  29   1.0000      -0.840194       -22.8628
  30   1.0000      -0.821267       -22.3478
  31   1.0000      -0.796210       -21.6660
  32   1.0000      -0.779391       -21.2083
  33   1.0000      -0.774129       -21.0651
  34   1.0000      -0.697229       -18.9726
  35   1.0000      -0.693798       -18.8792
  36   1.0000      -0.681390       -18.5416
  37   1.0000      -0.672483       -18.2992
  38   1.0000      -0.637090       -17.3361
  39   1.0000      -0.630733       -17.1631
  40   1.0000      -0.621125       -16.9017
  41   1.0000      -0.598804       -16.2943
  42   1.0000      -0.589938       -16.0530
  43   1.0000      -0.583705       -15.8834
  44   1.0000      -0.566922       -15.4267
  45   1.0000      -0.564556       -15.3623
  46   1.0000      -0.559316       -15.2198
  47   1.0000      -0.556812       -15.1516
  48   1.0000      -0.552511       -15.0346
  49   1.0000      -0.546226       -14.8636
  50   1.0000      -0.544413       -14.8142
  51   1.0000      -0.529509       -14.4087
  52   1.0000      -0.523425       -14.2431
  53   1.0000      -0.515905       -14.0385
  54   1.0000      -0.508632       -13.8406
  55   1.0000      -0.503100       -13.6900
  56   1.0000      -0.491975       -13.3873
  57   1.0000      -0.421941       -11.4816
  58   1.0000      -0.416199       -11.3254
  59   1.0000      -0.405984       -11.0474
  60   1.0000      -0.393465       -10.7067
  61   1.0000      -0.390131       -10.6160
  62   1.0000      -0.384126       -10.4526
  63   1.0000      -0.381522       -10.3817
  64   1.0000      -0.378212       -10.2917
  65   0.0000      -0.071586        -1.9480
  66   0.0000      -0.057028        -1.5518
  67   0.0000       0.005256         0.1430
  68   0.0000       0.029084         0.7914
  69   0.0000       0.030467         0.8290

----------------------------------------------------------------------------------------------------
          SPIN FLIP ABSORPTION SPECTRUM VIA TRANSITION ELECTRIC DIPOLE MOMENTS
----------------------------------------------------------------------------------------------------
     Transition      Energy     Energy  Wavelength fosc(D2)      D2        DX        DY        DZ
                      (eV)      (cm-1)    (nm)                 (au**2)    (au)      (au)      (au)
----------------------------------------------------------------------------------------------------
  1-3A  ->  2-3A    0.077308     623.5  16037.7   0.000013689   0.00723  -0.06254   0.02640   0.05118
  1-3A  ->  3-3A    1.920519   15490.0   645.6   0.000341883   0.00727   0.06689  -0.00027   0.05284

Dispersion correction             ... done (  0.1 sec)

MULLIKEN ATOMIC CHARGES AND SPIN DENSITIES
------------------------------------------
   0 O :   -0.687499    0.065066
   1 O :   -0.707115   -0.081223
   2 O :   -0.607741   -0.000145
   3 O :   -0.658144   -0.001797
   4 N :   -0.301838   -0.010757
   5 N :   -0.163646    0.003262
   6 N :   -0.000099    0.007504
   7 N :   -0.015253   -0.013978
   8 C :    0.363723    0.395447
   9 C :    0.893652    0.379735
  10 C :    0.519592   -0.091657
  11 C :   -0.020556   -0.302052
  12 C :   -1.608158    0.015345
  13 C :   -1.563647    0.033766
  14 C :    0.206599   -0.035066
  15 C :    0.153722   -0.389856
  16 C :    0.455977   -0.006297
  17 C :    0.362392    0.020482
  18 H :    0.508985    0.015798
  19 H :    0.574273   -0.025350
  20 H :    0.307741    0.018338
  21 H :    0.329477    0.008452
  22 H :    0.368981    0.005611
  23 H :    0.388738   -0.007613
  24 H :    0.364605   -0.002781
  25 H :    0.262840   -0.003802
  26 H :    0.096639   -0.001356
  27 H :    0.036814    0.000272
  28 H :    0.026556    0.000850
  29 H :    0.112390    0.003802
Sum of atomic charges       :   -0.0000000

LOEWDIN ATOMIC CHARGES AND SPIN DENSITIES
-----------------------------------------
   0 O :    0.048973    0.056885
   1 O :    0.080707   -0.068448
   2 O :    0.133522   -0.000299
   3 O :    0.047823   -0.001888
   4 N :    0.279437   -0.000771
   5 N :    0.284606   -0.000292
   6 N :    0.320341    0.005861
   7 N :    0.294738   -0.012010
   8 C :   -0.039656    0.225766
   9 C :   -0.015078   -0.196910
  10 C :   -0.085685    0.012138
  11 C :   -0.134265   -0.014262
  12 C :    0.191442    0.033909
  13 C :    0.221189   -0.025895
  14 C :   -0.387496    0.026876
  15 C :   -0.434288   -0.045662
  16 C :   -0.545433   -0.001258
  17 C :   -0.424817   -0.000383
  18 H :    0.078657    0.003402
  19 H :    0.073354   -0.003774
  20 H :    0.058485    0.015470
  21 H :   -0.025916    0.003809
  22 H :   -0.021122    0.001120
  23 H :    0.016709   -0.004741
  24 H :   -0.022302    0.001889
  25 H :    0.029398   -0.010557
  26 H :   -0.006347    0.000232
  27 H :   -0.046634    0.000134
  28 H :   -0.005158    0.000568
  29 H :    0.034816   -0.000909

  Mayer bond orders larger than 0.100000
B(  0-O , 14-C ) :   1.3775 B(  1-O ,  9-C ) :   0.1084 B(  1-O , 13-C ) :   0.1088
B(  1-O , 15-C ) :   1.1328 B(  2-O , 16-C ) :   1.5138 B(  3-O , 17-C ) :   1.5976
B(  4-N ,  8-C ) :   0.2140 B(  4-N , 10-C ) :   0.3206 B(  4-N , 16-C ) :   1.0603
B(  4-N , 26-H ) :   1.0284 B(  5-N ,  9-C ) :   0.1220 B(  5-N , 10-C ) :   0.1271
B(  5-N , 11-C ) :   0.3857 B(  5-N , 17-C ) :   1.1121 B(  5-N , 19-H ) :  -0.1031
B(  5-N , 27-H ) :   1.1635 B(  6-N ,  8-C ) :  -0.1020 B(  6-N , 10-C ) :   0.1326
B(  6-N , 14-C ) :   1.0021 B(  6-N , 16-C ) :   0.8941 B(  6-N , 28-H ) :   1.1186
B(  7-N ,  9-C ) :  -0.1218 B(  7-N , 15-C ) :   1.0883 B(  7-N , 17-C ) :   1.0161
B(  7-N , 29-H ) :   1.0445 B(  8-C ,  9-C ) :   0.2063 B(  8-C , 10-C ) :   0.2732
B(  8-C , 11-C ) :   0.2000 B(  8-C , 12-C ) :   0.3861 B(  8-C , 14-C ) :   0.6810
B(  8-C , 18-H ) :  -0.1324 B(  8-C , 21-H ) :  -0.1054 B(  8-C , 22-H ) :  -0.1199
B(  9-C , 10-C ) :   0.1401 B(  9-C , 11-C ) :   0.6796 B(  9-C , 13-C ) :   0.1409
B(  9-C , 15-C ) :   0.6487 B(  9-C , 19-H ) :  -0.1729 B(  9-C , 24-H ) :  -0.1876
B( 10-C , 11-C ) :   0.4371 B( 10-C , 12-C ) :  -0.2495 B( 10-C , 18-H ) :   0.7822
B( 10-C , 19-H ) :  -0.1016 B( 11-C , 13-C ) :  -0.1601 B( 11-C , 17-C ) :  -0.1777
B( 11-C , 19-H ) :   0.8273 B( 12-C , 20-H ) :   0.8657 B( 12-C , 21-H ) :   1.0169
B( 12-C , 22-H ) :   0.9592 B( 13-C , 14-C ) :   0.1078 B( 13-C , 23-H ) :   0.8429
B( 13-C , 24-H ) :   1.0792 B( 13-C , 25-H ) :   0.9490

Dispersion correction           -0.057630978
FINAL SINGLE POINT ENERGY      -908.774416360780

DIPOLE MOMENT
-------------

Method             : TDA/CIS
Type of density    : Electron Density
Level              : Relaxed density
State              :   1
Multiplicity       :   3
Irrep              :   0
Energy             :     0.0000000000000000 Eh
Relativity type    :
Basis              : AO
                                X                 Y                 Z
Electronic contribution:     -9.830499839      -3.489342826       0.103024962
Nuclear contribution   :     12.111845072       4.275759208       1.136237742
                        -----------------------------------------
Total Dipole Moment    :      2.281345234       0.786416382       1.239262704
                        -----------------------------------------
Magnitude (a.u.)       :      2.712703237
Magnitude (Debye)      :      6.895143662

Rotational constants in cm-1:             0.022815             0.011373             0.010446
Rotational constants in MHz :           683.962998           340.949884           313.175326

                             ****ORCA TERMINATED NORMALLY****
TOTAL RUN TIME: 0 days 0 hours 5 minutes 4 seconds 939 msec
