                         Program Version 6.0.0  -   RELEASE  -
|  1> ! EnGrad wB97M-D3BJ def2-TZVPPD
|  2> %pal nprocs 8 end%pal nprocs 16 end
|  3> %tddft
|  4>  sf true
|  5>  nroots 2 Iroot 2 end
|  6> *xyz 0 3
|  7> O   0.42245029675635 1.0590023128504 -0.00284540215133
|  8> C   0.61442442050712 -0.26588958769893 -0.00056169696691
|  9> C   -0.74546158619117 -0.7382197259494 0.00080057186267
| 10> H   1.16530086353868 -0.62698947191987 0.88147214991302
| 11> H   1.16505137163841 -0.63015000635531 -0.88142842615316
| 12> H   -1.31048414490077 -0.76017708243126 -0.92174652331336
| 13> H   -1.30908122134862 -0.75597643849563 0.92430932680906
| 14> *
| 15>
| 16>                          ****END OF INPUT****

CARTESIAN COORDINATES (ANGSTROEM)
---------------------------------
  O      0.422450    1.059002   -0.002845
  C      0.614424   -0.265890   -0.000562
  C     -0.745462   -0.738220    0.000801
  H      1.165301   -0.626989    0.881472
  H      1.165051   -0.630150   -0.881428
  H     -1.310484   -0.760177   -0.921747
  H     -1.309081   -0.755976    0.924309

 Total Charge           Charge          ....    0
 Multiplicity           Mult            ....    3
 Number of Electrons    NEL             ....   24
 Basis Dimension        Dim             ....  182

ORBITAL ENERGIES
----------------
                 SPIN UP ORBITALS
  NO   OCC          E(Eh)            E(eV)
   0   1.0000     -19.396163      -527.7964
   1   1.0000     -10.407042      -283.1900
   2   1.0000     -10.350322      -281.6466
   3   1.0000      -1.194413       -32.5016
   4   1.0000      -0.874535       -23.7973
   5   1.0000      -0.735675       -20.0187
   6   1.0000      -0.635424       -17.2908
   7   1.0000      -0.594961       -16.1897
   8   1.0000      -0.555345       -15.1117
   9   1.0000      -0.514252       -13.9935
  10   1.0000      -0.439933       -11.9712
  11   1.0000      -0.424314       -11.5462
  12   1.0000      -0.308177        -8.3859
  13   0.0000       0.041184         1.1207
  14   0.0000       0.063353         1.7239
  15   0.0000       0.073741         2.0066
  16   0.0000       0.086920         2.3652
  17   0.0000       0.117310         3.1922

                 SPIN DOWN ORBITALS
  NO   OCC          E(Eh)            E(eV)
   0   1.0000     -19.370198      -527.0899
   1   1.0000     -10.408352      -283.2257
   2   1.0000     -10.337491      -281.2974
   3   1.0000      -1.137916       -30.9643
   4   1.0000      -0.840801       -22.8793
   5   1.0000      -0.712131       -19.3781
   6   1.0000      -0.596281       -16.2256
   7   1.0000      -0.561424       -15.2771
   8   1.0000      -0.533390       -14.5143
   9   1.0000      -0.477394       -12.9906
  10   1.0000      -0.384261       -10.4563
  11   0.0000      -0.066216        -1.8018
  12   0.0000       0.011489         0.3126
  13   0.0000       0.040064         1.0902
  14   0.0000       0.064049         1.7429
  15   0.0000       0.073194         1.9917

----------------------------------------------------------------------------------------------------
          SPIN FLIP ABSORPTION SPECTRUM VIA TRANSITION ELECTRIC DIPOLE MOMENTS
----------------------------------------------------------------------------------------------------
     Transition      Energy     Energy  Wavelength fosc(D2)      D2        DX        DY        DZ
                      (eV)      (cm-1)    (nm)                 (au**2)    (au)      (au)      (au)
----------------------------------------------------------------------------------------------------
  1-3A  ->  2-3A    1.171804    9451.2  1058.1   0.000202197   0.00704  -0.00011  -0.00025  -0.08392

Dispersion correction             ... done (  0.0 sec)

MULLIKEN ATOMIC CHARGES AND SPIN DENSITIES
------------------------------------------
   0 O :   -0.327152    0.777028
   1 C :    0.107427    0.324491
   2 C :   -0.434753   -0.904597
   3 H :    0.200014    0.014100
   4 H :    0.200096    0.014013
   5 H :    0.127149   -0.112608
   6 H :    0.127217   -0.112427
Sum of atomic charges       :    0.0000000

LOEWDIN ATOMIC CHARGES AND SPIN DENSITIES
-----------------------------------------
   0 O :    0.096325    0.712321
   1 C :   -0.293616    0.032811
   2 C :    0.249626   -0.631349
   3 H :    0.040120    0.029986
   4 H :    0.040081    0.029937
   5 H :   -0.066275   -0.086867
   6 H :   -0.066261   -0.086840

  Mayer bond orders larger than 0.100000
B(  0-O ,  1-C ) :   0.9248 B(  0-O ,  2-C ) :   0.1164 B(  1-C ,  2-C ) :   0.5966
B(  1-C ,  3-H ) :   0.9703 B(  1-C ,  4-H ) :   0.9704 B(  2-C ,  5-H ) :   1.1182
B(  2-C ,  6-H ) :   1.1180

Dispersion correction           -0.005650455
FINAL SINGLE POINT ENERGY      -153.739427006252

DIPOLE MOMENT
-------------

Method             : TDA/CIS
Type of density    : Electron Density
Level              : Relaxed density
State              :   2
Multiplicity       :   3
Irrep              :   0
Energy             :     0.0000000000000000 Eh
Relativity type    :
Basis              : AO
                                X                 Y                 Z
Electronic contribution:      0.934467137       2.371283561      -0.005176894
Nuclear contribution   :     -0.683575186      -2.764672449       0.005826492
                        -----------------------------------------
Total Dipole Moment    :      0.250891951      -0.393388887       0.000649597
                        -----------------------------------------
Magnitude (a.u.)       :      0.466585480
Magnitude (Debye)      :      1.185966039

Rotational constants in cm-1:             1.197630             0.427837             0.359362
Rotational constants in MHz :         35904.045175         12826.238137         10773.397393

                             ****ORCA TERMINATED NORMALLY****
TOTAL RUN TIME: 0 days 0 hours 0 minutes 16 seconds 322 msec
