                         Program Version 6.0.0  -   RELEASE  -
|  1> ! Engrad def2-TZVPPD wB97M-D3BJ
|  2> %pal nprocs 8 end%pal nprocs 64 end
|  3> %tddft Nroots 2 Iroot 1
|  4> sf true
|  5> end
|  6> *xyz 0 3
|  7> O   3.34431543 0.88716422 -0.64990465
|  8> O   -1.59011673 0.99421521 -2.48105246
|  9> O   0.3247476 -2.58480468 -1.07008956
| 10> O   -3.28938155 -1.48221072 0.93111503
| 11> N   0.3542391 -1.34499258 0.68163911
| 12> N   -1.84222326 0.19472739 1.468583
| 13> N   1.84840627 -0.77227951 -1.04037951
| 14> N   -2.47789564 -0.23142401 -0.79099661
| 15> C   1.97143503 0.35534331 1.0771014
| 16> C   -0.70791774 1.35247534 -0.30381675
| 17> C   0.63077578 -0.15453987 1.41642253
| 18> C   -0.6424591 0.89725692 1.05126576
| 19> C   2.73978708 1.05829215 2.09723581
| 20> C   0.31118059 2.30536974 -0.78158494
| 21> C   2.44924303 0.22123607 -0.28713407
| 22> C   -1.58165269 0.72959419 -1.30222593
| 23> C   0.81923844 -1.61465183 -0.54757235
| 24> C   -2.55896163 -0.54183936 0.59131104
| 25> H   0.3903606 -0.2372197 2.50141755
| 26> H   -0.56426783 1.83327802 1.63560359
| 27> H   3.73474308 1.30782554 1.76188816
| 28> H   2.28819085 2.0605632 2.42981403
| 29> H   2.70782635 0.542092 3.07398233
| 30> H   0.89254598 2.82993029 0.01272282
| 31> H   1.02632561 1.79013061 -1.4333326
| 32> H   -0.10749021 3.0317215 -1.32842209
| 33> H   -0.17181142 -1.98211423 1.12156528
| 34> H   -1.8764514 -0.28221341 2.38449359
| 35> H   2.13967447 -0.85140726 -1.97691019
| 36> H   -3.28884986 -0.58007137 -1.35679552
| 37> *
| 38>
| 39>                          ****END OF INPUT****

CARTESIAN COORDINATES (ANGSTROEM)
---------------------------------
  O      3.344315    0.887164   -0.649905
  O     -1.590117    0.994215   -2.481052
  O      0.324748   -2.584805   -1.070090
  O     -3.289382   -1.482211    0.931115
  N      0.354239   -1.344993    0.681639
  N     -1.842223    0.194727    1.468583
  N      1.848406   -0.772280   -1.040380
  N     -2.477896   -0.231424   -0.790997
  C      1.971435    0.355343    1.077101
  C     -0.707918    1.352475   -0.303817
  C      0.630776   -0.154540    1.416423
  C     -0.642459    0.897257    1.051266
  C      2.739787    1.058292    2.097236
  C      0.311181    2.305370   -0.781585
  C      2.449243    0.221236   -0.287134
  C     -1.581653    0.729594   -1.302226
  C      0.819238   -1.614652   -0.547572
  C     -2.558962   -0.541839    0.591311
  H      0.390361   -0.237220    2.501418
  H     -0.564268    1.833278    1.635604
  H      3.734743    1.307826    1.761888
  H      2.288191    2.060563    2.429814
  H      2.707826    0.542092    3.073982
  H      0.892546    2.829930    0.012723
  H      1.026326    1.790131   -1.433333
  H     -0.107490    3.031721   -1.328422
  H     -0.171811   -1.982114    1.121565
  H     -1.876451   -0.282213    2.384494
  H      2.139674   -0.851407   -1.976910
  H     -3.288850   -0.580071   -1.356796

 Total Charge           Charge          ....    0
 Multiplicity           Mult            ....    3
 Number of Electrons    NEL             ....  132
 Basis Dimension        Dim             ....  882

ORBITAL ENERGIES
----------------
                 SPIN UP ORBITALS
  NO   OCC          E(Eh)            E(eV)
   0   1.0000     -19.341657      -526.3132
   1   1.0000     -19.327937      -525.9399
   2   1.0000     -19.317898      -525.6667
   3   1.0000     -19.312951      -525.5321
   4   1.0000     -14.573215      -396.5573
   5   1.0000     -14.567180      -396.3931
   6   1.0000     -14.558408      -396.1544
   7   1.0000     -14.554442      -396.0465
   8   1.0000     -10.510107      -285.9946
   9   1.0000     -10.501986      -285.7736
  10   1.0000     -10.484783      -285.3054
  11   1.0000     -10.476941      -285.0921
  12   1.0000     -10.451035      -284.3871
  13   1.0000     -10.441305      -284.1224
  14   1.0000     -10.415251      -283.4134
  15   1.0000     -10.411400      -283.3086
  16   1.0000     -10.382103      -282.5114
  17   1.0000     -10.361050      -281.9385
  18   1.0000      -1.240848       -33.7652
  19   1.0000      -1.217222       -33.1223
  20   1.0000      -1.207988       -32.8710
  21   1.0000      -1.189164       -32.3588
  22   1.0000      -1.121386       -30.5145
  23   1.0000      -1.098379       -29.8884
  24   1.0000      -1.076236       -29.2859
  25   1.0000      -1.048002       -28.5176
  26   1.0000      -0.983247       -26.7555
  27   1.0000      -0.963265       -26.2118
  28   1.0000      -0.883276       -24.0352
  29   1.0000      -0.847132       -23.0516
  30   1.0000      -0.828919       -22.5560
  31   1.0000      -0.806164       -21.9368
  32   1.0000      -0.794610       -21.6224
  33   1.0000      -0.768289       -20.9062
  34   1.0000      -0.712559       -19.3897
  35   1.0000      -0.697252       -18.9732
  36   1.0000      -0.686562       -18.6823
  37   1.0000      -0.682262       -18.5653
  38   1.0000      -0.662537       -18.0285
  39   1.0000      -0.653984       -17.7958
  40   1.0000      -0.617635       -16.8067
  41   1.0000      -0.610559       -16.6142
  42   1.0000      -0.605397       -16.4737
  43   1.0000      -0.590643       -16.0722
  44   1.0000      -0.576910       -15.6985
  45   1.0000      -0.573912       -15.6169
  46   1.0000      -0.565628       -15.3915
  47   1.0000      -0.560001       -15.2384
  48   1.0000      -0.552533       -15.0352
  49   1.0000      -0.550771       -14.9872
  50   1.0000      -0.546285       -14.8652
  51   1.0000      -0.540688       -14.7129
  52   1.0000      -0.531152       -14.4534
  53   1.0000      -0.524015       -14.2592
  54   1.0000      -0.515365       -14.0238
  55   1.0000      -0.511129       -13.9085
  56   1.0000      -0.498322       -13.5600
  57   1.0000      -0.425062       -11.5665
  58   1.0000      -0.420706       -11.4480
  59   1.0000      -0.414140       -11.2693
  60   1.0000      -0.403272       -10.9736
  61   1.0000      -0.398707       -10.8494
  62   1.0000      -0.395371       -10.7586
  63   1.0000      -0.383936       -10.4474
  64   1.0000      -0.378857       -10.3092
  65   1.0000      -0.349720        -9.5164
  66   1.0000      -0.311492        -8.4761
  67   0.0000       0.007868         0.2141
  68   0.0000       0.029335         0.7982
  69   0.0000       0.032884         0.8948
  70   0.0000       0.036530         0.9940
  71   0.0000       0.054051         1.4708

                 SPIN DOWN ORBITALS
  NO   OCC          E(Eh)            E(eV)
   0   1.0000     -19.337964      -526.2128
   1   1.0000     -19.324364      -525.8427
   2   1.0000     -19.317604      -525.6587
   3   1.0000     -19.312872      -525.5300
   4   1.0000     -14.572727      -396.5441
   5   1.0000     -14.566972      -396.3875
   6   1.0000     -14.557626      -396.1331
   7   1.0000     -14.554106      -396.0374
   8   1.0000     -10.510156      -285.9959
   9   1.0000     -10.502043      -285.7751
  10   1.0000     -10.485645      -285.3289
  11   1.0000     -10.477837      -285.1164
  12   1.0000     -10.450108      -284.3619
  13   1.0000     -10.440852      -284.1100
  14   1.0000     -10.403956      -283.1060
  15   1.0000     -10.400385      -283.0089
  16   1.0000     -10.382833      -282.5312
  17   1.0000     -10.361490      -281.9505
  18   1.0000      -1.236220       -33.6393
  19   1.0000      -1.215549       -33.0768
  20   1.0000      -1.205225       -32.7959
  21   1.0000      -1.186072       -32.2747
  22   1.0000      -1.118847       -30.4454
  23   1.0000      -1.096461       -29.8362
  24   1.0000      -1.074718       -29.2446
  25   1.0000      -1.046119       -28.4663
  26   1.0000      -0.969513       -26.3818
  27   1.0000      -0.946472       -25.7548
  28   1.0000      -0.878227       -23.8978
  29   1.0000      -0.841893       -22.9091
  30   1.0000      -0.821687       -22.3592
  31   1.0000      -0.800828       -21.7916
  32   1.0000      -0.790798       -21.5187
  33   1.0000      -0.767002       -20.8712
  34   1.0000      -0.706760       -19.2319
  35   1.0000      -0.691805       -18.8250
  36   1.0000      -0.680918       -18.5287
  37   1.0000      -0.676606       -18.4114
  38   1.0000      -0.656614       -17.8674
  39   1.0000      -0.643924       -17.5221
  40   1.0000      -0.612232       -16.6597
  41   1.0000      -0.606109       -16.4931
  42   1.0000      -0.595395       -16.2015
  43   1.0000      -0.584997       -15.9186
  44   1.0000      -0.571672       -15.5560
  45   1.0000      -0.566131       -15.4052
  46   1.0000      -0.559552       -15.2262
  47   1.0000      -0.550519       -14.9804
  48   1.0000      -0.547952       -14.9105
  49   1.0000      -0.543657       -14.7937
  50   1.0000      -0.534886       -14.5550
  51   1.0000      -0.532786       -14.4978
  52   1.0000      -0.523527       -14.2459
  53   1.0000      -0.516410       -14.0522
  54   1.0000      -0.510980       -13.9045
  55   1.0000      -0.503074       -13.6893
  56   1.0000      -0.491051       -13.3622
  57   1.0000      -0.418528       -11.3887
  58   1.0000      -0.413930       -11.2636
  59   1.0000      -0.406406       -11.0589
  60   1.0000      -0.397764       -10.8237
  61   1.0000      -0.393298       -10.7022
  62   1.0000      -0.385169       -10.4810
  63   1.0000      -0.377784       -10.2800
  64   1.0000      -0.370388       -10.0788
  65   0.0000      -0.071028        -1.9328
  66   0.0000      -0.041214        -1.1215
  67   0.0000       0.007340         0.1997
  68   0.0000       0.028974         0.7884
  69   0.0000       0.032585         0.8867

----------------------------------------------------------------------------------------------------
          SPIN FLIP ABSORPTION SPECTRUM VIA TRANSITION ELECTRIC DIPOLE MOMENTS
----------------------------------------------------------------------------------------------------
     Transition      Energy     Energy  Wavelength fosc(D2)      D2        DX        DY        DZ
                      (eV)      (cm-1)    (nm)                 (au**2)    (au)      (au)      (au)
----------------------------------------------------------------------------------------------------
  1-3A  ->  2-3A    0.284456    2294.3  4358.6   0.000122396   0.01756   0.12805  -0.02757   0.02018

Dispersion correction             ... done (  0.1 sec)

MULLIKEN ATOMIC CHARGES AND SPIN DENSITIES
------------------------------------------
   0 O :   -0.613206    0.021168
   1 O :   -0.671263   -0.014820
   2 O :   -0.668364   -0.000734
   3 O :   -0.691288   -0.000046
   4 N :   -0.076259   -0.005959
   5 N :   -0.313674   -0.009461
   6 N :    0.126883    0.000896
   7 N :    0.039656   -0.007447
   8 C :    0.433513    0.379052
   9 C :    0.692399    0.343690
  10 C :    0.322037   -0.220166
  11 C :    0.231898   -0.225851
  12 C :   -1.308502    0.005405
  13 C :   -1.598318   -0.020397
  14 C :   -0.047280   -0.128582
  15 C :    0.209533   -0.179018
  16 C :    0.449852    0.013647
  17 C :    0.397773    0.013895
  18 H :    0.535546   -0.002335
  19 H :    0.430953   -0.001796
  20 H :    0.326698   -0.000748
  21 H :    0.286130    0.017164
  22 H :    0.313400    0.011087
  23 H :    0.297144   -0.004212
  24 H :    0.227926    0.006920
  25 H :    0.520894    0.004208
  26 H :   -0.120387   -0.000741
  27 H :    0.146378    0.002268
  28 H :   -0.003416    0.000896
  29 H :    0.123342    0.002016
Sum of atomic charges       :   -0.0000000

LOEWDIN ATOMIC CHARGES AND SPIN DENSITIES
-----------------------------------------
   0 O :    0.126298    0.017270
   1 O :    0.093787   -0.012361
   2 O :    0.101454   -0.000634
   3 O :    0.044264   -0.000096
   4 N :    0.310145   -0.000072
   5 N :    0.252636   -0.001428
   6 N :    0.380377    0.000056
   7 N :    0.312787   -0.006711
   8 C :   -0.058976    0.073681
   9 C :   -0.037435   -0.050287
  10 C :   -0.052611   -0.009596
  11 C :   -0.103653   -0.012631
  12 C :    0.168676    0.012297
  13 C :    0.219225   -0.006540
  14 C :   -0.484446    0.009847
  15 C :   -0.408385   -0.012344
  16 C :   -0.447106   -0.001029
  17 C :   -0.475959   -0.000701
  18 H :    0.071126   -0.001158
  19 H :    0.063812   -0.003274
  20 H :   -0.010243   -0.000009
  21 H :    0.043648    0.005706
  22 H :    0.009476    0.003077
  23 H :    0.038628    0.000255
  24 H :    0.013839   -0.001756
  25 H :   -0.061524   -0.001160
  26 H :   -0.101597    0.000100
  27 H :   -0.003124   -0.000068
  28 H :   -0.034205    0.000036
  29 H :    0.029085   -0.000469

  Mayer bond orders larger than 0.100000
B(  0-O ,  8-C ) :  -0.1040 B(  0-O , 14-C ) :   1.5513 B(  1-O , 15-C ) :   1.3312
B(  2-O , 16-C ) :   1.4960 B(  3-O , 17-C ) :   1.5143 B(  4-N , 10-C ) :   0.5060
B(  4-N , 16-C ) :   1.0131 B(  4-N , 26-H ) :   1.2606 B(  5-N ,  9-C ) :   0.2225
B(  5-N , 11-C ) :   0.2797 B(  5-N , 17-C ) :   1.1202 B(  5-N , 19-H ) :  -0.1044
B(  5-N , 27-H ) :   0.9834 B(  6-N ,  8-C ) :  -0.1098 B(  6-N , 10-C ) :   0.1094
B(  6-N , 14-C ) :   1.0099 B(  6-N , 16-C ) :   0.9505 B(  6-N , 28-H ) :   1.1467
B(  7-N ,  9-C ) :  -0.1076 B(  7-N , 15-C ) :   1.0731 B(  7-N , 17-C ) :   0.9675
B(  7-N , 29-H ) :   1.0259 B(  8-C ,  9-C ) :   0.2513 B(  8-C , 10-C ) :   0.5331
B(  8-C , 11-C ) :   0.1694 B(  8-C , 12-C ) :   0.3144 B(  8-C , 14-C ) :   0.7460
B(  8-C , 20-H ) :  -0.1174 B(  9-C , 10-C ) :   0.1350 B(  9-C , 11-C ) :   0.6545
B(  9-C , 13-C ) :   0.1408 B(  9-C , 15-C ) :   0.7141 B(  9-C , 19-H ) :  -0.1979
B(  9-C , 23-H ) :  -0.1343 B(  9-C , 24-H ) :  -0.1034 B( 10-C , 11-C ) :   0.3829
B( 10-C , 14-C ) :  -0.2513 B( 10-C , 18-H ) :   0.7011 B( 10-C , 19-H ) :  -0.1036
B( 10-C , 26-H ) :  -0.1170 B( 11-C , 17-C ) :  -0.1430 B( 11-C , 19-H ) :   1.0204
B( 12-C , 20-H ) :   0.9748 B( 12-C , 21-H ) :   0.8722 B( 12-C , 22-H ) :   0.9800
B( 13-C , 14-C ) :   0.1387 B( 13-C , 23-H ) :   1.0425 B( 13-C , 24-H ) :   0.9773
B( 13-C , 25-H ) :   0.7850

Dispersion correction           -0.059696129
FINAL SINGLE POINT ENERGY      -908.770968532039

DIPOLE MOMENT
-------------

Method             : TDA/CIS
Type of density    : Electron Density
Level              : Relaxed density
State              :   1
Multiplicity       :   3
Irrep              :   0
Energy             :     0.0000000000000000 Eh
Relativity type    :
Basis              : AO
                                X                 Y                 Z
Electronic contribution:     -5.791340572      -7.510121904      -6.054720555
Nuclear contribution   :      6.724491912       8.844440199       8.359093839
                        -----------------------------------------
Total Dipole Moment    :      0.933151340       1.334318294       2.304373284
                        -----------------------------------------
Magnitude (a.u.)       :      2.821579871
Magnitude (Debye)      :      7.171886072

Rotational constants in cm-1:             0.022288             0.012482             0.012179
Rotational constants in MHz :           668.187358           374.212023           365.108977

                             ****ORCA TERMINATED NORMALLY****
TOTAL RUN TIME: 0 days 0 hours 4 minutes 36 seconds 909 msec
