                         Program Version 6.0.0  -   RELEASE  -
|  1> ! EnGrad wB97M-D3BJ def2-TZVPPD
|  2> %pal nprocs 8 end%pal nprocs 16 end
|  3> %tddft
|  4>  sf true
|  5>  nroots 2 Iroot 1 end
|  6> *xyz 0 3
|  7> O   0.27938096798447 0.97376081193591 -0.00197308270233
|  8> C   0.64017404332755 -0.31821121512766 -0.00040117578369
|  9> C   -0.73660066761456 -0.67923839882689 0.00051792794841
| 10> H   1.19750963500465 -0.63979090015597 0.88813309976152
| 11> H   1.19770245886817 -0.64176055095604 -0.88804457764662
| 12> H   -1.28852435563407 -0.70809215609895 -0.92591951856976
| 13> H   -1.2874420819362 -0.70506759077039 0.92768732699247
| 14> *
| 15>
| 16>                          ****END OF INPUT****

CARTESIAN COORDINATES (ANGSTROEM)
---------------------------------
  O      0.279381    0.973761   -0.001973
  C      0.640174   -0.318211   -0.000401
  C     -0.736601   -0.679238    0.000518
  H      1.197510   -0.639791    0.888133
  H      1.197702   -0.641761   -0.888045
  H     -1.288524   -0.708092   -0.925920
  H     -1.287442   -0.705068    0.927687

 Total Charge           Charge          ....    0
 Multiplicity           Mult            ....    3
 Number of Electrons    NEL             ....   24
 Basis Dimension        Dim             ....  182

ORBITAL ENERGIES
----------------
                 SPIN UP ORBITALS
  NO   OCC          E(Eh)            E(eV)
   0   1.0000     -19.408933      -528.1439
   1   1.0000     -10.407054      -283.1903
   2   1.0000     -10.338847      -281.3343
   3   1.0000      -1.214741       -33.0548
   4   1.0000      -0.866401       -23.5760
   5   1.0000      -0.741039       -20.1647
   6   1.0000      -0.645392       -17.5620
   7   1.0000      -0.608076       -16.5466
   8   1.0000      -0.550825       -14.9887
   9   1.0000      -0.506258       -13.7760
  10   1.0000      -0.453002       -12.3268
  11   1.0000      -0.438646       -11.9362
  12   1.0000      -0.270331        -7.3561
  13   0.0000       0.040891         1.1127
  14   0.0000       0.063709         1.7336
  15   0.0000       0.072822         1.9816
  16   0.0000       0.085915         2.3379
  17   0.0000       0.116693         3.1754

                 SPIN DOWN ORBITALS
  NO   OCC          E(Eh)            E(eV)
   0   1.0000     -19.380465      -527.3693
   1   1.0000     -10.408218      -283.2220
   2   1.0000     -10.326249      -280.9915
   3   1.0000      -1.154351       -31.4115
   4   1.0000      -0.832153       -22.6440
   5   1.0000      -0.719704       -19.5841
   6   1.0000      -0.602360       -16.3910
   7   1.0000      -0.571641       -15.5551
   8   1.0000      -0.527027       -14.3411
   9   1.0000      -0.473324       -12.8798
  10   1.0000      -0.390797       -10.6341
  11   0.0000      -0.075682        -2.0594
  12   0.0000       0.032927         0.8960
  13   0.0000       0.039381         1.0716
  14   0.0000       0.064134         1.7452
  15   0.0000       0.071494         1.9455

----------------------------------------------------------------------------------------------------
          SPIN FLIP ABSORPTION SPECTRUM VIA TRANSITION ELECTRIC DIPOLE MOMENTS
----------------------------------------------------------------------------------------------------
     Transition      Energy     Energy  Wavelength fosc(D2)      D2        DX        DY        DZ
                      (eV)      (cm-1)    (nm)                 (au**2)    (au)      (au)      (au)
----------------------------------------------------------------------------------------------------
  1-3A  ->  2-3A    2.510162   20245.8   493.9   0.000816451   0.01328  -0.00036  -0.00055  -0.11522

Dispersion correction             ... done (  0.0 sec)

MULLIKEN ATOMIC CHARGES AND SPIN DENSITIES
------------------------------------------
   0 O :   -0.515809   -0.130267
   1 C :   -0.138514   -0.060046
   2 C :   -0.304845    0.078055
   3 H :    0.233730    0.034619
   4 H :    0.233853    0.034522
   5 H :    0.245773    0.021488
   6 H :    0.245812    0.021629
Sum of atomic charges       :   -0.0000000

LOEWDIN ATOMIC CHARGES AND SPIN DENSITIES
-----------------------------------------
   0 O :   -0.058811   -0.154244
   1 C :   -0.347303   -0.002143
   2 C :    0.349521    0.122435
   3 H :    0.029793    0.005891
   4 H :    0.029781    0.005860
   5 H :   -0.001489    0.011095
   6 H :   -0.001492    0.011105

  Mayer bond orders larger than 0.100000
B(  0-O ,  1-C ) :   0.7320 B(  0-O ,  2-C ) :   0.8916 B(  1-C ,  2-C ) :   0.7837
B(  1-C ,  3-H ) :   1.0270 B(  1-C ,  4-H ) :   1.0268 B(  2-C ,  5-H ) :   0.9373
B(  2-C ,  6-H ) :   0.9374

Dispersion correction           -0.005640255
FINAL SINGLE POINT ENERGY      -153.810044936645

DIPOLE MOMENT
-------------

Method             : TDA/CIS
Type of density    : Electron Density
Level              : Relaxed density
State              :   1
Multiplicity       :   3
Irrep              :   0
Energy             :     0.0000000000000000 Eh
Relativity type    :
Basis              : AO
                                X                 Y                 Z
Electronic contribution:     -0.015147495       1.222244422      -0.002129499
Nuclear contribution   :     -0.433082796      -2.589191697       0.004132129
                        -----------------------------------------
Total Dipole Moment    :     -0.448230291      -1.366947275       0.002002630
                        -----------------------------------------
Magnitude (a.u.)       :      1.438561524
Magnitude (Debye)      :      3.656532804

Rotational constants in cm-1:             1.052082             0.509809             0.397152
Rotational constants in MHz :         31540.639654         15283.688640         11906.323723

                             ****ORCA TERMINATED NORMALLY****
TOTAL RUN TIME: 0 days 0 hours 0 minutes 16 seconds 398 msec
