                         Program Version 6.0.0  -   RELEASE  -
|  1> ! Engrad def2-TZVPPD wB97M-D3BJ
|  2> %pal nprocs 8 end%pal nprocs 64 end
|  3> %tddft
|  4>  Iroot 1 Nroots 3
|  5> sf true
|  6> end
|  7> *xyz 0 3
|  8> O   1.21161997 0.87408012 0.35190209
|  9> C   0.17488868 -0.01519553 0.554295
| 10> C   -0.21118206 -0.70150606 -0.7153784
| 11> H   -0.67765282 0.41104058 1.01575549
| 12> H   0.38985415 -0.92413547 1.12968162
| 13> H   -1.17803305 -0.60246771 -1.30372506
| 14> H   0.42149112 -1.27748245 -1.32385805
| 15> *
| 16>
| 17>                          ****END OF INPUT****

CARTESIAN COORDINATES (ANGSTROEM)
---------------------------------
  O      1.211620    0.874080    0.351902
  C      0.174889   -0.015196    0.554295
  C     -0.211182   -0.701506   -0.715378
  H     -0.677653    0.411041    1.015755
  H      0.389854   -0.924135    1.129682
  H     -1.178033   -0.602468   -1.303725
  H      0.421491   -1.277482   -1.323858

 Total Charge           Charge          ....    0
 Multiplicity           Mult            ....    3
 Number of Electrons    NEL             ....   24
 Basis Dimension        Dim             ....  182

ORBITAL ENERGIES
----------------
                 SPIN UP ORBITALS
  NO   OCC          E(Eh)            E(eV)
   0   1.0000     -19.394490      -527.7509
   1   1.0000     -10.413521      -283.3663
   2   1.0000     -10.374585      -282.3068
   3   1.0000      -1.166984       -31.7553
   4   1.0000      -0.885162       -24.0865
   5   1.0000      -0.742274       -20.1983
   6   1.0000      -0.611213       -16.6319
   7   1.0000      -0.589282       -16.0352
   8   1.0000      -0.567075       -15.4309
   9   1.0000      -0.502665       -13.6782
  10   1.0000      -0.441644       -12.0178
  11   1.0000      -0.419626       -11.4186
  12   1.0000      -0.327299        -8.9063
  13   0.0000       0.040587         1.1044
  14   0.0000       0.060181         1.6376
  15   0.0000       0.078920         2.1475
  16   0.0000       0.087905         2.3920
  17   0.0000       0.112228         3.0539

                 SPIN DOWN ORBITALS
  NO   OCC          E(Eh)            E(eV)
   0   1.0000     -19.370271      -527.0919
   1   1.0000     -10.414771      -283.4003
   2   1.0000     -10.360101      -281.9127
   3   1.0000      -1.111511       -30.2457
   4   1.0000      -0.851292       -23.1648
   5   1.0000      -0.716084       -19.4856
   6   1.0000      -0.591927       -16.1072
   7   1.0000      -0.545700       -14.8493
   8   1.0000      -0.533479       -14.5167
   9   1.0000      -0.475113       -12.9285
  10   1.0000      -0.389685       -10.6039
  11   0.0000      -0.062153        -1.6913
  12   0.0000      -0.000533        -0.0145
  13   0.0000       0.039936         1.0867
  14   0.0000       0.060986         1.6595
  15   0.0000       0.079174         2.1544

----------------------------------------------------------------------------------------------------
          SPIN FLIP ABSORPTION SPECTRUM VIA TRANSITION ELECTRIC DIPOLE MOMENTS
----------------------------------------------------------------------------------------------------
     Transition      Energy     Energy  Wavelength fosc(D2)      D2        DX        DY        DZ
                      (eV)      (cm-1)    (nm)                 (au**2)    (au)      (au)      (au)
----------------------------------------------------------------------------------------------------
  1-3A  ->  2-3A    0.410432    3310.4  3020.8   0.000082719   0.00823   0.08383  -0.03326   0.00960
  1-3A  ->  3-3A    1.123747    9063.6  1103.3   0.049997918   1.81604   0.73047   0.86432   0.73171

Dispersion correction             ... done (  0.2 sec)

MULLIKEN ATOMIC CHARGES AND SPIN DENSITIES
------------------------------------------
   0 O :   -0.468264   -0.262598
   1 C :   -0.066550   -0.032753
   2 C :   -0.367442    0.297654
   3 H :    0.218188   -0.047820
   4 H :    0.201021   -0.019893
   5 H :    0.201900    0.035714
   6 H :    0.281147    0.029696
Sum of atomic charges       :   -0.0000000

LOEWDIN ATOMIC CHARGES AND SPIN DENSITIES
-----------------------------------------
   0 O :   -0.039679   -0.272431
   1 C :   -0.293845   -0.023910
   2 C :    0.375185    0.285372
   3 H :    0.000860   -0.030000
   4 H :    0.013535   -0.018748
   5 H :    0.007574    0.025460
   6 H :   -0.063630    0.034257

  Mayer bond orders larger than 0.100000
B(  0-O ,  1-C ) :   0.9623 B(  0-O ,  2-C ) :   0.4670 B(  1-C ,  2-C ) :   0.8288
B(  1-C ,  3-H ) :   0.9988 B(  1-C ,  4-H ) :   0.9880 B(  2-C ,  5-H ) :   0.9689
B(  2-C ,  6-H ) :   0.9169

Dispersion correction           -0.005486928
FINAL SINGLE POINT ENERGY      -153.751440762574

DIPOLE MOMENT
-------------

Method             : TDA/CIS
Type of density    : Electron Density
Level              : Relaxed density
State              :   1
Multiplicity       :   3
Irrep              :   0
Energy             :     0.0000000000000000 Eh
Relativity type    :
Basis              : AO
                                X                 Y                 Z
Electronic contribution:      1.412063325       1.445472964       0.397690773
Nuclear contribution   :     -2.492364044      -2.485651007      -0.721599444
                        -----------------------------------------
Total Dipole Moment    :     -1.080300719      -1.040178043      -0.323908671
                        -----------------------------------------
Magnitude (a.u.)       :      1.534254487
Magnitude (Debye)      :      3.899764988

Rotational constants in cm-1:             1.398084             0.349285             0.306236
Rotational constants in MHz :         41913.505198         10471.305482          9180.738386

                             ****ORCA TERMINATED NORMALLY****
TOTAL RUN TIME: 0 days 0 hours 0 minutes 28 seconds 391 msec
