                         Program Version 6.0.0  -   RELEASE  -
|  1> ! opt def2-TZVPPD wB97M-D3BJ
|  2> %pal nprocs 8 end%pal nprocs 32 end
|  3> %geom Constraints
|  4> {B 9 8 3.1 C}
|  5> {A 8 9 11 98.0 C}
|  6> end
|  7> MaxIter 300
|  8> end
|  9> *xyz 0 1
| 10> O   2.98579685529314 0.88758230159078 -0.86184571092411
| 11> O   -0.03983205397054 0.68929041702508 -2.10362336723772
| 12> O   0.93431434349854 -3.13274393337945 -0.68767288184107
| 13> O   -3.75829998830163 -0.84727300865116 -0.0472717177755
| 14> N   0.21184538946282 -1.54604804365365 0.7617588924445
| 15> N   -2.13631993928911 0.03188773433438 1.27350571071531
| 16> N   2.02598672506387 -1.14318467211666 -0.64531219127023
| 17> N   -1.91814233924584 0.03137116037665 -1.04498946748291
| 18> C   1.18097737274226 0.71693507080484 0.70173889017321
| 19> C   -0.20686880480777 1.27024627933494 0.21345042231937
| 20> C   0.41441080275909 -0.34173258966541 1.52336266615173
| 21> C   -0.82922175114212 0.58960593673968 1.44434972027296
| 22> C   1.92822011286806 1.69488653817281 1.5963734975385
| 23> C   -0.37809776891576 2.77134929626422 0.04819649358288
| 24> C   2.1403947470937 0.1972384729179 -0.35038567829864
| 25> C   -0.67361678962426 0.6214190571346 -1.0793014500539
| 26> C   1.04142578622994 -2.02697492875068 -0.21027082435993
| 27> C   -2.68467002550422 -0.30396816036989 0.07167054343891
| 28> H   0.80817443950001 -0.54572267081061 2.51895215321335
| 29> H   -0.83785272399001 1.27240685039143 2.28901317073582
| 30> H   2.31167340578204 2.52284411740894 1.00913016264629
| 31> H   1.28982602448342 2.08257620823614 2.38710022492991
| 32> H   2.77390820759972 1.19140411795486 2.06045858523949
| 33> H   -1.41857211141493 3.00964947214868 -0.16882755561625
| 34> H   -0.09065531563179 3.29799318042223 0.95389844358819
| 35> H   0.23426221611057 3.12492645074476 -0.77764887675592
| 36> H   -0.46772570547622 -2.21560145172536 1.0787081584806
| 37> H   -2.71769301149571 -0.17090724573546 2.06627440900372
| 38> H   2.60065167263658 -1.49057255715425 -1.3966820077142
| 39> H   -2.27169977231386 -0.32388339999036 -1.91951041514436
| 40> *
| 41>
| 42>                          ****END OF INPUT****
 Total Charge           Charge          ....    0
 Multiplicity           Mult            ....    1
 Number of Electrons    NEL             ....  132
Dispersion correction           -0.053156064
FINAL SINGLE POINT ENERGY      -908.559939713289
Dispersion correction             ... done (  0.0 sec)
Dispersion correction           -0.053571404
FINAL SINGLE POINT ENERGY      -908.619815729474
Dispersion correction             ... done (  0.0 sec)
Dispersion correction           -0.054054358
FINAL SINGLE POINT ENERGY      -908.673668753968
Dispersion correction             ... done (  0.0 sec)
FINAL SINGLE POINT ENERGY      -908.744095425746
FINAL SINGLE POINT ENERGY      -908.811781850697
FINAL SINGLE POINT ENERGY      -908.851845297634
FINAL SINGLE POINT ENERGY      -908.875742390742
FINAL SINGLE POINT ENERGY      -908.900429858903
FINAL SINGLE POINT ENERGY      -908.914328988303
FINAL SINGLE POINT ENERGY      -908.919145812097
FINAL SINGLE POINT ENERGY      -908.930269031851
FINAL SINGLE POINT ENERGY      -908.930332540506
FINAL SINGLE POINT ENERGY      -908.930381693361
FINAL SINGLE POINT ENERGY      -908.930467181861
FINAL SINGLE POINT ENERGY      -908.930510465846
FINAL SINGLE POINT ENERGY      -908.930557845605
FINAL SINGLE POINT ENERGY      -908.930588009072
Dispersion correction             ... done (  0.0 sec)
Dispersion correction           -0.058248121
FINAL SINGLE POINT ENERGY      -908.930604750458
Dispersion correction             ... done (  0.0 sec)
Dispersion correction           -0.058215706
FINAL SINGLE POINT ENERGY      -908.930608147882
Dispersion correction             ... done (  0.0 sec)
                    ***********************HURRAY********************

CARTESIAN COORDINATES (ANGSTROEM)
---------------------------------
  O      2.928128    1.249469   -0.495421
  O     -0.532356    0.426890   -1.863842
  O      1.412719   -2.835226   -1.793486
  O     -3.114981   -1.368547    1.400341
  N      0.766063   -2.017561    0.230596
  N     -2.355303    0.765124    1.658632
  N      2.207184   -0.810207   -1.097285
  N     -1.923411   -0.387981   -0.279917
  C      1.476359    0.120089    1.002756
  C     -0.946398    1.794166    0.034397
  C      0.796027   -1.020277    1.174376
  C     -1.618568    1.833480    1.188699
  C      1.585756    1.185297    2.045503
  C     -0.136597    2.931076   -0.500469
  C      2.259070    0.272803   -0.227706
  C     -1.082224    0.598039   -0.797829
  C      1.455948   -1.957263   -0.964570
  C     -2.516478   -0.410206    0.961713
  H      0.219450   -1.217028    2.066362
  H     -1.592935    2.693568    1.840203
  H      1.354436    2.162682    1.631063
  H      0.910065    0.982951    2.873877
  H      2.603072    1.238485    2.430109
  H     -0.523303    3.249739   -1.466626
  H     -0.163452    3.776248    0.183838
  H      0.899387    2.637014   -0.654252
  H      0.226155   -2.851130    0.378118
  H     -2.811503    0.803236    2.551879
  H      2.685778   -0.701823   -1.977317
  H     -2.015493   -1.228111   -0.829145

 Multiplicity           Mult            ....    1
 Number of Electrons    NEL             ....  132
 Basis Dimension        Dim             ....  882

ORBITAL ENERGIES
----------------

  NO   OCC          E(Eh)            E(eV)
   0   2.0000     -19.329297      -525.9769
   1   2.0000     -19.326652      -525.9049
   2   2.0000     -19.317588      -525.6583
   3   2.0000     -19.315897      -525.6123
   4   2.0000     -14.586449      -396.9174
   5   2.0000     -14.576187      -396.6382
   6   2.0000     -14.572583      -396.5401
   7   2.0000     -14.560225      -396.2039
   8   2.0000     -10.516003      -286.1550
   9   2.0000     -10.503489      -285.8145
  10   2.0000     -10.481324      -285.2113
  11   2.0000     -10.473395      -284.9956
  12   2.0000     -10.431804      -283.8638
  13   2.0000     -10.428598      -283.7766
  14   2.0000     -10.381061      -282.4830
  15   2.0000     -10.377294      -282.3805
  16   2.0000     -10.358701      -281.8746
  17   2.0000     -10.351864      -281.6885
  18   2.0000      -1.228935       -33.4410
  19   2.0000      -1.216769       -33.1100
  20   2.0000      -1.196929       -32.5701
  21   2.0000      -1.186614       -32.2894
  22   2.0000      -1.124727       -30.6054
  23   2.0000      -1.115230       -30.3469
  24   2.0000      -1.072537       -29.1852
  25   2.0000      -1.061588       -28.8873
  26   2.0000      -0.960832       -26.1456
  27   2.0000      -0.951790       -25.8995
  28   2.0000      -0.848525       -23.0895
  29   2.0000      -0.846254       -23.0278
  30   2.0000      -0.812646       -22.1132
  31   2.0000      -0.806109       -21.9353
  32   2.0000      -0.796623       -21.6772
  33   2.0000      -0.786749       -21.4085
  34   2.0000      -0.696954       -18.9651
  35   2.0000      -0.694694       -18.9036
  36   2.0000      -0.690866       -18.7994
  37   2.0000      -0.686154       -18.6712
  38   2.0000      -0.643633       -17.5142
  39   2.0000      -0.636490       -17.3198
  40   2.0000      -0.630675       -17.1615
  41   2.0000      -0.603145       -16.4124
  42   2.0000      -0.598734       -16.2924
  43   2.0000      -0.590855       -16.0780
  44   2.0000      -0.569001       -15.4833
  45   2.0000      -0.562703       -15.3119
  46   2.0000      -0.557790       -15.1782
  47   2.0000      -0.552850       -15.0438
  48   2.0000      -0.548003       -14.9119
  49   2.0000      -0.537314       -14.6211
  50   2.0000      -0.520873       -14.1737
  51   2.0000      -0.518393       -14.1062
  52   2.0000      -0.516328       -14.0500
  53   2.0000      -0.513888       -13.9836
  54   2.0000      -0.503398       -13.6982
  55   2.0000      -0.498845       -13.5743
  56   2.0000      -0.479225       -13.0404
  57   2.0000      -0.471251       -12.8234
  58   2.0000      -0.421758       -11.4766
  59   2.0000      -0.409392       -11.1401
  60   2.0000      -0.406224       -11.0539
  61   2.0000      -0.391354       -10.6493
  62   2.0000      -0.390048       -10.6137
  63   2.0000      -0.381416       -10.3789
  64   2.0000      -0.354182        -9.6378
  65   2.0000      -0.336402        -9.1540
  66   0.0000       0.010963         0.2983
  67   0.0000       0.017709         0.4819
  68   0.0000       0.023358         0.6356
  69   0.0000       0.031202         0.8491
  70   0.0000       0.039895         1.0856

MULLIKEN ATOMIC CHARGES
-----------------------
   0 O :   -0.681591
   1 O :   -0.660866
   2 O :   -0.656079
   3 O :   -0.666273
   4 N :   -0.051084
   5 N :   -0.019108
   6 N :    0.005260
   7 N :   -0.017625
   8 C :    0.806483
   9 C :    0.457995
  10 C :   -0.071403
  11 C :    0.168545
  12 C :   -1.533702
  13 C :   -1.417954
  14 C :    0.440528
  15 C :    0.545603
  16 C :    0.507364
  17 C :    0.480936
  18 H :    0.229062
  19 H :    0.180644
  20 H :    0.217035
  21 H :    0.308999
  22 H :    0.411770
  23 H :    0.374838
  24 H :    0.322138
  25 H :    0.202088
  26 H :    0.023240
  27 H :    0.019348
  28 H :    0.028111
  29 H :    0.045695
Sum of atomic charges:   -0.0000000

LOEWDIN ATOMIC CHARGES
----------------------
   0 O :    0.084975
   1 O :    0.105726
   2 O :    0.090142
   3 O :    0.076006
   4 N :    0.283939
   5 N :    0.281903
   6 N :    0.343295
   7 N :    0.334150
   8 C :   -0.139877
   9 C :   -0.148540
  10 C :    0.044255
  11 C :    0.050624
  12 C :    0.177920
  13 C :    0.184156
  14 C :   -0.396963
  15 C :   -0.397818
  16 C :   -0.474505
  17 C :   -0.489846
  18 H :    0.040222
  19 H :    0.038476
  20 H :   -0.019497
  21 H :   -0.005095
  22 H :    0.004764
  23 H :    0.005104
  24 H :   -0.002191
  25 H :   -0.022495
  26 H :   -0.017992
  27 H :   -0.021507
  28 H :   -0.002784
  29 H :   -0.006548

  Mayer bond orders larger than 0.100000
B(  0-O , 14-C ) :   1.4277 B(  1-O , 15-C ) :   1.4271 B(  2-O , 16-C ) :   1.5573
B(  3-O , 17-C ) :   1.5515 B(  4-N , 10-C ) :   0.9414 B(  4-N , 16-C ) :   1.0185
B(  4-N , 26-H ) :   1.1544 B(  5-N , 11-C ) :   0.9728 B(  5-N , 17-C ) :   1.0393
B(  5-N , 27-H ) :   1.1449 B(  6-N , 14-C ) :   1.0585 B(  6-N , 16-C ) :   0.9775
B(  6-N , 28-H ) :   1.0972 B(  7-N , 15-C ) :   1.0330 B(  7-N , 17-C ) :   0.9549
B(  7-N , 29-H ) :   1.1016 B(  8-C , 10-C ) :   0.9912 B(  8-C , 12-C ) :   0.3290
B(  8-C , 14-C ) :   0.6482 B(  8-C , 18-H ) :  -0.1265 B(  8-C , 20-H ) :  -0.1031
B(  9-C , 11-C ) :   1.0961 B(  9-C , 13-C ) :   0.3774 B(  9-C , 15-C ) :   0.8386
B(  9-C , 24-H ) :  -0.1065 B( 10-C , 12-C ) :  -0.1691 B( 10-C , 18-H ) :   1.1332
B( 11-C , 13-C ) :  -0.2226 B( 11-C , 19-H ) :   1.0657 B( 12-C , 20-H ) :   1.0608
B( 12-C , 21-H ) :   1.0391 B( 12-C , 22-H ) :   0.8304 B( 13-C , 23-H ) :   0.8826
B( 13-C , 24-H ) :   1.0718 B( 13-C , 25-H ) :   0.9741

Dispersion correction           -0.058215566
FINAL SINGLE POINT ENERGY      -908.930609389092

DIPOLE MOMENT
-------------

Method             : SCF
Type of density    : Electron Density
Multiplicity       :   1
Irrep              :   0
Energy             :  -908.8723938231579496 Eh
Relativity type    :
Basis              : AO
                                X                 Y                 Z
Electronic contribution:     -2.090958164      -9.703018232      -5.405007747
Nuclear contribution   :      1.238686719      10.731635342       7.565226649
                        -----------------------------------------
Total Dipole Moment    :     -0.852271445       1.028617109       2.160218901
                        -----------------------------------------
Magnitude (a.u.)       :      2.539875090
Magnitude (Debye)      :      6.455849425

Rotational constants in cm-1:             0.019693             0.013732             0.011066
Rotational constants in MHz :           590.377998           411.667036           331.740979

                             ****ORCA TERMINATED NORMALLY****
TOTAL RUN TIME: 0 days 1 hours 25 minutes 56 seconds 847 msec
