                         Program Version 6.0.0  -   RELEASE  -
|  1> ! EnGrad wB97M-D3BJ def2-TZVPPD
|  2> %pal nprocs 8 end%pal nprocs 16 end
|  3> %tddft
|  4>  sf true
|  5>  nroots 2 Iroot 2 end
|  6> *xyz 0 3
|  7> O   0.75297511915636 1.3559578620374 0.05751783504082
|  8> C   0.54612919932516 0.19359890082226 0.2686456554329
|  9> C   -0.4558889647206 -0.78882761722296 -0.25298237119537
| 10> H   1.21618195401642 -0.30998328274565 1.00289339263411
| 11> H   0.09312850372336 -1.61834322772954 -0.69845971711797
| 12> H   -1.1453991958285 -0.36277001468655 -0.97735855072583
| 13> H   -1.00492661567219 -1.18803262047496 0.59974375593134
| 14> *
| 15>
| 16>                          ****END OF INPUT****

CARTESIAN COORDINATES (ANGSTROEM)
---------------------------------
  O      0.752975    1.355958    0.057518
  C      0.546129    0.193599    0.268646
  C     -0.455889   -0.788828   -0.252982
  H      1.216182   -0.309983    1.002893
  H      0.093129   -1.618343   -0.698460
  H     -1.145399   -0.362770   -0.977359
  H     -1.004927   -1.188033    0.599744

 Total Charge           Charge          ....    0
 Multiplicity           Mult            ....    3
 Number of Electrons    NEL             ....   24
 Basis Dimension        Dim             ....  182

ORBITAL ENERGIES
----------------
                 SPIN UP ORBITALS
  NO   OCC          E(Eh)            E(eV)
   0   1.0000     -19.407206      -528.0969
   1   1.0000     -10.380018      -282.4546
   2   1.0000     -10.369190      -282.1600
   3   1.0000      -1.243991       -33.8507
   4   1.0000      -0.886702       -24.1284
   5   1.0000      -0.716287       -19.4912
   6   1.0000      -0.631230       -17.1767
   7   1.0000      -0.589017       -16.0280
   8   1.0000      -0.581039       -15.8109
   9   1.0000      -0.516575       -14.0567
  10   1.0000      -0.515823       -14.0363
  11   1.0000      -0.427807       -11.6412
  12   1.0000      -0.218110        -5.9351
  13   0.0000       0.038978         1.0606
  14   0.0000       0.059936         1.6310
  15   0.0000       0.077841         2.1181
  16   0.0000       0.087579         2.3832
  17   0.0000       0.106816         2.9066

                 SPIN DOWN ORBITALS
  NO   OCC          E(Eh)            E(eV)
   0   1.0000     -19.379956      -527.3554
   1   1.0000     -10.369772      -282.1759
   2   1.0000     -10.367175      -282.1052
   3   1.0000      -1.187425       -32.3115
   4   1.0000      -0.867671       -23.6105
   5   1.0000      -0.670706       -18.2508
   6   1.0000      -0.585494       -15.9321
   7   1.0000      -0.541533       -14.7359
   8   1.0000      -0.535801       -14.5799
   9   1.0000      -0.498127       -13.5547
  10   1.0000      -0.471582       -12.8324
  11   0.0000      -0.082767        -2.2522
  12   0.0000       0.039841         1.0841
  13   0.0000       0.059601         1.6218
  14   0.0000       0.077496         2.1088
  15   0.0000       0.084756         2.3063

----------------------------------------------------------------------------------------------------
          SPIN FLIP ABSORPTION SPECTRUM VIA TRANSITION ELECTRIC DIPOLE MOMENTS
----------------------------------------------------------------------------------------------------
     Transition      Energy     Energy  Wavelength fosc(D2)      D2        DX        DY        DZ
                      (eV)      (cm-1)    (nm)                 (au**2)    (au)      (au)      (au)
----------------------------------------------------------------------------------------------------
  1-3A  ->  2-3A    4.624936   37302.6   268.1   0.000244206   0.00216  -0.02907   0.01139   0.03436

Dispersion correction             ... done (  0.0 sec)

MULLIKEN ATOMIC CHARGES AND SPIN DENSITIES
------------------------------------------
   0 O :   -0.271472    0.564865
   1 C :    0.231662   -0.604931
   2 C :   -0.709178    0.125870
   3 H :    0.087025    0.017448
   4 H :    0.207292   -0.049887
   5 H :    0.248754   -0.002185
   6 H :    0.205916   -0.051180
Sum of atomic charges       :    0.0000000

LOEWDIN ATOMIC CHARGES AND SPIN DENSITIES
-----------------------------------------
   0 O :    0.157093    0.377082
   1 C :   -0.259304   -0.335083
   2 C :    0.132886   -0.018993
   3 H :    0.016871    0.014907
   4 H :   -0.020344   -0.022807
   5 H :   -0.006853    0.007680
   6 H :   -0.020349   -0.022786

  Mayer bond orders larger than 0.100000
B(  0-O ,  1-C ) :   1.2948 B(  1-C ,  2-C ) :   0.6124 B(  1-C ,  3-H ) :   0.9968
B(  2-C ,  4-H ) :   1.0138 B(  2-C ,  5-H ) :   0.9280 B(  2-C ,  6-H ) :   1.0149

Dispersion correction           -0.005514856
FINAL SINGLE POINT ENERGY      -153.751979651002

DIPOLE MOMENT
-------------

Method             : TDA/CIS
Type of density    : Electron Density
Level              : Relaxed density
State              :   2
Multiplicity       :   3
Irrep              :   0
Energy             :     0.0000000000000000 Eh
Relativity type    :
Basis              : AO
                                X                 Y                 Z
Electronic contribution:      1.587211969       3.569764135       0.157329076
Nuclear contribution   :     -1.828348301      -4.187949329      -0.156286479
                        -----------------------------------------
Total Dipole Moment    :     -0.241136331      -0.618185194       0.001042597
                        -----------------------------------------
Magnitude (a.u.)       :      0.663551619
Magnitude (Debye)      :      1.686614178

Rotational constants in cm-1:             2.184772             0.319507             0.293807
Rotational constants in MHz :         65497.827821          9578.590109          8808.126241

                             ****ORCA TERMINATED NORMALLY****
TOTAL RUN TIME: 0 days 0 hours 0 minutes 16 seconds 379 msec
