                         Program Version 6.0.0  -   RELEASE  -
|  1> ! Opt wB97M-D3BJ def2-TZVPPD
|  2> %pal nprocs 8 end %pal nprocs 64 end
|  3> %geom
|  4> Constraints
|  5>     {A 2 1 0 79.83050847457628 C }
|  6> end
|  7> MaxIter 200
|  8> end
|  9> *xyz 0 1
| 10> O   0.49677601105033187 1.0042402022485604 0.0
| 11> C   0.7509 -0.4065 0.0
| 12> C   -0.7502 -0.4076 0.0
| 13> H   1.2625 -0.6786 0.9136
| 14> H   1.2625 -0.6787 -0.9136
| 15> H   -1.2614 -0.6806 -0.9136
| 16> H   -1.2614 -0.6805 0.9136
| 17> *
| 18>
| 19>                          ****END OF INPUT****
 Total Charge           Charge          ....    0
 Multiplicity           Mult            ....    1
 Number of Electrons    NEL             ....   24
Dispersion correction           -0.005468146
FINAL SINGLE POINT ENERGY      -153.829051958116
Dispersion correction             ... done (  0.1 sec)
Dispersion correction           -0.005389586
FINAL SINGLE POINT ENERGY      -153.843996509034
Dispersion correction             ... done (  0.1 sec)
Dispersion correction           -0.005332876
FINAL SINGLE POINT ENERGY      -153.850166564461
Dispersion correction             ... done (  0.1 sec)
FINAL SINGLE POINT ENERGY      -153.851946919789
FINAL SINGLE POINT ENERGY      -153.852303596877
FINAL SINGLE POINT ENERGY      -153.852360959410
Dispersion correction             ... done (  0.1 sec)
Dispersion correction           -0.005335830
FINAL SINGLE POINT ENERGY      -153.852384538832
Dispersion correction             ... done (  0.1 sec)
Dispersion correction           -0.005336590
FINAL SINGLE POINT ENERGY      -153.852388007527
Dispersion correction             ... done (  0.1 sec)
                    ***********************HURRAY********************

CARTESIAN COORDINATES (ANGSTROEM)
---------------------------------
  O      0.339242    0.921243   -0.000332
  C      0.732994   -0.369902   -0.000095
  C     -0.673606   -0.537387   -0.000110
  H      1.268840   -0.700013    0.894385
  H      1.269102   -0.700368   -0.894287
  H     -1.218945   -0.571590   -0.928089
  H     -1.217950   -0.570242    0.928527

 Multiplicity           Mult            ....    1
 Number of Electrons    NEL             ....   24
 Basis Dimension        Dim             ....  182

ORBITAL ENERGIES
----------------

  NO   OCC          E(Eh)            E(eV)
   0   2.0000     -19.343521      -526.3640
   1   2.0000     -10.417535      -283.4755
   2   2.0000     -10.396589      -282.9056
   3   2.0000      -1.163150       -31.6509
   4   2.0000      -0.848608       -23.0918
   5   2.0000      -0.738720       -20.1016
   6   2.0000      -0.627045       -17.0628
   7   2.0000      -0.586109       -15.9488
   8   2.0000      -0.506953       -13.7949
   9   2.0000      -0.500620       -13.6226
  10   2.0000      -0.404437       -11.0053
  11   2.0000      -0.371614       -10.1121
  12   0.0000       0.024694         0.6720
  13   0.0000       0.044878         1.2212
  14   0.0000       0.060763         1.6534
  15   0.0000       0.076797         2.0898
  16   0.0000       0.101612         2.7650

MULLIKEN ATOMIC CHARGES
-----------------------
   0 O :   -0.443840
   1 C :   -0.091875
   2 C :   -0.299119
   3 H :    0.209089
   4 H :    0.209159
   5 H :    0.208241
   6 H :    0.208346
Sum of atomic charges:   -0.0000000

LOEWDIN ATOMIC CHARGES
----------------------
   0 O :   -0.023355
   1 C :   -0.272116
   2 C :    0.252353
   3 H :    0.024634
   4 H :    0.024639
   5 H :   -0.003071
   6 H :   -0.003084

  Mayer bond orders larger than 0.100000
B(  0-O ,  1-C ) :   0.6841 B(  0-O ,  2-C ) :   0.9353 B(  1-C ,  2-C ) :   0.7756
B(  1-C ,  3-H ) :   1.0512 B(  1-C ,  4-H ) :   1.0509 B(  2-C ,  5-H ) :   0.9711
B(  2-C ,  6-H ) :   0.9711

Dispersion correction           -0.005336760
FINAL SINGLE POINT ENERGY      -153.852388364304

DIPOLE MOMENT
-------------

Method             : SCF
Type of density    : Electron Density
Multiplicity       :   1
Irrep              :   0
Energy             :  -153.8470516038046867 Eh
Relativity type    :
Basis              : AO
                                X                 Y                 Z
Electronic contribution:      0.128235353       1.484436229      -0.000936751
Nuclear contribution   :     -0.434069410      -2.480798800       0.001115682
                        -----------------------------------------
Total Dipole Moment    :     -0.305834057      -0.996362571       0.000178930
                        -----------------------------------------
Magnitude (a.u.)       :      1.042244154
Magnitude (Debye)      :      2.649174105

Rotational constants in cm-1:             0.963572             0.589381             0.427884
Rotational constants in MHz :         28887.161654         17669.210588         12827.645414

                             ****ORCA TERMINATED NORMALLY****
TOTAL RUN TIME: 0 days 0 hours 1 minutes 55 seconds 293 msec
