                         Program Version 6.0.0  -   RELEASE  -
|  1> ! Engrad def2-TZVPPD wB97M-D3BJ
|  2> %pal nprocs 8 end%pal nprocs 32 end
|  3> %tddft Nroots 2 Iroot 1
|  4> sf true
|  5> end
|  6> *xyz 0 3
|  7> O   0.44559883 1.31965713 0.00172126
|  8> C   0.41954825 -0.29170894 -0.02277354
|  9> C   -0.8502919 -1.20047109 0.02450141
| 10> H   0.89120937 -0.58946511 0.86172968
| 11> H   1.04304011 -0.56921778 -0.91134178
| 12> H   -1.44708018 -1.24873289 -0.88389945
| 13> H   -1.46496165 -0.94647406 0.87542052
| 14> *
| 15>
| 16>                          ****END OF INPUT****

CARTESIAN COORDINATES (ANGSTROEM)
---------------------------------
  O      0.445599    1.319657    0.001721
  C      0.419548   -0.291709   -0.022774
  C     -0.850292   -1.200471    0.024501
  H      0.891209   -0.589465    0.861730
  H      1.043040   -0.569218   -0.911342
  H     -1.447080   -1.248733   -0.883899
  H     -1.464962   -0.946474    0.875421

 Total Charge           Charge          ....    0
 Multiplicity           Mult            ....    3
 Number of Electrons    NEL             ....   24
 Basis Dimension        Dim             ....  182

ORBITAL ENERGIES
----------------
                 SPIN UP ORBITALS
  NO   OCC          E(Eh)            E(eV)
   0   1.0000     -19.404375      -528.0199
   1   1.0000     -10.420828      -283.5651
   2   1.0000     -10.391409      -282.7646
   3   1.0000      -1.106630       -30.1129
   4   1.0000      -0.886124       -24.1127
   5   1.0000      -0.741305       -20.1719
   6   1.0000      -0.601023       -16.3547
   7   1.0000      -0.538872       -14.6635
   8   1.0000      -0.525044       -14.2872
   9   1.0000      -0.512023       -13.9329
  10   1.0000      -0.459381       -12.5004
  11   1.0000      -0.421792       -11.4775
  12   1.0000      -0.368741       -10.0340
  13   0.0000       0.039647         1.0789
  14   0.0000       0.061728         1.6797
  15   0.0000       0.079922         2.1748
  16   0.0000       0.084833         2.3084
  17   0.0000       0.109611         2.9827

                 SPIN DOWN ORBITALS
  NO   OCC          E(Eh)            E(eV)
   0   1.0000     -19.376716      -527.2672
   1   1.0000     -10.422321      -283.6058
   2   1.0000     -10.378052      -282.4011
   3   1.0000      -1.035370       -28.1739
   4   1.0000      -0.858724       -23.3671
   5   1.0000      -0.720628       -19.6093
   6   1.0000      -0.582813       -15.8591
   7   1.0000      -0.505517       -13.7558
   8   1.0000      -0.495335       -13.4788
   9   1.0000      -0.481980       -13.1153
  10   1.0000      -0.389926       -10.6104
  11   0.0000      -0.048774        -1.3272
  12   0.0000      -0.037766        -1.0277
  13   0.0000       0.038900         1.0585
  14   0.0000       0.062463         1.6997
  15   0.0000       0.082157         2.2356

----------------------------------------------------------------------------------------------------
          SPIN FLIP ABSORPTION SPECTRUM VIA TRANSITION ELECTRIC DIPOLE MOMENTS
----------------------------------------------------------------------------------------------------
     Transition      Energy     Energy  Wavelength fosc(D2)      D2        DX        DY        DZ
                      (eV)      (cm-1)    (nm)                 (au**2)    (au)      (au)      (au)
----------------------------------------------------------------------------------------------------
  1-3A  ->  2-3A    0.034474     278.0  35964.8   0.000000980   0.00116  -0.01034  -0.03085  -0.01008

Dispersion correction             ... done (  0.1 sec)

MULLIKEN ATOMIC CHARGES AND SPIN DENSITIES
------------------------------------------
   0 O :   -0.293698    0.841959
   1 C :   -0.039898    0.184514
   2 C :   -0.609816   -0.984711
   3 H :    0.242931    0.015017
   4 H :    0.245777    0.023142
   5 H :    0.228589   -0.041324
   6 H :    0.226115   -0.038597
Sum of atomic charges       :   -0.0000000

LOEWDIN ATOMIC CHARGES AND SPIN DENSITIES
-----------------------------------------
   0 O :   -0.037442    0.804931
   1 C :   -0.073284   -0.044309
   2 C :    0.297320   -0.616807
   3 H :   -0.056860   -0.002751
   4 H :    0.018443    0.008570
   5 H :   -0.071180   -0.076481
   6 H :   -0.076997   -0.073152

  Mayer bond orders larger than 0.100000
B(  0-O ,  1-C ) :   0.8024 B(  1-C ,  2-C ) :   0.6241 B(  1-C ,  3-H ) :   0.9673
B(  1-C ,  4-H ) :   0.9561 B(  2-C ,  5-H ) :   1.0653 B(  2-C ,  6-H ) :   1.0684

Dispersion correction           -0.005334409
FINAL SINGLE POINT ENERGY      -153.705776636832

DIPOLE MOMENT
-------------

Method             : TDA/CIS
Type of density    : Electron Density
Level              : Relaxed density
State              :   1
Multiplicity       :   3
Irrep              :   0
Energy             :     0.0000000000000000 Eh
Relativity type    :
Basis              : AO
                                X                 Y                 Z
Electronic contribution:      0.835510198       2.467695964       0.016708798
Nuclear contribution   :     -0.993695786      -3.110765766      -0.053596393
                        -----------------------------------------
Total Dipole Moment    :     -0.158185588      -0.643069802      -0.036887595
                        -----------------------------------------
Magnitude (a.u.)       :      0.663266270
Magnitude (Debye)      :      1.685888879

Rotational constants in cm-1:             1.499951             0.261367             0.242486
Rotational constants in MHz :         44967.385662          7835.585383          7269.534965

                             ****ORCA TERMINATED NORMALLY****
TOTAL RUN TIME: 0 days 0 hours 0 minutes 18 seconds 165 msec
