                         Program Version 6.0.0  -   RELEASE  -
|  1> ! opt def2-TZVPPD wB97M-D3BJ
|  2> %pal nprocs 24 end%geom Constraints
|  3> {B 9 8 2.8000000000000003 C}
|  4> {A 8 9 11 52.285714285714285 C}
|  5>  end
|  6>  end
|  7> *xyz 0 1
|  8> O   2.98579685529314 0.88758230159078 -0.86184571092411
|  9> O   -0.03983205397054 0.68929041702508 -2.10362336723772
| 10> O   0.93431434349854 -3.13274393337945 -0.68767288184107
| 11> O   -3.75829998830163 -0.84727300865116 -0.0472717177755
| 12> N   0.21184538946282 -1.54604804365365 0.7617588924445
| 13> N   -2.13631993928911 0.03188773433438 1.27350571071531
| 14> N   2.02598672506387 -1.14318467211666 -0.64531219127023
| 15> N   -1.91814233924584 0.03137116037665 -1.04498946748291
| 16> C   1.18097737274226 0.71693507080484 0.70173889017321
| 17> C   -0.20686880480777 1.27024627933494 0.21345042231937
| 18> C   0.41441080275909 -0.34173258966541 1.52336266615173
| 19> C   -0.82922175114212 0.58960593673968 1.44434972027296
| 20> C   1.92822011286806 1.69488653817281 1.5963734975385
| 21> C   -0.37809776891576 2.77134929626422 0.04819649358288
| 22> C   2.1403947470937 0.1972384729179 -0.35038567829864
| 23> C   -0.67361678962426 0.6214190571346 -1.0793014500539
| 24> C   1.04142578622994 -2.02697492875068 -0.21027082435993
| 25> C   -2.68467002550422 -0.30396816036989 0.07167054343891
| 26> H   0.80817443950001 -0.54572267081061 2.51895215321335
| 27> H   -0.83785272399001 1.27240685039143 2.28901317073582
| 28> H   2.31167340578204 2.52284411740894 1.00913016264629
| 29> H   1.28982602448342 2.08257620823614 2.38710022492991
| 30> H   2.77390820759972 1.19140411795486 2.06045858523949
| 31> H   -1.41857211141493 3.00964947214868 -0.16882755561625
| 32> H   -0.09065531563179 3.29799318042223 0.95389844358819
| 33> H   0.23426221611057 3.12492645074476 -0.77764887675592
| 34> H   -0.46772570547622 -2.21560145172536 1.0787081584806
| 35> H   -2.71769301149571 -0.17090724573546 2.06627440900372
| 36> H   2.60065167263658 -1.49057255715425 -1.3966820077142
| 37> H   -2.27169977231386 -0.32388339999036 -1.91951041514436
| 38> *
| 39>
| 40>                          ****END OF INPUT****
 Total Charge           Charge          ....    0
 Multiplicity           Mult            ....    1
 Number of Electrons    NEL             ....  132
Dispersion correction           -0.054129014
FINAL SINGLE POINT ENERGY      -908.680968988920
Dispersion correction             ... done (  0.0 sec)
Dispersion correction           -0.054820489
FINAL SINGLE POINT ENERGY      -908.711455483500
Dispersion correction             ... done (  0.1 sec)
Dispersion correction           -0.055506195
FINAL SINGLE POINT ENERGY      -908.733711837361
Dispersion correction             ... done (  0.0 sec)
FINAL SINGLE POINT ENERGY      -908.755918490026
FINAL SINGLE POINT ENERGY      -908.771027086338
FINAL SINGLE POINT ENERGY      -908.776840603127
FINAL SINGLE POINT ENERGY      -908.779018818255
FINAL SINGLE POINT ENERGY      -908.779885923561
FINAL SINGLE POINT ENERGY      -908.780496022584
FINAL SINGLE POINT ENERGY      -908.780910577587
FINAL SINGLE POINT ENERGY      -908.782208770455
FINAL SINGLE POINT ENERGY      -908.782270481605
FINAL SINGLE POINT ENERGY      -908.782517475506
FINAL SINGLE POINT ENERGY      -908.782705878949
FINAL SINGLE POINT ENERGY      -908.782748971104
FINAL SINGLE POINT ENERGY      -908.782863013750
FINAL SINGLE POINT ENERGY      -908.782909949463
Dispersion correction             ... done (  0.0 sec)
Dispersion correction           -0.058735951
FINAL SINGLE POINT ENERGY      -908.782924056447
Dispersion correction             ... done (  0.0 sec)
Dispersion correction           -0.058724657
FINAL SINGLE POINT ENERGY      -908.782929246394
Dispersion correction             ... done (  0.0 sec)
                    ***********************HURRAY********************

CARTESIAN COORDINATES (ANGSTROEM)
---------------------------------
  O      3.562357    0.571863   -0.097495
  O     -0.891769    0.922496   -2.540089
  O      0.771016   -2.836673   -1.182518
  O     -3.601275   -1.077812    0.458870
  N      0.217560   -1.538986    0.588671
  N     -2.017713    0.347899    1.270244
  N      2.166927   -1.138833   -0.610926
  N     -2.036226   -0.278637   -0.982393
  C      1.587749    0.378352    1.175851
  C     -0.572250    1.451736   -0.246207
  C      0.350276   -0.370178    1.413291
  C     -0.601288    0.754906    1.126855
  C      2.017600    1.462889    2.082992
  C     -0.456009    2.918229   -0.328518
  C      2.525385   -0.023698    0.125023
  C     -1.126183    0.696386   -1.373575
  C      1.019378   -1.902602   -0.455391
  C     -2.623525   -0.387245    0.279574
  H      0.255288   -0.659021    2.467279
  H     -0.435177    1.523488    1.876292
  H      1.739381    2.449175    1.690843
  H      1.570407    1.362734    3.070861
  H      3.102419    1.469678    2.156121
  H     -1.324804    3.401461    0.134620
  H      0.422630    3.275932    0.215910
  H     -0.398633    3.236830   -1.365092
  H     -0.613313   -2.097343    0.673406
  H     -2.435905    0.203604    2.174555
  H      2.762702   -1.393763   -1.380999
  H     -2.484407   -0.807866   -1.713455

 Multiplicity           Mult            ....    1
 Number of Electrons    NEL             ....  132
 Basis Dimension        Dim             ....  882

ORBITAL ENERGIES
----------------

  NO   OCC          E(Eh)            E(eV)
   0   2.0000     -19.335561      -526.1474
   1   2.0000     -19.328206      -525.9472
   2   2.0000     -19.327363      -525.9243
   3   2.0000     -19.315377      -525.5981
   4   2.0000     -14.563947      -396.3051
   5   2.0000     -14.559345      -396.1799
   6   2.0000     -14.558542      -396.1581
   7   2.0000     -14.558502      -396.1570
   8   2.0000     -10.509093      -285.9670
   9   2.0000     -10.503048      -285.8025
  10   2.0000     -10.486383      -285.3490
  11   2.0000     -10.483244      -285.2636
  12   2.0000     -10.443926      -284.1937
  13   2.0000     -10.439284      -284.0674
  14   2.0000     -10.433526      -283.9107
  15   2.0000     -10.429201      -283.7930
  16   2.0000     -10.383838      -282.5586
  17   2.0000     -10.378533      -282.4142
  18   2.0000      -1.223405       -33.2905
  19   2.0000      -1.216294       -33.0971
  20   2.0000      -1.199585       -32.6424
  21   2.0000      -1.193003       -32.4633
  22   2.0000      -1.120063       -30.4785
  23   2.0000      -1.096980       -29.8503
  24   2.0000      -1.066103       -29.0101
  25   2.0000      -1.056415       -28.7465
  26   2.0000      -0.992279       -27.0013
  27   2.0000      -0.949432       -25.8354
  28   2.0000      -0.895536       -24.3688
  29   2.0000      -0.841415       -22.8961
  30   2.0000      -0.828200       -22.5365
  31   2.0000      -0.799725       -21.7616
  32   2.0000      -0.785139       -21.3647
  33   2.0000      -0.783886       -21.3306
  34   2.0000      -0.705198       -19.1894
  35   2.0000      -0.694648       -18.9023
  36   2.0000      -0.693106       -18.8604
  37   2.0000      -0.673003       -18.3134
  38   2.0000      -0.652216       -17.7477
  39   2.0000      -0.634953       -17.2779
  40   2.0000      -0.623464       -16.9653
  41   2.0000      -0.600214       -16.3326
  42   2.0000      -0.592460       -16.1217
  43   2.0000      -0.586309       -15.9543
  44   2.0000      -0.578528       -15.7425
  45   2.0000      -0.573057       -15.5937
  46   2.0000      -0.565645       -15.3920
  47   2.0000      -0.563092       -15.3225
  48   2.0000      -0.557072       -15.1587
  49   2.0000      -0.550305       -14.9746
  50   2.0000      -0.548788       -14.9333
  51   2.0000      -0.544986       -14.8298
  52   2.0000      -0.533838       -14.5265
  53   2.0000      -0.521243       -14.1838
  54   2.0000      -0.514025       -13.9873
  55   2.0000      -0.509072       -13.8526
  56   2.0000      -0.492539       -13.4027
  57   2.0000      -0.421982       -11.4827
  58   2.0000      -0.420367       -11.4388
  59   2.0000      -0.408521       -11.1164
  60   2.0000      -0.397143       -10.8068
  61   2.0000      -0.394893       -10.7456
  62   2.0000      -0.391818       -10.6619
  63   2.0000      -0.387987       -10.5577
  64   2.0000      -0.377258       -10.2657
  65   2.0000      -0.293055        -7.9744
  66   0.0000      -0.102054        -2.7770
  67   0.0000       0.007167         0.1950
  68   0.0000       0.028046         0.7632
  69   0.0000       0.032529         0.8852
  70   0.0000       0.035147         0.9564

MULLIKEN ATOMIC CHARGES
-----------------------
   0 O :   -0.680869
   1 O :   -0.643539
   2 O :   -0.664846
   3 O :   -0.638230
   4 N :   -0.210311
   5 N :   -0.340282
   6 N :   -0.038124
   7 N :    0.069474
   8 C :    0.294506
   9 C :    0.461570
  10 C :    0.497465
  11 C :    0.343335
  12 C :   -1.596955
  13 C :   -1.515031
  14 C :    0.541743
  15 C :    0.071037
  16 C :    0.507111
  17 C :    0.344615
  18 H :    0.401385
  19 H :    0.644112
  20 H :    0.253963
  21 H :    0.352544
  22 H :    0.391366
  23 H :    0.356973
  24 H :    0.222328
  25 H :    0.389131
  26 H :    0.028037
  27 H :    0.099335
  28 H :    0.027840
  29 H :    0.030319
Sum of atomic charges:    0.0000000

LOEWDIN ATOMIC CHARGES
----------------------
   0 O :    0.091460
   1 O :    0.111669
   2 O :    0.091368
   3 O :    0.090358
   4 N :    0.299384
   5 N :    0.290681
   6 N :    0.329143
   7 N :    0.324573
   8 C :   -0.011785
   9 C :    0.018805
  10 C :   -0.158749
  11 C :   -0.150897
  12 C :    0.190049
  13 C :    0.188238
  14 C :   -0.391158
  15 C :   -0.401303
  16 C :   -0.479106
  17 C :   -0.492489
  18 H :    0.069252
  19 H :    0.040582
  20 H :    0.001424
  21 H :    0.008123
  22 H :    0.007888
  23 H :    0.018357
  24 H :   -0.010668
  25 H :    0.003842
  26 H :   -0.028435
  27 H :   -0.033389
  28 H :   -0.009718
  29 H :   -0.007498

  Mayer bond orders larger than 0.100000
B(  0-O , 12-C ) :   0.1112 B(  0-O , 14-C ) :   1.2497 B(  1-O , 15-C ) :   1.4358
B(  2-O , 16-C ) :   1.5288 B(  3-O , 17-C ) :   1.5921 B(  4-N ,  8-C ) :   0.1369
B(  4-N ,  9-C ) :   0.1173 B(  4-N , 10-C ) :   0.5951 B(  4-N , 16-C ) :   1.0318
B(  4-N , 26-H ) :   1.1069 B(  5-N ,  9-C ) :   0.2499 B(  5-N , 10-C ) :   0.1721
B(  5-N , 11-C ) :  -0.1224 B(  5-N , 17-C ) :   1.2209 B(  5-N , 27-H ) :   1.0314
B(  6-N , 14-C ) :   1.0259 B(  6-N , 16-C ) :   0.9209 B(  6-N , 28-H ) :   1.1170
B(  7-N , 10-C ) :  -0.1213 B(  7-N , 11-C ) :   0.1229 B(  7-N , 15-C ) :   0.9941
B(  7-N , 17-C ) :   0.9724 B(  7-N , 29-H ) :   1.0961 B(  8-C ,  9-C ) :   0.6024
B(  8-C , 10-C ) :   0.3454 B(  8-C , 11-C ) :   0.4422 B(  8-C , 12-C ) :   0.2154
B(  8-C , 14-C ) :   0.7035 B(  8-C , 18-H ) :  -0.2656 B(  8-C , 21-H ) :  -0.1539
B(  9-C , 10-C ) :   0.1440 B(  9-C , 11-C ) :   0.4064 B(  9-C , 13-C ) :   0.1919
B(  9-C , 15-C ) :   0.6652 B(  9-C , 24-H ) :  -0.1082 B(  9-C , 25-H ) :  -0.1129
B( 10-C , 11-C ) :   0.5011 B( 10-C , 12-C ) :  -0.3440 B( 10-C , 18-H ) :   1.0929
B( 10-C , 19-H ) :  -0.1494 B( 11-C , 12-C ) :   0.2013 B( 11-C , 13-C ) :  -0.1288
B( 11-C , 15-C ) :  -0.1930 B( 11-C , 17-C ) :  -0.2173 B( 11-C , 19-H ) :   0.7007
B( 12-C , 20-H ) :   0.9034 B( 12-C , 21-H ) :   1.0585 B( 12-C , 22-H ) :   0.8724
B( 13-C , 23-H ) :   0.8619 B( 13-C , 24-H ) :   1.1158 B( 13-C , 25-H ) :   0.9214

Dispersion correction           -0.058720294
FINAL SINGLE POINT ENERGY      -908.782930247631

DIPOLE MOMENT
-------------

Method             : SCF
Type of density    : Electron Density
Multiplicity       :   1
Irrep              :   0
Energy             :  -908.7242099536701971 Eh
Relativity type    :
Basis              : AO
                                X                 Y                 Z
Electronic contribution:     -2.021435633      -9.909747533      -6.634512383
Nuclear contribution   :      1.938306303      11.327756783       9.079170506
                        -----------------------------------------
Total Dipole Moment    :     -0.083129330       1.418009250       2.444658123
                        -----------------------------------------
Magnitude (a.u.)       :      2.827368751
Magnitude (Debye)      :      7.186600238

Rotational constants in cm-1:             0.020246             0.013350             0.011690
Rotational constants in MHz :           606.970895           400.208055           350.467275

                             ****ORCA TERMINATED NORMALLY****
TOTAL RUN TIME: 0 days 2 hours 28 minutes 27 seconds 695 msec
