                         Program Version 6.0.0  -   RELEASE  -
|  1> ! Opt wB97M-D3BJ def2-TZVPPD
|  2> %pal nprocs 8 end %pal nprocs 64 end
|  3> %geom
|  4> Constraints
|  5>     {A 2 1 0 124.54545454545455 C }
|  6> end
|  7> MaxIter 500
|  8> end
|  9> *xyz 0 1
| 10> O   -0.0007 0.8141 0.0
| 11> C   0.7509 -0.4065 0.0
| 12> C   -0.7502 -0.4076 0.0
| 13> H   1.2625 -0.6786 0.9136
| 14> H   1.2625 -0.6787 -0.9136
| 15> H   -1.2614 -0.6806 -0.9136
| 16> H   -1.2614 -0.6805 0.9136
| 17> *
| 18>
| 19>                          ****END OF INPUT****
 Total Charge           Charge          ....    0
 Multiplicity           Mult            ....    1
 Number of Electrons    NEL             ....   24
Dispersion correction           -0.005757143
FINAL SINGLE POINT ENERGY      -153.593113971550
Dispersion correction             ... done (  0.1 sec)
Dispersion correction           -0.005653964
FINAL SINGLE POINT ENERGY      -153.689653173891
Dispersion correction             ... done (  0.1 sec)
Dispersion correction           -0.005578551
FINAL SINGLE POINT ENERGY      -153.712788051993
Dispersion correction             ... done (  0.1 sec)
FINAL SINGLE POINT ENERGY      -153.724943972621
FINAL SINGLE POINT ENERGY      -153.735434251091
FINAL SINGLE POINT ENERGY      -153.741064431726
FINAL SINGLE POINT ENERGY      -153.745224461000
FINAL SINGLE POINT ENERGY      -153.758534685787
FINAL SINGLE POINT ENERGY      -153.774914630273
FINAL SINGLE POINT ENERGY      -153.796830709406
FINAL SINGLE POINT ENERGY      -153.931879708153
FINAL SINGLE POINT ENERGY      -153.931898745521
FINAL SINGLE POINT ENERGY      -153.931918065630
FINAL SINGLE POINT ENERGY      -153.931935161708
FINAL SINGLE POINT ENERGY      -153.931949556411
FINAL SINGLE POINT ENERGY      -153.931961384891
FINAL SINGLE POINT ENERGY      -153.931968605909
Dispersion correction             ... done (  0.1 sec)
Dispersion correction           -0.005535480
FINAL SINGLE POINT ENERGY      -153.931971605433
Dispersion correction             ... done (  0.1 sec)
Dispersion correction           -0.005535591
FINAL SINGLE POINT ENERGY      -153.931972761157
Dispersion correction             ... done (  0.1 sec)
                    ***********************HURRAY********************

CARTESIAN COORDINATES (ANGSTROEM)
---------------------------------
  O      0.555205    1.352665    0.091371
  C      0.552946    0.203366   -0.259732
  C     -0.430347   -0.827156    0.209306
  H      0.107091   -1.651154    0.680282
  H      1.312665   -0.159472   -0.978971
  H     -0.956764   -1.243404   -0.650575
  H     -1.138595   -0.393245    0.908317

 Multiplicity           Mult            ....    1
 Number of Electrons    NEL             ....   24
 Basis Dimension        Dim             ....  182

ORBITAL ENERGIES
----------------

  NO   OCC          E(Eh)            E(eV)
   0   2.0000     -19.339283      -526.2486
   1   2.0000     -10.442986      -284.1681
   2   2.0000     -10.356935      -281.8265
   3   2.0000      -1.188271       -32.3345
   4   2.0000      -0.883553       -24.0427
   5   2.0000      -0.702928       -19.1276
   6   2.0000      -0.598309       -16.2808
   7   2.0000      -0.560538       -15.2530
   8   2.0000      -0.553731       -15.0678
   9   2.0000      -0.508184       -13.8284
  10   2.0000      -0.475976       -12.9520
  11   2.0000      -0.368536       -10.0284
  12   0.0000       0.037677         1.0252
  13   0.0000       0.054523         1.4836
  14   0.0000       0.059182         1.6104
  15   0.0000       0.083378         2.2688
  16   0.0000       0.086298         2.3483

MULLIKEN ATOMIC CHARGES
-----------------------
   0 O :   -0.474847
   1 C :    0.236221
   2 C :   -0.695864
   3 H :    0.226176
   4 H :    0.240843
   5 H :    0.225890
   6 H :    0.241580
Sum of atomic charges:   -0.0000000

LOEWDIN ATOMIC CHARGES
----------------------
   0 O :    0.067993
   1 C :   -0.228341
   2 C :    0.168333
   3 H :   -0.011270
   4 H :    0.023350
   5 H :   -0.011204
   6 H :   -0.008861

  Mayer bond orders larger than 0.100000
B(  0-O ,  1-C ) :   1.7708 B(  1-C ,  2-C ) :   0.7594 B(  1-C ,  4-H ) :   0.9859
B(  2-C ,  3-H ) :   0.9927 B(  2-C ,  5-H ) :   0.9929 B(  2-C ,  6-H ) :   0.9572

Dispersion correction           -0.005535861
FINAL SINGLE POINT ENERGY      -153.931973359270

DIPOLE MOMENT
-------------

Method             : SCF
Type of density    : Electron Density
Multiplicity       :   1
Irrep              :   0
Energy             :  -153.9264374987160124 Eh
Relativity type    :
Basis              : AO
                                X                 Y                 Z
Electronic contribution:      1.298026162       3.027545203      -0.107157382
Nuclear contribution   :     -1.452983255      -4.127016092      -0.106756054
                        -----------------------------------------
Total Dipole Moment    :     -0.154957093      -1.099470889      -0.213913436
                        -----------------------------------------
Magnitude (a.u.)       :      1.130755010
Magnitude (Debye)      :      2.874150824

Rotational constants in cm-1:             1.915063             0.340823             0.305556
Rotational constants in MHz :         57412.134404         10217.619409          9160.329888

                             ****ORCA TERMINATED NORMALLY****
TOTAL RUN TIME: 0 days 0 hours 9 minutes 19 seconds 464 msec
