                         Program Version 6.0.0  -   RELEASE  -
|  1> ! opt def2-TZVPPD wB97M-D3BJ
|  2> %pal nprocs 8 end%pal nprocs 32 end
|  3> %geom Constraints
|  4> {B 9 8 3.6 C}
|  5> {A 8 9 11 52.285714285714285 C}
|  6>  end
|  7>  end
|  8> *xyz 0 1
|  9> O   2.98579685529314 0.88758230159078 -0.86184571092411
| 10> O   -0.03983205397054 0.68929041702508 -2.10362336723772
| 11> O   0.93431434349854 -3.13274393337945 -0.68767288184107
| 12> O   -3.75829998830163 -0.84727300865116 -0.0472717177755
| 13> N   0.21184538946282 -1.54604804365365 0.7617588924445
| 14> N   -2.13631993928911 0.03188773433438 1.27350571071531
| 15> N   2.02598672506387 -1.14318467211666 -0.64531219127023
| 16> N   -1.91814233924584 0.03137116037665 -1.04498946748291
| 17> C   1.18097737274226 0.71693507080484 0.70173889017321
| 18> C   -0.20686880480777 1.27024627933494 0.21345042231937
| 19> C   0.41441080275909 -0.34173258966541 1.52336266615173
| 20> C   -0.82922175114212 0.58960593673968 1.44434972027296
| 21> C   1.92822011286806 1.69488653817281 1.5963734975385
| 22> C   -0.37809776891576 2.77134929626422 0.04819649358288
| 23> C   2.1403947470937 0.1972384729179 -0.35038567829864
| 24> C   -0.67361678962426 0.6214190571346 -1.0793014500539
| 25> C   1.04142578622994 -2.02697492875068 -0.21027082435993
| 26> C   -2.68467002550422 -0.30396816036989 0.07167054343891
| 27> H   0.80817443950001 -0.54572267081061 2.51895215321335
| 28> H   -0.83785272399001 1.27240685039143 2.28901317073582
| 29> H   2.31167340578204 2.52284411740894 1.00913016264629
| 30> H   1.28982602448342 2.08257620823614 2.38710022492991
| 31> H   2.77390820759972 1.19140411795486 2.06045858523949
| 32> H   -1.41857211141493 3.00964947214868 -0.16882755561625
| 33> H   -0.09065531563179 3.29799318042223 0.95389844358819
| 34> H   0.23426221611057 3.12492645074476 -0.77764887675592
| 35> H   -0.46772570547622 -2.21560145172536 1.0787081584806
| 36> H   -2.71769301149571 -0.17090724573546 2.06627440900372
| 37> H   2.60065167263658 -1.49057255715425 -1.3966820077142
| 38> H   -2.27169977231386 -0.32388339999036 -1.91951041514436
| 39> *
| 40>
| 41>                          ****END OF INPUT****
 Total Charge           Charge          ....    0
 Multiplicity           Mult            ....    1
 Number of Electrons    NEL             ....  132
Dispersion correction           -0.050773658
FINAL SINGLE POINT ENERGY      -908.585996994297
Dispersion correction             ... done (  0.0 sec)
Dispersion correction           -0.051331598
FINAL SINGLE POINT ENERGY      -908.625797941413
Dispersion correction             ... done (  0.0 sec)
Dispersion correction           -0.051874571
FINAL SINGLE POINT ENERGY      -908.653577053633
Dispersion correction             ... done (  0.0 sec)
FINAL SINGLE POINT ENERGY      -908.682061211364
FINAL SINGLE POINT ENERGY      -908.706390243110
FINAL SINGLE POINT ENERGY      -908.715877669925
FINAL SINGLE POINT ENERGY      -908.720120610540
FINAL SINGLE POINT ENERGY      -908.722376704134
FINAL SINGLE POINT ENERGY      -908.723914259557
FINAL SINGLE POINT ENERGY      -908.725085039147
FINAL SINGLE POINT ENERGY      -908.730255419018
FINAL SINGLE POINT ENERGY      -908.730491809767
FINAL SINGLE POINT ENERGY      -908.730643972318
FINAL SINGLE POINT ENERGY      -908.730733160018
FINAL SINGLE POINT ENERGY      -908.730771715145
FINAL SINGLE POINT ENERGY      -908.730789832551
FINAL SINGLE POINT ENERGY      -908.730776031119
Dispersion correction             ... done (  0.0 sec)
Dispersion correction           -0.056235476
FINAL SINGLE POINT ENERGY      -908.730799311509
Dispersion correction             ... done (  0.0 sec)
Dispersion correction           -0.056226867
FINAL SINGLE POINT ENERGY      -908.730802950220
Dispersion correction             ... done (  0.0 sec)
                    ***********************HURRAY********************

CARTESIAN COORDINATES (ANGSTROEM)
---------------------------------
  O      3.643496    0.358001   -0.434907
  O     -1.184851    1.217665   -2.619769
  O      0.480294   -2.745681   -0.797347
  O     -3.067150   -1.712267    0.208037
  N      0.335883   -1.303642    0.956113
  N     -2.063670    0.127149    1.102607
  N      1.746940   -0.847333   -0.820643
  N     -1.746586   -0.417464   -1.130735
  C      1.972307    0.392597    1.223750
  C     -1.011639    1.696214   -0.311388
  C      0.435610    0.049736    1.444362
  C     -0.888689    0.963060    1.041505
  C      2.765359    1.006710    2.296265
  C     -1.060092    3.160820   -0.404442
  C      2.541242    0.010600   -0.040102
  C     -1.304770    0.861776   -1.462398
  C      0.821159   -1.713141   -0.268116
  C     -2.346024   -0.752724    0.080594
  H      0.310215   -0.016051    2.528392
  H     -0.960163    1.716995    1.822552
  H      3.808154    1.079345    2.003604
  H      2.397049    2.006628    2.547939
  H      2.684406    0.415812    3.216076
  H     -2.005417    3.530862    0.015861
  H     -0.261089    3.629249    0.169881
  H     -1.009612    3.472926   -1.443416
  H     -0.315359   -1.950117    1.368436
  H     -2.489220   -0.110187    1.982319
  H      2.170868   -1.167985   -1.676098
  H     -1.946052   -1.044554   -1.894334

 Multiplicity           Mult            ....    1
 Number of Electrons    NEL             ....  132
 Basis Dimension        Dim             ....  882

ORBITAL ENERGIES
----------------

  NO   OCC          E(Eh)            E(eV)
   0   2.0000     -19.335302      -526.1403
   1   2.0000     -19.329511      -525.9827
   2   2.0000     -19.320528      -525.7383
   3   2.0000     -19.316213      -525.6209
   4   2.0000     -14.569915      -396.4675
   5   2.0000     -14.565463      -396.3464
   6   2.0000     -14.559734      -396.1905
   7   2.0000     -14.548893      -395.8955
   8   2.0000     -10.511395      -286.0296
   9   2.0000     -10.498017      -285.6656
  10   2.0000     -10.484101      -285.2869
  11   2.0000     -10.469783      -284.8973
  12   2.0000     -10.450610      -284.3756
  13   2.0000     -10.448329      -284.3135
  14   2.0000     -10.437231      -284.0115
  15   2.0000     -10.418640      -283.5056
  16   2.0000     -10.381159      -282.4857
  17   2.0000     -10.372938      -282.2620
  18   2.0000      -1.226082       -33.3634
  19   2.0000      -1.211448       -32.9652
  20   2.0000      -1.198301       -32.6074
  21   2.0000      -1.182652       -32.1816
  22   2.0000      -1.119842       -30.4724
  23   2.0000      -1.096197       -29.8290
  24   2.0000      -1.066087       -29.0097
  25   2.0000      -1.049658       -28.5627
  26   2.0000      -0.964176       -26.2366
  27   2.0000      -0.945152       -25.7189
  28   2.0000      -0.883323       -24.0365
  29   2.0000      -0.839515       -22.8444
  30   2.0000      -0.823336       -22.4041
  31   2.0000      -0.801786       -21.8177
  32   2.0000      -0.786738       -21.4082
  33   2.0000      -0.769500       -20.9392
  34   2.0000      -0.699572       -19.0363
  35   2.0000      -0.685481       -18.6529
  36   2.0000      -0.675091       -18.3702
  37   2.0000      -0.660985       -17.9863
  38   2.0000      -0.650259       -17.6944
  39   2.0000      -0.637496       -17.3471
  40   2.0000      -0.619402       -16.8548
  41   2.0000      -0.600375       -16.3370
  42   2.0000      -0.585033       -15.9196
  43   2.0000      -0.582903       -15.8616
  44   2.0000      -0.568714       -15.4755
  45   2.0000      -0.566712       -15.4210
  46   2.0000      -0.565848       -15.3975
  47   2.0000      -0.555264       -15.1095
  48   2.0000      -0.551261       -15.0006
  49   2.0000      -0.547616       -14.9014
  50   2.0000      -0.545128       -14.8337
  51   2.0000      -0.541579       -14.7371
  52   2.0000      -0.530124       -14.4254
  53   2.0000      -0.516665       -14.0592
  54   2.0000      -0.508430       -13.8351
  55   2.0000      -0.502412       -13.6713
  56   2.0000      -0.484508       -13.1841
  57   2.0000      -0.424652       -11.5554
  58   2.0000      -0.416694       -11.3388
  59   2.0000      -0.411879       -11.2078
  60   2.0000      -0.398774       -10.8512
  61   2.0000      -0.393244       -10.7007
  62   2.0000      -0.387978       -10.5574
  63   2.0000      -0.380761       -10.3610
  64   2.0000      -0.374099       -10.1797
  65   2.0000      -0.262696        -7.1483
  66   0.0000      -0.132522        -3.6061
  67   0.0000       0.004039         0.1099
  68   0.0000       0.026518         0.7216
  69   0.0000       0.031674         0.8619
  70   0.0000       0.038515         1.0480

MULLIKEN ATOMIC CHARGES
-----------------------
   0 O :   -0.663461
   1 O :   -0.660821
   2 O :   -0.653396
   3 O :   -0.627507
   4 N :   -0.266212
   5 N :   -0.300735
   6 N :    0.071830
   7 N :    0.068039
   8 C :    0.118951
   9 C :    0.230877
  10 C :    0.278136
  11 C :    0.595129
  12 C :   -1.398911
  13 C :   -1.446512
  14 C :    0.394981
  15 C :    0.433675
  16 C :    0.329838
  17 C :    0.357983
  18 H :    0.545626
  19 H :    0.398343
  20 H :    0.329705
  21 H :    0.273755
  22 H :    0.314313
  23 H :    0.348552
  24 H :    0.303471
  25 H :    0.341399
  26 H :    0.089903
  27 H :    0.101362
  28 H :    0.064637
  29 H :    0.027052
Sum of atomic charges:   -0.0000000

LOEWDIN ATOMIC CHARGES
----------------------
   0 O :    0.082377
   1 O :    0.101949
   2 O :    0.092757
   3 O :    0.103802
   4 N :    0.262884
   5 N :    0.266816
   6 N :    0.316900
   7 N :    0.330528
   8 C :    0.002330
   9 C :    0.019799
  10 C :   -0.062365
  11 C :   -0.077901
  12 C :    0.168675
  13 C :    0.182181
  14 C :   -0.421594
  15 C :   -0.406092
  16 C :   -0.495649
  17 C :   -0.492086
  18 H :    0.028886
  19 H :    0.037887
  20 H :   -0.004350
  21 H :    0.006179
  22 H :    0.008244
  23 H :    0.019462
  24 H :    0.004159
  25 H :    0.000178
  26 H :   -0.029474
  27 H :   -0.026853
  28 H :   -0.015495
  29 H :   -0.004133

  Mayer bond orders larger than 0.100000
B(  0-O , 14-C ) :   1.3798 B(  1-O , 15-C ) :   1.4103 B(  2-O , 16-C ) :   1.5012
B(  3-O , 17-C ) :   1.5604 B(  4-N ,  8-C ) :   0.3047 B(  4-N , 10-C ) :   0.1945
B(  4-N , 16-C ) :   1.0247 B(  4-N , 26-H ) :   1.0690 B(  5-N ,  9-C ) :   0.3522
B(  5-N , 10-C ) :   0.1880 B(  5-N , 17-C ) :   1.0987 B(  5-N , 27-H ) :   1.0108
B(  6-N , 14-C ) :   1.0332 B(  6-N , 16-C ) :   1.0284 B(  6-N , 28-H ) :   1.0427
B(  7-N , 11-C ) :   0.1056 B(  7-N , 15-C ) :   0.9573 B(  7-N , 17-C ) :   1.0038
B(  7-N , 29-H ) :   1.0842 B(  8-C ,  9-C ) :   0.4104 B(  8-C , 10-C ) :  -0.1018
B(  8-C , 12-C ) :   0.4436 B(  8-C , 14-C ) :   0.9014 B(  8-C , 16-C ) :   0.1352
B(  8-C , 18-H ) :  -0.1247 B(  8-C , 20-H ) :  -0.1176 B(  9-C , 10-C ) :   0.2883
B(  9-C , 11-C ) :  -0.1580 B(  9-C , 13-C ) :   0.4198 B(  9-C , 15-C ) :   0.8395
B(  9-C , 19-H ) :  -0.1016 B(  9-C , 25-H ) :  -0.1072 B( 10-C , 11-C ) :   0.5915
B( 10-C , 16-C ) :  -0.1678 B( 10-C , 18-H ) :   0.7663 B( 10-C , 19-H ) :  -0.1314
B( 11-C , 15-C ) :  -0.1558 B( 11-C , 17-C ) :  -0.1501 B( 11-C , 19-H ) :   1.0134
B( 12-C , 14-C ) :  -0.1074 B( 12-C , 20-H ) :   0.9884 B( 12-C , 21-H ) :   0.9427
B( 12-C , 22-H ) :   0.9173 B( 13-C , 23-H ) :   0.8692 B( 13-C , 24-H ) :   0.9552
B( 13-C , 25-H ) :   0.9525

Dispersion correction           -0.056220120
FINAL SINGLE POINT ENERGY      -908.730803908782

DIPOLE MOMENT
-------------

Method             : SCF
Type of density    : Electron Density
Multiplicity       :   1
Irrep              :   0
Energy             :  -908.6745837886851405 Eh
Relativity type    :
Basis              : AO
                                X                 Y                 Z
Electronic contribution:     -2.840720316      -9.055189134      -7.494631782
Nuclear contribution   :      2.257807452      10.813712915      10.057272796
                        -----------------------------------------
Total Dipole Moment    :     -0.582912865       1.758523780       2.562641015
                        -----------------------------------------
Magnitude (a.u.)       :      3.162170499
Magnitude (Debye)      :      8.037598650

Rotational constants in cm-1:             0.019640             0.012887             0.011419
Rotational constants in MHz :           588.799669           386.340459           342.328858

                             ****ORCA TERMINATED NORMALLY****
TOTAL RUN TIME: 0 days 1 hours 16 minutes 41 seconds 402 msec
