                         Program Version 6.0.0  -   RELEASE  -
|  1> ! Engrad def2-TZVPPD wB97M-D3BJ
|  2> %pal nprocs 8 end%pal nprocs 64 end
|  3> %tddft
|  4>  Iroot 1 Nroots 3
|  5> sf true
|  6> end
|  7> *xyz 0 3
|  8> O   0.20218186 0.22055635 1.31366623
|  9> C   0.02893582 -0.23310832 -0.12941967
| 10> C   1.04459395 0.21240868 -1.10070582
| 11> H   -0.97965855 0.16556747 -0.27909155
| 12> H   -0.01364007 -1.28034021 -0.01416546
| 13> H   1.61664139 -0.58147595 -1.54720776
| 14> H   1.34784025 1.21838764 -1.20720126
| 15> *
| 16>
| 17>                          ****END OF INPUT****

CARTESIAN COORDINATES (ANGSTROEM)
---------------------------------
  O      0.202182    0.220556    1.313666
  C      0.028936   -0.233108   -0.129420
  C      1.044594    0.212409   -1.100706
  H     -0.979659    0.165567   -0.279092
  H     -0.013640   -1.280340   -0.014165
  H      1.616641   -0.581476   -1.547208
  H      1.347840    1.218388   -1.207201

 Total Charge           Charge          ....    0
 Multiplicity           Mult            ....    3
 Number of Electrons    NEL             ....   24
 Basis Dimension        Dim             ....  182

ORBITAL ENERGIES
----------------
                 SPIN UP ORBITALS
  NO   OCC          E(Eh)            E(eV)
   0   1.0000     -19.388497      -527.5878
   1   1.0000     -10.410895      -283.2948
   2   1.0000     -10.373960      -282.2898
   3   1.0000      -1.121086       -30.5063
   4   1.0000      -0.889202       -24.1964
   5   1.0000      -0.741859       -20.1870
   6   1.0000      -0.615120       -16.7383
   7   1.0000      -0.559912       -15.2360
   8   1.0000      -0.547446       -14.8968
   9   1.0000      -0.514378       -13.9969
  10   1.0000      -0.450865       -12.2687
  11   1.0000      -0.418045       -11.3756
  12   1.0000      -0.336212        -9.1488
  13   0.0000       0.041610         1.1323
  14   0.0000       0.061410         1.6711
  15   0.0000       0.079362         2.1596
  16   0.0000       0.089438         2.4337
  17   0.0000       0.114035         3.1031

                 SPIN DOWN ORBITALS
  NO   OCC          E(Eh)            E(eV)
   0   1.0000     -19.361978      -526.8662
   1   1.0000     -10.412339      -283.3341
   2   1.0000     -10.361238      -281.9436
   3   1.0000      -1.057582       -28.7783
   4   1.0000      -0.857168       -23.3247
   5   1.0000      -0.717788       -19.5320
   6   1.0000      -0.592924       -16.1343
   7   1.0000      -0.539723       -14.6866
   8   1.0000      -0.514521       -14.0008
   9   1.0000      -0.481364       -13.0986
  10   1.0000      -0.385355       -10.4860
  11   0.0000      -0.041242        -1.1222
  12   0.0000      -0.015550        -0.4231
  13   0.0000       0.040642         1.1059
  14   0.0000       0.061660         1.6779
  15   0.0000       0.080320         2.1856

----------------------------------------------------------------------------------------------------
          SPIN FLIP ABSORPTION SPECTRUM VIA TRANSITION ELECTRIC DIPOLE MOMENTS
----------------------------------------------------------------------------------------------------
     Transition      Energy     Energy  Wavelength fosc(D2)      D2        DX        DY        DZ
                      (eV)      (cm-1)    (nm)                 (au**2)    (au)      (au)      (au)
----------------------------------------------------------------------------------------------------
  1-3A  ->  2-3A    0.158634    1279.5  7815.7   0.000027610   0.00710   0.04364  -0.02382  -0.06806
  1-3A  ->  3-3A    1.030968    8315.3  1202.6   0.000610619   0.02418   0.05763  -0.04329  -0.13777

Dispersion correction             ... done (  0.1 sec)

MULLIKEN ATOMIC CHARGES AND SPIN DENSITIES
------------------------------------------
   0 O :   -0.315451    0.831595
   1 C :   -0.152293    0.037759
   2 C :   -0.245076   -0.726975
   3 H :    0.201059   -0.021106
   4 H :    0.237967    0.020089
   5 H :    0.105507   -0.063237
   6 H :    0.168286   -0.078125
Sum of atomic charges       :   -0.0000000

LOEWDIN ATOMIC CHARGES AND SPIN DENSITIES
-----------------------------------------
   0 O :   -0.015826    0.795318
   1 C :   -0.141682   -0.051252
   2 C :    0.309463   -0.593640
   3 H :    0.017636   -0.001485
   4 H :   -0.015802    0.013201
   5 H :   -0.071903   -0.081672
   6 H :   -0.081886   -0.080470

  Mayer bond orders larger than 0.100000
B(  0-O ,  1-C ) :   0.7981 B(  1-C ,  2-C ) :   0.8397 B(  1-C ,  3-H ) :   0.9510
B(  1-C ,  4-H ) :   0.9542 B(  2-C ,  5-H ) :   1.0653 B(  2-C ,  6-H ) :   1.0332

Dispersion correction           -0.005438502
FINAL SINGLE POINT ENERGY      -153.742530045611

DIPOLE MOMENT
-------------

Method             : TDA/CIS
Type of density    : Electron Density
Level              : Relaxed density
State              :   1
Multiplicity       :   3
Irrep              :   0
Energy             :     0.0000000000000000 Eh
Relativity type    :
Basis              : AO
                                X                 Y                 Z
Electronic contribution:     -0.345917024       0.418727690       2.363764838
Nuclear contribution   :      0.303008212      -0.684378250      -3.110946878
                        -----------------------------------------
Total Dipole Moment    :     -0.042908812      -0.265650560      -0.747182039
                        -----------------------------------------
Magnitude (a.u.)       :      0.794161436
Magnitude (Debye)      :      2.018597949

Rotational constants in cm-1:             1.457215             0.310344             0.278937
Rotational constants in MHz :         43686.218230          9303.875241          8362.330641

                             ****ORCA TERMINATED NORMALLY****
TOTAL RUN TIME: 0 days 0 hours 0 minutes 26 seconds 15 msec
