                         Program Version 6.0.0  -   RELEASE  -
|  1> ! Engrad def2-TZVPPD wB97M-D3BJ
|  2> %pal nprocs 8 end%pal nprocs 64 end
|  3> %tddft
|  4>  Iroot 1 Nroots 3
|  5> sf true
|  6> end
|  7> *xyz 0 3
|  8> O   3.35664385 0.91914695 -0.25932041
|  9> O   -0.98299528 0.74456214 -2.67519975
| 10> O   0.69139816 -2.51903658 -1.25705785
| 11> O   -3.29505489 -1.68655356 0.5226512
| 12> N   0.35592215 -1.41640458 0.72910451
| 13> N   -2.19784735 0.14210736 1.2287487
| 14> N   1.84870776 -0.6573967 -0.7650162
| 15> N   -2.00900299 -0.61420017 -1.03183272
| 16> C   1.66064241 0.53106043 1.30137924
| 17> C   -0.68474136 1.23899031 -0.38418903
| 18> C   0.32222221 -0.24533375 1.45431182
| 19> C   -0.92161808 0.79795771 1.0450169
| 20> C   2.00138085 1.5108117 2.29485931
| 21> C   0.19049283 2.38112692 -0.60088699
| 22> C   2.36763379 0.2770842 0.09343854
| 23> C   -1.2034032 0.4299258 -1.47156834
| 24> C   0.90163936 -1.55490117 -0.54554641
| 25> C   -2.54253543 -0.78612254 0.25868623
| 26> H   0.0838289 -0.3867388 2.56454589
| 27> H   -0.68873506 1.73598389 1.71119018
| 28> H   1.06530485 1.9556866 2.6559046
| 29> H   2.5453047 1.05751361 3.2009577
| 30> H   2.60826436 2.31544093 1.89384622
| 31> H   -0.28422343 2.99604613 -1.32374235
| 32> H   0.45076482 2.92025752 0.30623553
| 33> H   1.18165848 2.32084958 -1.04544826
| 34> H   -0.42650835 -2.01141665 0.82198804
| 35> H   -2.32850769 -0.28791966 2.12028147
| 36> H   2.57722771 -1.05192363 -1.49211873
| 37> H   -2.37881541 -1.18026203 -1.74031911
| 38> *
| 39>
| 40>                          ****END OF INPUT****

CARTESIAN COORDINATES (ANGSTROEM)
---------------------------------
  O      3.356644    0.919147   -0.259320
  O     -0.982995    0.744562   -2.675200
  O      0.691398   -2.519037   -1.257058
  O     -3.295055   -1.686554    0.522651
  N      0.355922   -1.416405    0.729105
  N     -2.197847    0.142107    1.228749
  N      1.848708   -0.657397   -0.765016
  N     -2.009003   -0.614200   -1.031833
  C      1.660642    0.531060    1.301379
  C     -0.684741    1.238990   -0.384189
  C      0.322222   -0.245334    1.454312
  C     -0.921618    0.797958    1.045017
  C      2.001381    1.510812    2.294859
  C      0.190493    2.381127   -0.600887
  C      2.367634    0.277084    0.093439
  C     -1.203403    0.429926   -1.471568
  C      0.901639   -1.554901   -0.545546
  C     -2.542535   -0.786123    0.258686
  H      0.083829   -0.386739    2.564546
  H     -0.688735    1.735984    1.711190
  H      1.065305    1.955687    2.655905
  H      2.545305    1.057514    3.200958
  H      2.608264    2.315441    1.893846
  H     -0.284223    2.996046   -1.323742
  H      0.450765    2.920258    0.306236
  H      1.181658    2.320850   -1.045448
  H     -0.426508   -2.011417    0.821988
  H     -2.328508   -0.287920    2.120281
  H      2.577228   -1.051924   -1.492119
  H     -2.378815   -1.180262   -1.740319

 Total Charge           Charge          ....    0
 Multiplicity           Mult            ....    3
 Number of Electrons    NEL             ....  132
 Basis Dimension        Dim             ....  882

ORBITAL ENERGIES
----------------
                 SPIN UP ORBITALS
  NO   OCC          E(Eh)            E(eV)
   0   1.0000     -19.338592      -526.2298
   1   1.0000     -19.334592      -526.1210
   2   1.0000     -19.333079      -526.0798
   3   1.0000     -19.323164      -525.8100
   4   1.0000     -14.571322      -396.5058
   5   1.0000     -14.570848      -396.4929
   6   1.0000     -14.570677      -396.4883
   7   1.0000     -14.558732      -396.1632
   8   1.0000     -10.517340      -286.1914
   9   1.0000     -10.504662      -285.8464
  10   1.0000     -10.485252      -285.3182
  11   1.0000     -10.483665      -285.2750
  12   1.0000     -10.453946      -284.4663
  13   1.0000     -10.452440      -284.4254
  14   1.0000     -10.424599      -283.6677
  15   1.0000     -10.416867      -283.4574
  16   1.0000     -10.387709      -282.6639
  17   1.0000     -10.363431      -282.0033
  18   1.0000      -1.231905       -33.5218
  19   1.0000      -1.227255       -33.3953
  20   1.0000      -1.197496       -32.5855
  21   1.0000      -1.177804       -32.0497
  22   1.0000      -1.128002       -30.6945
  23   1.0000      -1.108055       -30.1517
  24   1.0000      -1.076017       -29.2799
  25   1.0000      -1.069988       -29.1159
  26   1.0000      -0.986190       -26.8356
  27   1.0000      -0.959225       -26.1018
  28   1.0000      -0.880285       -23.9538
  29   1.0000      -0.852074       -23.1861
  30   1.0000      -0.833896       -22.6915
  31   1.0000      -0.803339       -21.8600
  32   1.0000      -0.794033       -21.6067
  33   1.0000      -0.792068       -21.5533
  34   1.0000      -0.707181       -19.2434
  35   1.0000      -0.698615       -19.0103
  36   1.0000      -0.688688       -18.7402
  37   1.0000      -0.681185       -18.5360
  38   1.0000      -0.668030       -18.1780
  39   1.0000      -0.629474       -17.1289
  40   1.0000      -0.622104       -16.9283
  41   1.0000      -0.610438       -16.6109
  42   1.0000      -0.601110       -16.3570
  43   1.0000      -0.588861       -16.0237
  44   1.0000      -0.578883       -15.7522
  45   1.0000      -0.570330       -15.5195
  46   1.0000      -0.567645       -15.4464
  47   1.0000      -0.566290       -15.4095
  48   1.0000      -0.559679       -15.2296
  49   1.0000      -0.556733       -15.1495
  50   1.0000      -0.548360       -14.9216
  51   1.0000      -0.538997       -14.6668
  52   1.0000      -0.532706       -14.4957
  53   1.0000      -0.529855       -14.4181
  54   1.0000      -0.509667       -13.8688
  55   1.0000      -0.497231       -13.5303
  56   1.0000      -0.491583       -13.3767
  57   1.0000      -0.437315       -11.8999
  58   1.0000      -0.422264       -11.4904
  59   1.0000      -0.420337       -11.4380
  60   1.0000      -0.412027       -11.2118
  61   1.0000      -0.406858       -11.0712
  62   1.0000      -0.398318       -10.8388
  63   1.0000      -0.393113       -10.6972
  64   1.0000      -0.382342       -10.4041
  65   1.0000      -0.348667        -9.4877
  66   1.0000      -0.319193        -8.6857
  67   0.0000       0.008725         0.2374
  68   0.0000       0.029106         0.7920
  69   0.0000       0.031344         0.8529
  70   0.0000       0.036502         0.9933
  71   0.0000       0.049378         1.3437

                 SPIN DOWN ORBITALS
  NO   OCC          E(Eh)            E(eV)
   0   1.0000     -19.333153      -526.0819
   1   1.0000     -19.332985      -526.0773
   2   1.0000     -19.329863      -525.9923
   3   1.0000     -19.323082      -525.8078
   4   1.0000     -14.570718      -396.4894
   5   1.0000     -14.570490      -396.4832
   6   1.0000     -14.569965      -396.4689
   7   1.0000     -14.558697      -396.1623
   8   1.0000     -10.517397      -286.1929
   9   1.0000     -10.504719      -285.8479
  10   1.0000     -10.486270      -285.3459
  11   1.0000     -10.484725      -285.3039
  12   1.0000     -10.453281      -284.4482
  13   1.0000     -10.452088      -284.4158
  14   1.0000     -10.413802      -283.3740
  15   1.0000     -10.406120      -283.1649
  16   1.0000     -10.388348      -282.6813
  17   1.0000     -10.363917      -282.0165
  18   1.0000      -1.231022       -33.4978
  19   1.0000      -1.225727       -33.3537
  20   1.0000      -1.191434       -32.4206
  21   1.0000      -1.171568       -31.8800
  22   1.0000      -1.125684       -30.6314
  23   1.0000      -1.105819       -30.0909
  24   1.0000      -1.073625       -29.2148
  25   1.0000      -1.068188       -29.0669
  26   1.0000      -0.972167       -26.4540
  27   1.0000      -0.942988       -25.6600
  28   1.0000      -0.876107       -23.8401
  29   1.0000      -0.846076       -23.0229
  30   1.0000      -0.825321       -22.4581
  31   1.0000      -0.798945       -21.7404
  32   1.0000      -0.791701       -21.5433
  33   1.0000      -0.790846       -21.5200
  34   1.0000      -0.702078       -19.1045
  35   1.0000      -0.691872       -18.8268
  36   1.0000      -0.683865       -18.6089
  37   1.0000      -0.676533       -18.4094
  38   1.0000      -0.657558       -17.8931
  39   1.0000      -0.625350       -17.0166
  40   1.0000      -0.618127       -16.8201
  41   1.0000      -0.603084       -16.4108
  42   1.0000      -0.594202       -16.1691
  43   1.0000      -0.584927       -15.9167
  44   1.0000      -0.570450       -15.5227
  45   1.0000      -0.564664       -15.3653
  46   1.0000      -0.562691       -15.3116
  47   1.0000      -0.557897       -15.1811
  48   1.0000      -0.552440       -15.0327
  49   1.0000      -0.545675       -14.8486
  50   1.0000      -0.541216       -14.7272
  51   1.0000      -0.530552       -14.4371
  52   1.0000      -0.524136       -14.2625
  53   1.0000      -0.520205       -14.1555
  54   1.0000      -0.503707       -13.7066
  55   1.0000      -0.487938       -13.2775
  56   1.0000      -0.483869       -13.1667
  57   1.0000      -0.432330       -11.7643
  58   1.0000      -0.418186       -11.3794
  59   1.0000      -0.414548       -11.2804
  60   1.0000      -0.400919       -10.9096
  61   1.0000      -0.393573       -10.7097
  62   1.0000      -0.389009       -10.5855
  63   1.0000      -0.386432       -10.5154
  64   1.0000      -0.367932       -10.0119
  65   0.0000      -0.070674        -1.9231
  66   0.0000      -0.054661        -1.4874
  67   0.0000       0.008366         0.2276
  68   0.0000       0.029226         0.7953
  69   0.0000       0.031986         0.8704

----------------------------------------------------------------------------------------------------
          SPIN FLIP ABSORPTION SPECTRUM VIA TRANSITION ELECTRIC DIPOLE MOMENTS
----------------------------------------------------------------------------------------------------
     Transition      Energy     Energy  Wavelength fosc(D2)      D2        DX        DY        DZ
                      (eV)      (cm-1)    (nm)                 (au**2)    (au)      (au)      (au)
----------------------------------------------------------------------------------------------------
  1-3A  ->  2-3A    0.071964     580.4  17228.7   0.000035193   0.01996   0.13908   0.01090   0.02233
  1-3A  ->  3-1A    1.938267   15633.2   639.7   0.024031786   0.50607   0.67961   0.02866   0.20829

Dispersion correction             ... done (  0.1 sec)

MULLIKEN ATOMIC CHARGES AND SPIN DENSITIES
------------------------------------------
   0 O :   -0.692612    0.103025
   1 O :   -0.711748   -0.088440
   2 O :   -0.681362   -0.000217
   3 O :   -0.612804    0.000163
   4 N :   -0.181977    0.003739
   5 N :   -0.293970   -0.014474
   6 N :    0.003098   -0.002035
   7 N :    0.140886   -0.017965
   8 C :    0.243481    0.335492
   9 C :    0.782854    0.135961
  10 C :    0.363679   -0.069940
  11 C :    0.374066   -0.139649
  12 C :   -1.358482    0.009535
  13 C :   -1.636431   -0.048457
  14 C :    0.275464    0.007627
  15 C :    0.072617   -0.230196
  16 C :    0.371447   -0.005679
  17 C :    0.325424    0.016179
  18 H :    0.510909    0.010312
  19 H :    0.436712   -0.019018
  20 H :    0.323950    0.007483
  21 H :    0.344955    0.019724
  22 H :    0.274855    0.004385
  23 H :    0.415055   -0.001604
  24 H :    0.341575   -0.004875
  25 H :    0.197368   -0.015061
  26 H :    0.049266   -0.002874
  27 H :    0.138102    0.003417
  28 H :    0.198744   -0.000080
  29 H :   -0.015119    0.003521
Sum of atomic charges       :   -0.0000000

LOEWDIN ATOMIC CHARGES AND SPIN DENSITIES
-----------------------------------------
   0 O :    0.074266    0.088261
   1 O :    0.049083   -0.078344
   2 O :    0.099475    0.000096
   3 O :    0.101095   -0.000036
   4 N :    0.278643   -0.002598
   5 N :    0.279734    0.000901
   6 N :    0.297353    0.000094
   7 N :    0.348697   -0.016903
   8 C :   -0.058314    0.247331
   9 C :   -0.030964   -0.225670
  10 C :   -0.094422   -0.006776
  11 C :   -0.093252   -0.010305
  12 C :    0.156773    0.041444
  13 C :    0.199207   -0.036326
  14 C :   -0.431962    0.042949
  15 C :   -0.379292   -0.042298
  16 C :   -0.512618   -0.002436
  17 C :   -0.476439   -0.000803
  18 H :    0.091661    0.000454
  19 H :    0.078966   -0.003113
  20 H :   -0.012656    0.005253
  21 H :    0.060328    0.017350
  22 H :    0.002013    0.002132
  23 H :   -0.002125   -0.009868
  24 H :    0.000805    0.000503
  25 H :    0.017617   -0.010088
  26 H :   -0.058672   -0.000182
  27 H :   -0.048564    0.000562
  28 H :    0.104071   -0.000015
  29 H :   -0.040507   -0.001571

  Mayer bond orders larger than 0.100000
B(  0-O ,  8-C ) :  -0.1141 B(  0-O , 14-C ) :   1.4466 B(  1-O , 15-C ) :   1.3134
B(  2-O , 16-C ) :   1.4756 B(  3-O , 17-C ) :   1.6239 B(  4-N ,  8-C ) :   0.2150
B(  4-N , 10-C ) :   0.2773 B(  4-N , 16-C ) :   0.9808 B(  4-N , 26-H ) :   1.0311
B(  5-N ,  9-C ) :   0.2906 B(  5-N , 17-C ) :   1.1153 B(  5-N , 19-H ) :  -0.1542
B(  5-N , 27-H ) :   0.9505 B(  6-N , 14-C ) :   1.1173 B(  6-N , 16-C ) :   1.0248
B(  6-N , 28-H ) :   0.9456 B(  7-N , 11-C ) :   0.1021 B(  7-N , 15-C ) :   1.0904
B(  7-N , 17-C ) :   0.9145 B(  7-N , 29-H ) :   1.1444 B(  8-C ,  9-C ) :   0.1527
B(  8-C , 10-C ) :   0.6691 B(  8-C , 11-C ) :   0.2665 B(  8-C , 12-C ) :   0.4079
B(  8-C , 14-C ) :   0.7373 B(  8-C , 16-C ) :   0.1698 B(  8-C , 20-H ) :  -0.1064
B(  8-C , 22-H ) :  -0.1131 B(  9-C , 11-C ) :   0.4591 B(  9-C , 13-C ) :   0.4305
B(  9-C , 15-C ) :   0.6744 B(  9-C , 19-H ) :  -0.1270 B( 10-C , 11-C ) :   0.4570
B( 10-C , 16-C ) :  -0.1558 B( 10-C , 18-H ) :   0.7680 B( 11-C , 13-C ) :  -0.2086
B( 11-C , 17-C ) :  -0.1918 B( 11-C , 19-H ) :   0.9452 B( 12-C , 20-H ) :   0.9200
B( 12-C , 21-H ) :   0.8620 B( 12-C , 22-H ) :   1.0776 B( 13-C , 14-C ) :   0.1097
B( 13-C , 15-C ) :  -0.1329 B( 13-C , 23-H ) :   0.8510 B( 13-C , 24-H ) :   0.9734
B( 13-C , 25-H ) :   0.9475 B( 14-C , 16-C ) :  -0.1142

Dispersion correction           -0.061768180
FINAL SINGLE POINT ENERGY      -908.760008248546

DIPOLE MOMENT
-------------

Method             : TDA/CIS
Type of density    : Electron Density
Level              : Relaxed density
State              :   1
Multiplicity       :   3
Irrep              :   0
Energy             :     0.0000000000000000 Eh
Relativity type    :
Basis              : AO
                                X                 Y                 Z
Electronic contribution:     -3.963751807      -9.003305470      -6.656979390
Nuclear contribution   :      4.215902385      10.177451880       9.260595685
                        -----------------------------------------
Total Dipole Moment    :      0.252150578       1.174146409       2.603616295
                        -----------------------------------------
Magnitude (a.u.)       :      2.867231682
Magnitude (Debye)      :      7.287923755

Rotational constants in cm-1:             0.022040             0.013376             0.012753
Rotational constants in MHz :           660.730362           401.014293           382.319022

                             ****ORCA TERMINATED NORMALLY****
TOTAL RUN TIME: 0 days 0 hours 5 minutes 10 seconds 531 msec
