                         Program Version 6.0.0  -   RELEASE  -
|  1> ! EnGrad wB97M-D3BJ def2-TZVPPD
|  2> %pal nprocs 8 end%pal nprocs 16 end
|  3> %tddft
|  4>  sf true
|  5>  nroots 2 Iroot 2 end
|  6> *xyz 0 3
|  7> O   0.81478796614718 1.34797440473956 -0.09737036911789
|  8> C   0.56052770547986 0.21084785704024 0.18526209069956
|  9> C   -0.47797615818591 -0.79604848644173 -0.20232608209513
| 10> H   1.24476264021053 -0.26935569000663 0.92569277713491
| 11> H   0.04627427798008 -1.66589384253354 -0.59728242358828
| 12> H   -1.20536507948373 -0.43556870832051 -0.92587396540881
| 13> H   -0.98081135214802 -1.11035553447737 0.71189797237565
| 14> *
| 15>
| 16>                          ****END OF INPUT****

CARTESIAN COORDINATES (ANGSTROEM)
---------------------------------
  O      0.814788    1.347974   -0.097370
  C      0.560528    0.210848    0.185262
  C     -0.477976   -0.796048   -0.202326
  H      1.244763   -0.269356    0.925693
  H      0.046274   -1.665894   -0.597282
  H     -1.205365   -0.435569   -0.925874
  H     -0.980811   -1.110356    0.711898

 Total Charge           Charge          ....    0
 Multiplicity           Mult            ....    3
 Number of Electrons    NEL             ....   24
 Basis Dimension        Dim             ....  182

ORBITAL ENERGIES
----------------
                 SPIN UP ORBITALS
  NO   OCC          E(Eh)            E(eV)
   0   1.0000     -19.406288      -528.0719
   1   1.0000     -10.380465      -282.4668
   2   1.0000     -10.370142      -282.1859
   3   1.0000      -1.243090       -33.8262
   4   1.0000      -0.888010       -24.1640
   5   1.0000      -0.715774       -19.4772
   6   1.0000      -0.629926       -17.1411
   7   1.0000      -0.589341       -16.0368
   8   1.0000      -0.580668       -15.8008
   9   1.0000      -0.517069       -14.0702
  10   1.0000      -0.516434       -14.0529
  11   1.0000      -0.425537       -11.5794
  12   1.0000      -0.217515        -5.9189
  13   0.0000       0.038294         1.0420
  14   0.0000       0.059821         1.6278
  15   0.0000       0.077665         2.1134
  16   0.0000       0.087468         2.3801
  17   0.0000       0.106456         2.8968

                 SPIN DOWN ORBITALS
  NO   OCC          E(Eh)            E(eV)
   0   1.0000     -19.379167      -527.3339
   1   1.0000     -10.370217      -282.1879
   2   1.0000     -10.368174      -282.1324
   3   1.0000      -1.186938       -32.2982
   4   1.0000      -0.869007       -23.6469
   5   1.0000      -0.669964       -18.2306
   6   1.0000      -0.585230       -15.9249
   7   1.0000      -0.541802       -14.7432
   8   1.0000      -0.535766       -14.5789
   9   1.0000      -0.497676       -13.5425
  10   1.0000      -0.471527       -12.8309
  11   0.0000      -0.082159        -2.2357
  12   0.0000       0.039313         1.0698
  13   0.0000       0.059486         1.6187
  14   0.0000       0.077266         2.1025
  15   0.0000       0.084855         2.3090

----------------------------------------------------------------------------------------------------
          SPIN FLIP ABSORPTION SPECTRUM VIA TRANSITION ELECTRIC DIPOLE MOMENTS
----------------------------------------------------------------------------------------------------
     Transition      Energy     Energy  Wavelength fosc(D2)      D2        DX        DY        DZ
                      (eV)      (cm-1)    (nm)                 (au**2)    (au)      (au)      (au)
----------------------------------------------------------------------------------------------------
  1-3A  ->  2-3A    4.621136   37272.0   268.3   0.000301726   0.00267   0.03020  -0.01636  -0.03854

Dispersion correction             ... done (  0.0 sec)

MULLIKEN ATOMIC CHARGES AND SPIN DENSITIES
------------------------------------------
   0 O :   -0.275658    0.554727
   1 C :    0.235266   -0.602193
   2 C :   -0.707210    0.125088
   3 H :    0.082048    0.026927
   4 H :    0.208650   -0.051463
   5 H :    0.248159   -0.001435
   6 H :    0.208745   -0.051653
Sum of atomic charges       :    0.0000000

LOEWDIN ATOMIC CHARGES AND SPIN DENSITIES
-----------------------------------------
   0 O :    0.155170    0.368700
   1 C :   -0.258937   -0.331127
   2 C :    0.131932   -0.020766
   3 H :    0.019854    0.021901
   4 H :   -0.020905   -0.023704
   5 H :   -0.006186    0.008741
   6 H :   -0.020929   -0.023744

  Mayer bond orders larger than 0.100000
B(  0-O ,  1-C ) :   1.3027 B(  1-C ,  2-C ) :   0.6035 B(  1-C ,  3-H ) :   0.9915
B(  2-C ,  4-H ) :   1.0164 B(  2-C ,  5-H ) :   0.9278 B(  2-C ,  6-H ) :   1.0142

Dispersion correction           -0.005508653
FINAL SINGLE POINT ENERGY      -153.750002518087

DIPOLE MOMENT
-------------

Method             : TDA/CIS
Type of density    : Electron Density
Level              : Relaxed density
State              :   2
Multiplicity       :   3
Irrep              :   0
Energy             :     0.0000000000000000 Eh
Relativity type    :
Basis              : AO
                                X                 Y                 Z
Electronic contribution:      1.684533368       3.563697488      -0.190053834
Nuclear contribution   :     -1.950224787      -4.189186765       0.246811242
                        -----------------------------------------
Total Dipole Moment    :     -0.265691419      -0.625489277       0.056757408
                        -----------------------------------------
Magnitude (a.u.)       :      0.681945870
Magnitude (Debye)      :      1.733368649

Rotational constants in cm-1:             2.273839             0.313828             0.290509
Rotational constants in MHz :         68167.985140          9408.314529          8709.250343

                             ****ORCA TERMINATED NORMALLY****
TOTAL RUN TIME: 0 days 0 hours 0 minutes 16 seconds 103 msec
