                         Program Version 6.0.0  -   RELEASE  -
|  1> ! Engrad def2-TZVPPD wB97M-D3BJ
|  2> %pal nprocs 8 end%pal nprocs 64 end
|  3>  %tddft nroots 2 Iroot 2
|  4> sf true
|  5> end
|  6> *xyz 0 3
|  7> O   3.46741579131532 0.45977869501055 -0.71111162219344
|  8> O   -1.07766854389397 1.33113112264334 -2.51708913247281
|  9> O   0.470062347288 -2.79531139965674 -0.57660171096223
| 10> O   -2.98382343581421 -1.89217574098152 -0.03104178026008
| 11> N   0.40371316996435 -1.2642028431636 1.10476253627901
| 12> N   -2.12308416982967 -0.09185802844506 1.06391651776932
| 13> N   1.58041703029899 -0.81763819345475 -0.84779740175726
| 14> N   -1.67927158393457 -0.41589669314304 -1.18474078842357
| 15> C   1.96927405834634 0.51298802483341 1.1041438784853
| 16> C   -1.07652412122466 1.6677896457811 -0.17630393553831
| 17> C   0.43014227028863 0.10779701258114 1.49055684171959
| 18> C   -1.08571428675371 0.89397398722229 1.10933285606294
| 19> C   2.83825705898181 1.11434712546973 2.12242304939976
| 20> C   -1.00058063103477 3.13551764173584 -0.23084054313643
| 21> C   2.42083137146134 0.10658471008347 -0.18873947583767
| 22> C   -1.26557964050123 0.89697064437445 -1.39680390998399
| 23> C   0.79261407328037 -1.71102651019635 -0.15298131912822
| 24> C   -2.31438864542436 -0.88874191904905 -0.03689197249069
| 25> H   0.38821154968487 0.13162536648542 2.58090084171744
| 26> H   -1.25942962325828 1.56630051498894 1.94449727437368
| 27> H   3.86249862066578 1.1616790740997 1.76457493775873
| 28> H   2.510392183186 2.123448588839 2.39179758286134
| 29> H   2.8028074808441 0.52752376050362 3.04813675880893
| 30> H   -2.00551286661405 3.56267801060111 -0.11112402973261
| 31> H   -0.38333917525271 3.53864316020836 0.56920442761329
| 32> H   -0.62900932622813 3.45760578185071 -1.19980366857552
| 33> H   -0.16388600430776 -1.93415112079981 1.59732781500565
| 34> H   -2.5545814691432 -0.42541010000326 1.90732950183947
| 35> H   1.93515865141341 -1.16218168629332 -1.7254625325119
| 36> H   -1.81680213380402 -0.98278863212576 -2.00697099668974
| 37> *
| 38>
| 39>                          ****END OF INPUT****

CARTESIAN COORDINATES (ANGSTROEM)
---------------------------------
  O      3.467416    0.459779   -0.711112
  O     -1.077669    1.331131   -2.517089
  O      0.470062   -2.795311   -0.576602
  O     -2.983823   -1.892176   -0.031042
  N      0.403713   -1.264203    1.104763
  N     -2.123084   -0.091858    1.063917
  N      1.580417   -0.817638   -0.847797
  N     -1.679272   -0.415897   -1.184741
  C      1.969274    0.512988    1.104144
  C     -1.076524    1.667790   -0.176304
  C      0.430142    0.107797    1.490557
  C     -1.085714    0.893974    1.109333
  C      2.838257    1.114347    2.122423
  C     -1.000581    3.135518   -0.230841
  C      2.420831    0.106585   -0.188739
  C     -1.265580    0.896971   -1.396804
  C      0.792614   -1.711027   -0.152981
  C     -2.314389   -0.888742   -0.036892
  H      0.388212    0.131625    2.580901
  H     -1.259430    1.566301    1.944497
  H      3.862499    1.161679    1.764575
  H      2.510392    2.123449    2.391798
  H      2.802807    0.527524    3.048137
  H     -2.005513    3.562678   -0.111124
  H     -0.383339    3.538643    0.569204
  H     -0.629009    3.457606   -1.199804
  H     -0.163886   -1.934151    1.597328
  H     -2.554581   -0.425410    1.907330
  H      1.935159   -1.162182   -1.725463
  H     -1.816802   -0.982789   -2.006971

 Total Charge           Charge          ....    0
 Multiplicity           Mult            ....    3
 Number of Electrons    NEL             ....  132
 Basis Dimension        Dim             ....  882

ORBITAL ENERGIES
----------------
                 SPIN UP ORBITALS
  NO   OCC          E(Eh)            E(eV)
   0   1.0000     -19.337643      -526.2040
   1   1.0000     -19.328834      -525.9643
   2   1.0000     -19.318543      -525.6843
   3   1.0000     -19.316225      -525.6212
   4   1.0000     -14.563525      -396.2937
   5   1.0000     -14.556937      -396.1144
   6   1.0000     -14.556312      -396.0974
   7   1.0000     -14.555452      -396.0740
   8   1.0000     -10.502560      -285.7892
   9   1.0000     -10.498924      -285.6902
  10   1.0000     -10.479827      -285.1706
  11   1.0000     -10.474732      -285.0320
  12   1.0000     -10.450917      -284.3839
  13   1.0000     -10.448233      -284.3109
  14   1.0000     -10.428411      -283.7715
  15   1.0000     -10.410233      -283.2768
  16   1.0000     -10.376861      -282.3688
  17   1.0000     -10.369571      -282.1704
  18   1.0000      -1.219179       -33.1755
  19   1.0000      -1.214598       -33.0509
  20   1.0000      -1.194815       -32.5126
  21   1.0000      -1.192894       -32.4603
  22   1.0000      -1.114881       -30.3375
  23   1.0000      -1.097259       -29.8579
  24   1.0000      -1.061859       -28.8947
  25   1.0000      -1.052726       -28.6461
  26   1.0000      -0.963801       -26.2263
  27   1.0000      -0.953542       -25.9472
  28   1.0000      -0.875049       -23.8113
  29   1.0000      -0.839595       -22.8465
  30   1.0000      -0.826040       -22.4777
  31   1.0000      -0.803661       -21.8687
  32   1.0000      -0.781736       -21.2721
  33   1.0000      -0.771537       -20.9946
  34   1.0000      -0.694540       -18.8994
  35   1.0000      -0.690996       -18.8030
  36   1.0000      -0.676422       -18.4064
  37   1.0000      -0.656978       -17.8773
  38   1.0000      -0.647751       -17.6262
  39   1.0000      -0.641329       -17.4514
  40   1.0000      -0.617169       -16.7940
  41   1.0000      -0.600323       -16.3356
  42   1.0000      -0.592588       -16.1251
  43   1.0000      -0.586019       -15.9464
  44   1.0000      -0.570020       -15.5110
  45   1.0000      -0.567732       -15.4488
  46   1.0000      -0.560596       -15.2546
  47   1.0000      -0.559324       -15.2200
  48   1.0000      -0.556134       -15.1332
  49   1.0000      -0.549171       -14.9437
  50   1.0000      -0.541287       -14.7292
  51   1.0000      -0.539656       -14.6848
  52   1.0000      -0.536346       -14.5947
  53   1.0000      -0.519867       -14.1463
  54   1.0000      -0.515699       -14.0329
  55   1.0000      -0.502794       -13.6817
  56   1.0000      -0.487268       -13.2592
  57   1.0000      -0.423040       -11.5115
  58   1.0000      -0.417115       -11.3503
  59   1.0000      -0.414274       -11.2730
  60   1.0000      -0.401418       -10.9232
  61   1.0000      -0.396896       -10.8001
  62   1.0000      -0.390391       -10.6231
  63   1.0000      -0.387461       -10.5433
  64   1.0000      -0.375243       -10.2109
  65   1.0000      -0.339191        -9.2298
  66   1.0000      -0.324094        -8.8190
  67   0.0000       0.005669         0.1543
  68   0.0000       0.027342         0.7440
  69   0.0000       0.031364         0.8535
  70   0.0000       0.039364         1.0711
  71   0.0000       0.055537         1.5112

                 SPIN DOWN ORBITALS
  NO   OCC          E(Eh)            E(eV)
   0   1.0000     -19.332274      -526.0579
   1   1.0000     -19.324630      -525.8499
   2   1.0000     -19.318380      -525.6799
   3   1.0000     -19.315872      -525.6116
   4   1.0000     -14.562990      -396.2791
   5   1.0000     -14.556746      -396.1092
   6   1.0000     -14.555942      -396.0873
   7   1.0000     -14.554501      -396.0481
   8   1.0000     -10.502589      -285.7900
   9   1.0000     -10.498938      -285.6906
  10   1.0000     -10.480919      -285.2003
  11   1.0000     -10.475700      -285.0583
  12   1.0000     -10.450279      -284.3666
  13   1.0000     -10.448764      -284.3253
  14   1.0000     -10.416929      -283.4591
  15   1.0000     -10.398859      -282.9673
  16   1.0000     -10.377444      -282.3846
  17   1.0000     -10.370117      -282.1852
  18   1.0000      -1.217587       -33.1322
  19   1.0000      -1.212346       -32.9896
  20   1.0000      -1.188768       -32.3480
  21   1.0000      -1.187728       -32.3197
  22   1.0000      -1.112609       -30.2756
  23   1.0000      -1.094576       -29.7849
  24   1.0000      -1.060128       -28.8475
  25   1.0000      -1.051075       -28.6012
  26   1.0000      -0.948801       -25.8182
  27   1.0000      -0.936804       -25.4917
  28   1.0000      -0.871760       -23.7218
  29   1.0000      -0.833907       -22.6918
  30   1.0000      -0.817701       -22.2508
  31   1.0000      -0.798524       -21.7289
  32   1.0000      -0.780551       -21.2399
  33   1.0000      -0.769884       -20.9496
  34   1.0000      -0.688322       -18.7302
  35   1.0000      -0.684602       -18.6290
  36   1.0000      -0.671399       -18.2697
  37   1.0000      -0.651682       -17.7332
  38   1.0000      -0.639507       -17.4019
  39   1.0000      -0.635683       -17.2978
  40   1.0000      -0.615093       -16.7375
  41   1.0000      -0.595369       -16.2008
  42   1.0000      -0.583429       -15.8759
  43   1.0000      -0.576305       -15.6821
  44   1.0000      -0.563696       -15.3389
  45   1.0000      -0.559721       -15.2308
  46   1.0000      -0.555076       -15.1044
  47   1.0000      -0.552959       -15.0468
  48   1.0000      -0.545538       -14.8448
  49   1.0000      -0.542883       -14.7726
  50   1.0000      -0.536732       -14.6052
  51   1.0000      -0.532715       -14.4959
  52   1.0000      -0.528880       -14.3916
  53   1.0000      -0.508156       -13.8276
  54   1.0000      -0.505496       -13.7553
  55   1.0000      -0.497043       -13.5252
  56   1.0000      -0.480713       -13.0809
  57   1.0000      -0.417893       -11.3714
  58   1.0000      -0.413730       -11.2582
  59   1.0000      -0.405684       -11.0392
  60   1.0000      -0.389343       -10.5946
  61   1.0000      -0.385370       -10.4864
  62   1.0000      -0.384553       -10.4642
  63   1.0000      -0.381794       -10.3891
  64   1.0000      -0.364869        -9.9286
  65   0.0000      -0.056693        -1.5427
  66   0.0000      -0.047380        -1.2893
  67   0.0000       0.005454         0.1484
  68   0.0000       0.027233         0.7410
  69   0.0000       0.031235         0.8499

----------------------------------------------------------------------------------------------------
          SPIN FLIP ABSORPTION SPECTRUM VIA TRANSITION ELECTRIC DIPOLE MOMENTS
----------------------------------------------------------------------------------------------------
     Transition      Energy     Energy  Wavelength fosc(D2)      D2        DX        DY        DZ
                      (eV)      (cm-1)    (nm)                 (au**2)    (au)      (au)      (au)
----------------------------------------------------------------------------------------------------
  1-3A  ->  2-3A    0.032031     258.3  38708.0   0.000000094   0.00012   0.00627   0.00865  -0.00237

Dispersion correction             ... done (  0.1 sec)

MULLIKEN ATOMIC CHARGES AND SPIN DENSITIES
------------------------------------------
   0 O :   -0.666488   -0.188530
   1 O :   -0.678977    0.152465
   2 O :   -0.648751   -0.011796
   3 O :   -0.640562    0.003527
   4 N :   -0.225408   -0.007531
   5 N :   -0.290326    0.016630
   6 N :    0.110314   -0.002781
   7 N :    0.050411    0.021987
   8 C :    1.345462    0.222623
   9 C :   -0.118189    0.386191
  10 C :   -0.327661   -0.270348
  11 C :    0.651098    0.081317
  12 C :   -1.316601   -0.019234
  13 C :   -1.451011   -0.011239
  14 C :   -0.296064   -0.576300
  15 C :    0.694631    0.171007
  16 C :    0.338497    0.030953
  17 C :    0.340981   -0.014546
  18 H :    0.451969   -0.028831
  19 H :    0.513209    0.015433
  20 H :    0.333701   -0.010879
  21 H :    0.293291   -0.010202
  22 H :    0.342543   -0.001787
  23 H :    0.305828    0.034743
  24 H :    0.329142    0.004129
  25 H :    0.326078    0.015247
  26 H :    0.088876   -0.003332
  27 H :    0.067353    0.000350
  28 H :    0.060947    0.002004
  29 H :    0.015708   -0.001270
Sum of atomic charges       :    0.0000000

LOEWDIN ATOMIC CHARGES AND SPIN DENSITIES
-----------------------------------------
   0 O :    0.080674   -0.175022
   1 O :    0.096566    0.135375
   2 O :    0.096256   -0.011396
   3 O :    0.099383    0.003559
   4 N :    0.238993   -0.013216
   5 N :    0.262185    0.009983
   6 N :    0.323665   -0.005799
   7 N :    0.324014    0.014844
   8 C :    0.038147   -0.495460
   9 C :   -0.041566    0.497401
  10 C :   -0.012392    0.016835
  11 C :   -0.061979    0.036803
  12 C :    0.170791   -0.081923
  13 C :    0.183806    0.079198
  14 C :   -0.422289   -0.097980
  15 C :   -0.403719    0.080193
  16 C :   -0.496631   -0.000693
  17 C :   -0.492778    0.000347
  18 H :    0.021616    0.004650
  19 H :    0.037069    0.000357
  20 H :   -0.000905    0.001280
  21 H :    0.011204   -0.023356
  22 H :    0.011690   -0.019513
  23 H :    0.016030    0.030803
  24 H :   -0.003801    0.007973
  25 H :   -0.002127    0.004528
  26 H :   -0.027593   -0.001688
  27 H :   -0.027536    0.001088
  28 H :   -0.012080   -0.000438
  29 H :   -0.006694    0.001266

  Mayer bond orders larger than 0.100000
B(  0-O , 14-C ) :   1.4011 B(  1-O , 15-C ) :   1.3865 B(  2-O , 16-C ) :   1.5048
B(  3-O , 17-C ) :   1.5465 B(  4-N ,  8-C ) :   0.1144 B(  4-N , 10-C ) :   0.4224
B(  4-N , 16-C ) :   0.9955 B(  4-N , 26-H ) :   1.0571 B(  5-N ,  9-C ) :   0.3518
B(  5-N , 10-C ) :   0.1112 B(  5-N , 11-C ) :   0.1223 B(  5-N , 17-C ) :   1.1358
B(  5-N , 27-H ) :   1.0600 B(  6-N , 14-C ) :   0.9832 B(  6-N , 16-C ) :   1.0338
B(  6-N , 28-H ) :   1.0391 B(  7-N , 11-C ) :   0.1219 B(  7-N , 15-C ) :   0.9751
B(  7-N , 17-C ) :   0.9712 B(  7-N , 29-H ) :   1.0933 B(  8-C , 10-C ) :   0.2703
B(  8-C , 12-C ) :   0.3863 B(  8-C , 14-C ) :   0.5022 B(  9-C , 10-C ) :   0.3815
B(  9-C , 11-C ) :  -0.4456 B(  9-C , 13-C ) :   0.6467 B(  9-C , 15-C ) :   0.6670
B(  9-C , 17-C ) :   0.1269 B(  9-C , 19-H ) :  -0.1316 B(  9-C , 25-H ) :  -0.1173
B( 10-C , 11-C ) :   0.6593 B( 10-C , 14-C ) :   0.1142 B( 10-C , 16-C ) :  -0.1266
B( 10-C , 18-H ) :   0.7949 B( 11-C , 13-C ) :  -0.1188 B( 11-C , 17-C ) :  -0.2220
B( 11-C , 19-H ) :   0.8854 B( 12-C , 20-H ) :   0.9676 B( 12-C , 21-H ) :   0.9044
B( 12-C , 22-H ) :   0.9029 B( 13-C , 15-C ) :  -0.1120 B( 13-C , 23-H ) :   0.8887
B( 13-C , 24-H ) :   0.9340 B( 13-C , 25-H ) :   0.9694 B( 14-C , 16-C ) :  -0.1145

Dispersion correction           -0.056357616
FINAL SINGLE POINT ENERGY      -908.772930217071

DIPOLE MOMENT
-------------

Method             : TDA/CIS
Type of density    : Electron Density
Level              : Relaxed density
State              :   2
Multiplicity       :   3
Irrep              :   0
Energy             :     0.0000000000000000 Eh
Relativity type    :
Basis              : AO
                                X                 Y                 Z
Electronic contribution:     -2.868290416      -9.152830602      -7.378206788
Nuclear contribution   :      2.698521425      10.831490791      10.257192968
                        -----------------------------------------
Total Dipole Moment    :     -0.169768991       1.678660189       2.878986180
                        -----------------------------------------
Magnitude (a.u.)       :      3.336957141
Magnitude (Debye)      :      8.481870988

Rotational constants in cm-1:             0.019485             0.013456             0.011619
Rotational constants in MHz :           584.139843           403.400455           348.318218

                             ****ORCA TERMINATED NORMALLY****
TOTAL RUN TIME: 0 days 0 hours 4 minutes 24 seconds 962 msec
