                         Program Version 6.0.0  -   RELEASE  -
|  1> ! Engrad def2-TZVPPD wB97M-D3BJ
|  2> %pal nprocs 8 end%pal nprocs 64 end
|  3> %tddft Nroots 2 Iroot 2
|  4> sf true
|  5> end
|  6> *xyz 0 3
|  7> O   2.4155832 0.46677509 -0.94739766
|  8> O   -0.97231762 2.42016531 -2.47905412
|  9> O   1.00770025 -3.71656569 0.06054985
| 10> O   -2.31699448 -1.54505427 -0.96758977
| 11> N   0.93014544 -2.06643926 1.65034274
| 12> N   -1.27260869 -0.5136588 0.75992314
| 13> N   1.31347035 -1.5305666 -0.60723479
| 14> N   -1.36679626 0.42268749 -1.52417711
| 15> C   1.16887419 0.30711849 0.97770494
| 16> C   -1.19645706 2.49148422 -0.08867716
| 17> C   0.87330414 -0.69113814 2.06279015
| 18> C   -0.26097459 0.19984309 1.40911931
| 19> C   1.93407739 1.63038734 1.33709843
| 20> C   -1.50873069 3.86764788 0.45906669
| 21> C   1.64742437 -0.24912398 -0.27550821
| 22> C   -1.10729153 1.81821292 -1.43432281
| 23> C   1.07454611 -2.54581823 0.33375951
| 24> C   -1.6816503 -0.59567555 -0.61974284
| 25> H   1.12701804 -0.58104805 3.11227303
| 26> H   -0.65695641 1.03628035 1.92943406
| 27> H   1.68928078 2.33940395 0.59549446
| 28> H   1.46265705 1.89515674 2.29954715
| 29> H   3.02729004 1.47245838 1.36368076
| 30> H   -1.37682712 3.93126356 1.52060399
| 31> H   -0.90764656 4.67375348 0.03902253
| 32> H   -2.54845248 4.17002153 0.17067919
| 33> H   0.48480259 -2.74606425 2.220399
| 34> H   -1.86644509 -1.16410904 1.20606749
| 35> H   1.73959405 -1.92735434 -1.41279879
| 36> H   -1.76203621 0.25510861 -2.44331283
| 37> *
| 38>
| 39>                          ****END OF INPUT****

CARTESIAN COORDINATES (ANGSTROEM)
---------------------------------
  O      2.415583    0.466775   -0.947398
  O     -0.972318    2.420165   -2.479054
  O      1.007700   -3.716566    0.060550
  O     -2.316994   -1.545054   -0.967590
  N      0.930145   -2.066439    1.650343
  N     -1.272609   -0.513659    0.759923
  N      1.313470   -1.530567   -0.607235
  N     -1.366796    0.422687   -1.524177
  C      1.168874    0.307118    0.977705
  C     -1.196457    2.491484   -0.088677
  C      0.873304   -0.691138    2.062790
  C     -0.260975    0.199843    1.409119
  C      1.934077    1.630387    1.337098
  C     -1.508731    3.867648    0.459067
  C      1.647424   -0.249124   -0.275508
  C     -1.107292    1.818213   -1.434323
  C      1.074546   -2.545818    0.333760
  C     -1.681650   -0.595676   -0.619743
  H      1.127018   -0.581048    3.112273
  H     -0.656956    1.036280    1.929434
  H      1.689281    2.339404    0.595494
  H      1.462657    1.895157    2.299547
  H      3.027290    1.472458    1.363681
  H     -1.376827    3.931264    1.520604
  H     -0.907647    4.673753    0.039023
  H     -2.548452    4.170022    0.170679
  H      0.484803   -2.746064    2.220399
  H     -1.866445   -1.164109    1.206067
  H      1.739594   -1.927354   -1.412799
  H     -1.762036    0.255109   -2.443313

 Total Charge           Charge          ....    0
 Multiplicity           Mult            ....    3
 Number of Electrons    NEL             ....  132
 Basis Dimension        Dim             ....  882

ORBITAL ENERGIES
----------------
                 SPIN UP ORBITALS
  NO   OCC          E(Eh)            E(eV)
   0   1.0000     -19.345131      -526.4078
   1   1.0000     -19.329987      -525.9957
   2   1.0000     -19.327643      -525.9319
   3   1.0000     -19.322127      -525.7818
   4   1.0000     -14.570128      -396.4733
   5   1.0000     -14.561955      -396.2510
   6   1.0000     -14.557864      -396.1396
   7   1.0000     -14.547120      -395.8473
   8   1.0000     -10.511254      -286.0258
   9   1.0000     -10.507088      -285.9124
  10   1.0000     -10.501575      -285.7624
  11   1.0000     -10.487120      -285.3690
  12   1.0000     -10.436750      -283.9984
  13   1.0000     -10.431064      -283.8437
  14   1.0000     -10.426834      -283.7286
  15   1.0000     -10.411972      -283.3242
  16   1.0000     -10.389915      -282.7240
  17   1.0000     -10.366336      -282.0823
  18   1.0000      -1.222639       -33.2697
  19   1.0000      -1.219478       -33.1837
  20   1.0000      -1.207008       -32.8444
  21   1.0000      -1.186522       -32.2869
  22   1.0000      -1.117744       -30.4154
  23   1.0000      -1.082528       -29.4571
  24   1.0000      -1.067483       -29.0477
  25   1.0000      -1.052826       -28.6489
  26   1.0000      -0.996673       -27.1208
  27   1.0000      -0.924554       -25.1584
  28   1.0000      -0.863653       -23.5012
  29   1.0000      -0.826632       -22.4938
  30   1.0000      -0.821984       -22.3673
  31   1.0000      -0.803490       -21.8641
  32   1.0000      -0.781406       -21.2631
  33   1.0000      -0.768760       -20.9190
  34   1.0000      -0.713743       -19.4219
  35   1.0000      -0.696725       -18.9589
  36   1.0000      -0.682825       -18.5806
  37   1.0000      -0.655202       -17.8289
  38   1.0000      -0.633882       -17.2488
  39   1.0000      -0.627194       -17.0668
  40   1.0000      -0.608297       -16.5526
  41   1.0000      -0.604068       -16.4375
  42   1.0000      -0.594104       -16.1664
  43   1.0000      -0.581979       -15.8364
  44   1.0000      -0.574602       -15.6357
  45   1.0000      -0.567203       -15.4344
  46   1.0000      -0.564243       -15.3538
  47   1.0000      -0.562269       -15.3001
  48   1.0000      -0.554875       -15.0989
  49   1.0000      -0.549418       -14.9504
  50   1.0000      -0.547882       -14.9086
  51   1.0000      -0.540490       -14.7075
  52   1.0000      -0.525623       -14.3029
  53   1.0000      -0.514347       -13.9961
  54   1.0000      -0.493144       -13.4191
  55   1.0000      -0.473521       -12.8852
  56   1.0000      -0.448327       -12.1996
  57   1.0000      -0.441634       -12.0175
  58   1.0000      -0.419017       -11.4020
  59   1.0000      -0.407844       -11.0980
  60   1.0000      -0.405404       -11.0316
  61   1.0000      -0.400543       -10.8993
  62   1.0000      -0.393493       -10.7075
  63   1.0000      -0.380085       -10.3426
  64   1.0000      -0.369395       -10.0518
  65   1.0000      -0.347901        -9.4669
  66   1.0000      -0.346098        -9.4178
  67   0.0000       0.014355         0.3906
  68   0.0000       0.028435         0.7738
  69   0.0000       0.036628         0.9967
  70   0.0000       0.038934         1.0594
  71   0.0000       0.043546         1.1850

                 SPIN DOWN ORBITALS
  NO   OCC          E(Eh)            E(eV)
   0   1.0000     -19.339433      -526.2527
   1   1.0000     -19.329987      -525.9957
   2   1.0000     -19.327624      -525.9314
   3   1.0000     -19.322021      -525.7789
   4   1.0000     -14.570115      -396.4730
   5   1.0000     -14.561675      -396.2433
   6   1.0000     -14.557785      -396.1375
   7   1.0000     -14.547040      -395.8451
   8   1.0000     -10.511256      -286.0258
   9   1.0000     -10.507088      -285.9124
  10   1.0000     -10.502224      -285.7800
  11   1.0000     -10.487127      -285.3692
  12   1.0000     -10.436528      -283.9924
  13   1.0000     -10.426555      -283.7210
  14   1.0000     -10.411886      -283.3218
  15   1.0000     -10.405205      -283.1400
  16   1.0000     -10.390274      -282.7337
  17   1.0000     -10.366240      -282.0797
  18   1.0000      -1.221643       -33.2426
  19   1.0000      -1.218163       -33.1479
  20   1.0000      -1.200049       -32.6550
  21   1.0000      -1.186509       -32.2865
  22   1.0000      -1.117503       -30.4088
  23   1.0000      -1.082177       -29.4475
  24   1.0000      -1.066003       -29.0074
  25   1.0000      -1.051958       -28.6252
  26   1.0000      -0.996319       -27.1112
  27   1.0000      -0.896310       -24.3898
  28   1.0000      -0.863337       -23.4926
  29   1.0000      -0.823577       -22.4107
  30   1.0000      -0.809162       -22.0184
  31   1.0000      -0.801047       -21.7976
  32   1.0000      -0.779459       -21.2101
  33   1.0000      -0.762676       -20.7535
  34   1.0000      -0.711297       -19.3554
  35   1.0000      -0.696331       -18.9481
  36   1.0000      -0.675042       -18.3688
  37   1.0000      -0.653594       -17.7852
  38   1.0000      -0.632739       -17.2177
  39   1.0000      -0.616622       -16.7791
  40   1.0000      -0.606426       -16.5017
  41   1.0000      -0.589670       -16.0457
  42   1.0000      -0.588570       -16.0158
  43   1.0000      -0.575268       -15.6538
  44   1.0000      -0.568231       -15.4624
  45   1.0000      -0.563940       -15.3456
  46   1.0000      -0.560761       -15.2591
  47   1.0000      -0.557036       -15.1577
  48   1.0000      -0.548022       -14.9124
  49   1.0000      -0.545335       -14.8393
  50   1.0000      -0.542246       -14.7553
  51   1.0000      -0.530510       -14.4359
  52   1.0000      -0.516750       -14.0615
  53   1.0000      -0.511546       -13.9199
  54   1.0000      -0.492895       -13.4123
  55   1.0000      -0.472148       -12.8478
  56   1.0000      -0.444832       -12.1045
  57   1.0000      -0.427292       -11.6272
  58   1.0000      -0.418767       -11.3952
  59   1.0000      -0.404840       -11.0163
  60   1.0000      -0.396022       -10.7763
  61   1.0000      -0.392009       -10.6671
  62   1.0000      -0.390031       -10.6133
  63   1.0000      -0.377051       -10.2601
  64   1.0000      -0.355281        -9.6677
  65   0.0000      -0.039604        -1.0777
  66   0.0000      -0.022599        -0.6150
  67   0.0000       0.015391         0.4188
  68   0.0000       0.028765         0.7827
  69   0.0000       0.037351         1.0164

----------------------------------------------------------------------------------------------------
          SPIN FLIP ABSORPTION SPECTRUM VIA TRANSITION ELECTRIC DIPOLE MOMENTS
----------------------------------------------------------------------------------------------------
     Transition      Energy     Energy  Wavelength fosc(D2)      D2        DX        DY        DZ
                      (eV)      (cm-1)    (nm)                 (au**2)    (au)      (au)      (au)
----------------------------------------------------------------------------------------------------
  1-3A  ->  2-3A    0.171039    1379.5  7248.9   0.000308779   0.07369   0.19829  -0.07438   0.16981

Dispersion correction             ... done (  0.1 sec)

MULLIKEN ATOMIC CHARGES AND SPIN DENSITIES
------------------------------------------
   0 O :   -0.684768   -0.000314
   1 O :   -0.565270    0.098211
   2 O :   -0.626892   -0.001005
   3 O :   -0.630264    0.003848
   4 N :   -0.127956    0.000544
   5 N :   -0.041441   -0.046163
   6 N :    0.100434    0.000862
   7 N :    0.040971    0.005999
   8 C :    1.818652   -0.007570
   9 C :    0.107564   -0.172227
  10 C :   -0.224550   -0.038357
  11 C :   -0.744953    0.060188
  12 C :   -1.735244    0.034832
  13 C :   -0.924065    0.088864
  14 C :    0.007064    0.014643
  15 C :    0.523158    0.000662
  16 C :    0.381111    0.001759
  17 C :    0.486384    0.019818
  18 H :    0.206752    0.001307
  19 H :    0.490591   -0.084921
  20 H :    0.378916   -0.004551
  21 H :    0.374654   -0.002652
  22 H :    0.358123    0.001113
  23 H :    0.292158    0.036399
  24 H :    0.287576   -0.015293
  25 H :    0.286877    0.017975
  26 H :    0.047254    0.000687
  27 H :    0.001736   -0.004960
  28 H :    0.060827   -0.000606
  29 H :    0.054599   -0.009092
Sum of atomic charges       :    0.0000000

LOEWDIN ATOMIC CHARGES AND SPIN DENSITIES
-----------------------------------------
   0 O :    0.076676    0.000170
   1 O :    0.102635    0.057711
   2 O :    0.104448   -0.000921
   3 O :    0.102713    0.001704
   4 N :    0.281958   -0.002342
   5 N :    0.275867   -0.011751
   6 N :    0.351192    0.000329
   7 N :    0.303551    0.000150
   8 C :   -0.236312    0.001713
   9 C :    0.226696   -0.021906
  10 C :   -0.007365   -0.004314
  11 C :   -0.102415   -0.013662
  12 C :    0.233697    0.004881
  13 C :    0.120449   -0.016404
  14 C :   -0.354351    0.000210
  15 C :   -0.434441    0.014414
  16 C :   -0.438008   -0.000346
  17 C :   -0.453333   -0.003231
  18 H :    0.048350   -0.000288
  19 H :   -0.001116   -0.010322
  20 H :   -0.041211    0.004370
  21 H :    0.005102    0.000125
  22 H :    0.020212    0.000210
  23 H :   -0.036309   -0.005838
  24 H :   -0.002883   -0.018529
  25 H :    0.016529    0.024590
  26 H :   -0.054495   -0.000120
  27 H :   -0.063287   -0.000403
  28 H :   -0.024482    0.000011
  29 H :   -0.020066   -0.000209

  Mayer bond orders larger than 0.100000
B(  0-O , 14-C ) :   1.4728 B(  1-O , 15-C ) :   1.4408 B(  2-O , 16-C ) :   1.5823
B(  3-O , 17-C ) :   1.4676 B(  4-N , 10-C ) :   0.7405 B(  4-N , 11-C ) :  -0.1719
B(  4-N , 16-C ) :   1.0245 B(  4-N , 26-H ) :   1.0894 B(  5-N , 11-C ) :   0.8612
B(  5-N , 17-C ) :   0.9069 B(  5-N , 27-H ) :   1.1209 B(  6-N , 14-C ) :   1.0769
B(  6-N , 16-C ) :   0.9324 B(  6-N , 28-H ) :   1.0549 B(  7-N , 15-C ) :   0.9348
B(  7-N , 17-C ) :   0.9871 B(  7-N , 29-H ) :   1.0761 B(  8-C , 10-C ) :   0.4619
B(  8-C , 11-C ) :   0.1476 B(  8-C , 14-C ) :   0.5482 B(  8-C , 21-H ) :  -0.1026
B(  9-C , 11-C ) :   0.1193 B(  9-C , 13-C ) :   0.7223 B(  9-C , 15-C ) :   0.7890
B(  9-C , 19-H ) :  -0.1264 B( 10-C , 11-C ) :   0.7602 B( 10-C , 12-C ) :  -0.1722
B( 10-C , 18-H ) :   1.1685 B( 11-C , 19-H ) :   0.9762 B( 12-C , 20-H ) :   0.9563
B( 12-C , 21-H ) :   1.0403 B( 12-C , 22-H ) :   0.8453 B( 13-C , 23-H ) :   0.9651
B( 13-C , 24-H ) :   0.9146 B( 13-C , 25-H ) :   0.9204 B( 14-C , 16-C ) :  -0.1240

Dispersion correction           -0.054346626
FINAL SINGLE POINT ENERGY      -908.660166286107

DIPOLE MOMENT
-------------

Method             : TDA/CIS
Type of density    : Electron Density
Level              : Relaxed density
State              :   2
Multiplicity       :   3
Irrep              :   0
Energy             :     0.0000000000000000 Eh
Relativity type    :
Basis              : AO
                                X                 Y                 Z
Electronic contribution:     -0.555873040     -10.877321582      -7.831325468
Nuclear contribution   :      0.011522276      12.533339627      10.097062828
                        -----------------------------------------
Total Dipole Moment    :     -0.544350765       1.656018045       2.265737360
                        -----------------------------------------
Magnitude (a.u.)       :      2.858719871
Magnitude (Debye)      :      7.266288452

Rotational constants in cm-1:             0.021118             0.012239             0.010571
Rotational constants in MHz :           633.108610           366.909844           316.904644

                             ****ORCA TERMINATED NORMALLY****
TOTAL RUN TIME: 0 days 0 hours 4 minutes 37 seconds 223 msec
