                         Program Version 6.0.0  -   RELEASE  -
|  1> ! Engrad def2-TZVPPD wB97M-D3BJ
|  2> %pal nprocs 8 end%pal nprocs 32 end
|  3> %tddft Nroots 2 Iroot 1
|  4> sf true
|  5> end
|  6> *xyz 0 3
|  7> O   0.72770055 1.34326751 0.300833
|  8> C   0.6934429 0.11040857 -0.27484725
|  9> C   -0.57379066 -0.74928946 0.00899493
| 10> H   -0.42933869 -1.41350712 0.88082955
| 11> H   1.43079829 -0.21774451 -1.13334613
| 12> H   -0.88726084 -1.27927406 -0.84645292
| 13> H   -1.45579352 -0.08908005 0.26986909
| 14> *
| 15>
| 16>                          ****END OF INPUT****

CARTESIAN COORDINATES (ANGSTROEM)
---------------------------------
  O      0.727701    1.343268    0.300833
  C      0.693443    0.110409   -0.274847
  C     -0.573791   -0.749289    0.008995
  H     -0.429339   -1.413507    0.880830
  H      1.430798   -0.217745   -1.133346
  H     -0.887261   -1.279274   -0.846453
  H     -1.455794   -0.089080    0.269869

 Total Charge           Charge          ....    0
 Multiplicity           Mult            ....    3
 Number of Electrons    NEL             ....   24
 Basis Dimension        Dim             ....  182

ORBITAL ENERGIES
----------------
                 SPIN UP ORBITALS
  NO   OCC          E(Eh)            E(eV)
   0   1.0000     -19.426122      -528.6116
   1   1.0000     -10.412631      -283.3421
   2   1.0000     -10.369356      -282.1645
   3   1.0000      -1.186523       -32.2869
   4   1.0000      -0.869727       -23.6665
   5   1.0000      -0.716095       -19.4859
   6   1.0000      -0.607108       -16.5202
   7   1.0000      -0.564254       -15.3541
   8   1.0000      -0.557281       -15.1644
   9   1.0000      -0.512203       -13.9377
  10   1.0000      -0.490824       -13.3560
  11   1.0000      -0.452430       -12.3112
  12   1.0000      -0.265737        -7.2311
  13   0.0000       0.042773         1.1639
  14   0.0000       0.058518         1.5923
  15   0.0000       0.077794         2.1169
  16   0.0000       0.090987         2.4759
  17   0.0000       0.107103         2.9144

                 SPIN DOWN ORBITALS
  NO   OCC          E(Eh)            E(eV)
   0   1.0000     -19.397760      -527.8399
   1   1.0000     -10.400697      -283.0173
   2   1.0000     -10.368258      -282.1346
   3   1.0000      -1.118636       -30.4396
   4   1.0000      -0.853165       -23.2158
   5   1.0000      -0.677369       -18.4322
   6   1.0000      -0.563376       -15.3302
   7   1.0000      -0.531626       -14.4663
   8   1.0000      -0.511456       -13.9174
   9   1.0000      -0.485552       -13.2125
  10   1.0000      -0.449975       -12.2444
  11   0.0000      -0.079701        -2.1688
  12   0.0000       0.042414         1.1541
  13   0.0000       0.051083         1.3900
  14   0.0000       0.059233         1.6118
  15   0.0000       0.079800         2.1715

----------------------------------------------------------------------------------------------------
          SPIN FLIP ABSORPTION SPECTRUM VIA TRANSITION ELECTRIC DIPOLE MOMENTS
----------------------------------------------------------------------------------------------------
     Transition      Energy     Energy  Wavelength fosc(D2)      D2        DX        DY        DZ
                      (eV)      (cm-1)    (nm)                 (au**2)    (au)      (au)      (au)
----------------------------------------------------------------------------------------------------
  1-3A  ->  2-3A    3.233311   26078.4   383.5   0.000098776   0.00125  -0.02366   0.00499   0.02573

Dispersion correction             ... done (  0.1 sec)

MULLIKEN ATOMIC CHARGES AND SPIN DENSITIES
------------------------------------------
   0 O :   -0.533083    0.014001
   1 C :    0.191160   -0.118161
   2 C :   -0.578906    0.048360
   3 H :    0.196752    0.000147
   4 H :    0.268385    0.054287
   5 H :    0.249072   -0.001179
   6 H :    0.206619    0.002545
Sum of atomic charges       :   -0.0000000

LOEWDIN ATOMIC CHARGES AND SPIN DENSITIES
-----------------------------------------
   0 O :   -0.121031   -0.015202
   1 C :   -0.051215    0.012126
   2 C :    0.154827    0.003167
   3 H :   -0.002972    0.000325
   4 H :    0.059339   -0.000252
   5 H :   -0.060103   -0.000049
   6 H :    0.021155   -0.000115

  Mayer bond orders larger than 0.100000
B(  0-O ,  1-C ) :   1.7912 B(  1-C ,  2-C ) :   0.8140 B(  1-C ,  4-H ) :   0.9278
B(  2-C ,  3-H ) :   0.9704 B(  2-C ,  5-H ) :   0.9691 B(  2-C ,  6-H ) :   0.9656

Dispersion correction           -0.005366060
FINAL SINGLE POINT ENERGY      -153.875773789608

DIPOLE MOMENT
-------------

Method             : TDA/CIS
Type of density    : Electron Density
Level              : Relaxed density
State              :   1
Multiplicity       :   3
Irrep              :   0
Energy             :     0.0000000000000000 Eh
Relativity type    :
Basis              : AO
                                X                 Y                 Z
Electronic contribution:      1.939746782       2.370213661       0.302638162
Nuclear contribution   :     -2.250830729      -3.717393868      -0.840454611
                        -----------------------------------------
Total Dipole Moment    :     -0.311083947      -1.347180207      -0.537816449
                        -----------------------------------------
Magnitude (a.u.)       :      1.483547864
Magnitude (Debye)      :      3.770878994

Rotational constants in cm-1:             1.494558             0.319817             0.278068
Rotational constants in MHz :         44805.733097          9587.861289          8336.263467

                             ****ORCA TERMINATED NORMALLY****
TOTAL RUN TIME: 0 days 0 hours 0 minutes 17 seconds 155 msec
