                         Program Version 6.0.0  -   RELEASE  -
|  1> ! Engrad def2-TZVPPD wB97M-D3BJ
|  2> %pal nprocs 8 end%pal nprocs 64 end
|  3> %tddft
|  4>  Iroot 1 Nroots 3
|  5> sf true
|  6> end
|  7> *xyz 0 3
|  8> O   3.07478092 -0.75852245 -2.10820187
|  9> O   -2.26525562 1.26615956 -1.59112403
| 10> O   -1.20928803 -2.13253333 -1.25420307
| 11> O   -2.79811354 0.58024313 2.79290651
| 12> N   0.14517244 -1.77195519 0.54869009
| 13> N   -0.66888693 0.94411156 2.10194093
| 14> N   0.87122072 -1.37788644 -1.62804049
| 15> N   -2.45896888 0.94398639 0.62715195
| 16> C   2.24148635 -0.52755401 0.15125097
| 17> C   -0.28754506 1.19292029 -0.33246613
| 18> C   1.04463527 -0.68317486 1.00439555
| 19> C   0.31521139 0.77323229 1.02001474
| 20> C   3.45724826 0.02092217 0.67460808
| 21> C   0.51800633 1.61130344 -1.54476804
| 22> C   2.13290823 -0.91440066 -1.30777624
| 23> C   -1.69367171 1.11288443 -0.57037815
| 24> C   -0.15036732 -1.78522068 -0.76371783
| 25> C   -2.02070052 0.77663141 1.91315022
| 26> H   1.36646861 -1.01372421 1.99872154
| 27> H   1.10269205 1.55449315 1.11904749
| 28> H   3.42745376 1.08687723 0.740049
| 29> H   3.61494287 -0.31665086 1.66588539
| 30> H   4.31951443 -0.29991391 0.0901406
| 31> H   0.34833307 0.98516296 -2.40878768
| 32> H   0.10849424 2.58461413 -1.77447038
| 33> H   1.60580872 1.64804994 -1.30625059
| 34> H   -0.69076485 -1.92330382 1.06926863
| 35> H   -0.51294611 0.41396227 2.9767217
| 36> H   0.7420698 -1.58328927 -2.5986751
| 37> H   -3.40363587 0.71957079 0.46514509
| 38> *
| 39>
| 40>                          ****END OF INPUT****

CARTESIAN COORDINATES (ANGSTROEM)
---------------------------------
  O      3.074781   -0.758522   -2.108202
  O     -2.265256    1.266160   -1.591124
  O     -1.209288   -2.132533   -1.254203
  O     -2.798114    0.580243    2.792907
  N      0.145172   -1.771955    0.548690
  N     -0.668887    0.944112    2.101941
  N      0.871221   -1.377886   -1.628040
  N     -2.458969    0.943986    0.627152
  C      2.241486   -0.527554    0.151251
  C     -0.287545    1.192920   -0.332466
  C      1.044635   -0.683175    1.004396
  C      0.315211    0.773232    1.020015
  C      3.457248    0.020922    0.674608
  C      0.518006    1.611303   -1.544768
  C      2.132908   -0.914401   -1.307776
  C     -1.693672    1.112884   -0.570378
  C     -0.150367   -1.785221   -0.763718
  C     -2.020701    0.776631    1.913150
  H      1.366469   -1.013724    1.998722
  H      1.102692    1.554493    1.119047
  H      3.427454    1.086877    0.740049
  H      3.614943   -0.316651    1.665885
  H      4.319514   -0.299914    0.090141
  H      0.348333    0.985163   -2.408788
  H      0.108494    2.584614   -1.774470
  H      1.605809    1.648050   -1.306251
  H     -0.690765   -1.923304    1.069269
  H     -0.512946    0.413962    2.976722
  H      0.742070   -1.583289   -2.598675
  H     -3.403636    0.719571    0.465145

 Total Charge           Charge          ....    0
 Multiplicity           Mult            ....    3
 Number of Electrons    NEL             ....  132
 Basis Dimension        Dim             ....  882

ORBITAL ENERGIES
----------------
                 SPIN UP ORBITALS
  NO   OCC          E(Eh)            E(eV)
   0   1.0000     -19.342460      -526.3351
   1   1.0000     -19.336405      -526.1703
   2   1.0000     -19.328545      -525.9564
   3   1.0000     -19.318803      -525.6914
   4   1.0000     -14.571382      -396.5075
   5   1.0000     -14.571097      -396.4997
   6   1.0000     -14.564358      -396.3163
   7   1.0000     -14.548649      -395.8889
   8   1.0000     -10.512429      -286.0577
   9   1.0000     -10.497582      -285.6537
  10   1.0000     -10.494561      -285.5715
  11   1.0000     -10.475537      -285.0539
  12   1.0000     -10.460559      -284.6463
  13   1.0000     -10.458504      -284.5904
  14   1.0000     -10.424297      -283.6595
  15   1.0000     -10.421169      -283.5744
  16   1.0000     -10.374435      -282.3027
  17   1.0000     -10.371018      -282.2097
  18   1.0000      -1.231379       -33.5075
  19   1.0000      -1.225472       -33.3468
  20   1.0000      -1.215163       -33.0663
  21   1.0000      -1.189692       -32.3732
  22   1.0000      -1.121038       -30.5050
  23   1.0000      -1.101107       -29.9626
  24   1.0000      -1.073535       -29.2124
  25   1.0000      -1.055282       -28.7157
  26   1.0000      -0.990991       -26.9662
  27   1.0000      -0.961147       -26.1541
  28   1.0000      -0.891217       -24.2512
  29   1.0000      -0.848921       -23.1003
  30   1.0000      -0.823061       -22.3966
  31   1.0000      -0.807525       -21.9739
  32   1.0000      -0.797901       -21.7120
  33   1.0000      -0.773219       -21.0404
  34   1.0000      -0.699424       -19.0323
  35   1.0000      -0.695855       -18.9352
  36   1.0000      -0.685334       -18.6489
  37   1.0000      -0.678932       -18.4747
  38   1.0000      -0.658672       -17.9234
  39   1.0000      -0.635417       -17.2906
  40   1.0000      -0.615304       -16.7433
  41   1.0000      -0.608887       -16.5687
  42   1.0000      -0.597128       -16.2487
  43   1.0000      -0.591657       -16.0998
  44   1.0000      -0.583358       -15.8740
  45   1.0000      -0.579118       -15.7586
  46   1.0000      -0.568257       -15.4631
  47   1.0000      -0.565805       -15.3963
  48   1.0000      -0.564495       -15.3607
  49   1.0000      -0.562678       -15.3113
  50   1.0000      -0.554743       -15.0953
  51   1.0000      -0.544820       -14.8253
  52   1.0000      -0.533679       -14.5221
  53   1.0000      -0.520706       -14.1691
  54   1.0000      -0.515327       -14.0228
  55   1.0000      -0.506703       -13.7881
  56   1.0000      -0.503667       -13.7055
  57   1.0000      -0.434549       -11.8247
  58   1.0000      -0.422137       -11.4869
  59   1.0000      -0.415530       -11.3072
  60   1.0000      -0.411156       -11.1881
  61   1.0000      -0.404147       -10.9974
  62   1.0000      -0.400467       -10.8973
  63   1.0000      -0.392618       -10.6837
  64   1.0000      -0.389288       -10.5931
  65   1.0000      -0.353045        -9.6068
  66   1.0000      -0.328563        -8.9406
  67   0.0000       0.010499         0.2857
  68   0.0000       0.028755         0.7825
  69   0.0000       0.034030         0.9260
  70   0.0000       0.035459         0.9649
  71   0.0000       0.050433         1.3724

                 SPIN DOWN ORBITALS
  NO   OCC          E(Eh)            E(eV)
   0   1.0000     -19.338880      -526.2377
   1   1.0000     -19.332657      -526.0683
   2   1.0000     -19.328224      -525.9477
   3   1.0000     -19.318671      -525.6878
   4   1.0000     -14.571030      -396.4979
   5   1.0000     -14.570693      -396.4887
   6   1.0000     -14.564073      -396.3086
   7   1.0000     -14.547964      -395.8702
   8   1.0000     -10.512516      -286.0601
   9   1.0000     -10.497634      -285.6551
  10   1.0000     -10.495562      -285.5988
  11   1.0000     -10.476431      -285.0782
  12   1.0000     -10.460094      -284.6336
  13   1.0000     -10.458176      -284.5814
  14   1.0000     -10.412805      -283.3468
  15   1.0000     -10.409638      -283.2606
  16   1.0000     -10.374823      -282.3133
  17   1.0000     -10.371611      -282.2259
  18   1.0000      -1.228933       -33.4410
  19   1.0000      -1.224443       -33.3188
  20   1.0000      -1.211541       -32.9677
  21   1.0000      -1.184890       -32.2425
  22   1.0000      -1.118760       -30.4430
  23   1.0000      -1.099191       -29.9105
  24   1.0000      -1.071751       -29.1638
  25   1.0000      -1.053676       -28.6720
  26   1.0000      -0.977308       -26.5939
  27   1.0000      -0.943688       -25.6791
  28   1.0000      -0.885997       -24.1092
  29   1.0000      -0.843506       -22.9530
  30   1.0000      -0.814196       -22.1554
  31   1.0000      -0.801528       -21.8107
  32   1.0000      -0.796446       -21.6724
  33   1.0000      -0.771761       -21.0007
  34   1.0000      -0.692168       -18.8349
  35   1.0000      -0.690613       -18.7925
  36   1.0000      -0.680691       -18.5226
  37   1.0000      -0.671420       -18.2703
  38   1.0000      -0.645627       -17.5684
  39   1.0000      -0.632768       -17.2185
  40   1.0000      -0.608040       -16.5456
  41   1.0000      -0.603352       -16.4180
  42   1.0000      -0.594588       -16.1796
  43   1.0000      -0.586652       -15.9636
  44   1.0000      -0.573571       -15.6077
  45   1.0000      -0.568113       -15.4591
  46   1.0000      -0.564044       -15.3484
  47   1.0000      -0.560066       -15.2402
  48   1.0000      -0.559491       -15.2245
  49   1.0000      -0.553406       -15.0590
  50   1.0000      -0.549555       -14.9542
  51   1.0000      -0.536328       -14.5942
  52   1.0000      -0.526877       -14.3370
  53   1.0000      -0.513674       -13.9778
  54   1.0000      -0.505784       -13.7631
  55   1.0000      -0.502006       -13.6603
  56   1.0000      -0.497122       -13.5274
  57   1.0000      -0.431449       -11.7403
  58   1.0000      -0.418744       -11.3946
  59   1.0000      -0.410542       -11.1714
  60   1.0000      -0.400116       -10.8877
  61   1.0000      -0.394557       -10.7364
  62   1.0000      -0.391412       -10.6509
  63   1.0000      -0.387551       -10.5458
  64   1.0000      -0.384164       -10.4536
  65   0.0000      -0.069097        -1.8802
  66   0.0000      -0.050096        -1.3632
  67   0.0000       0.009966         0.2712
  68   0.0000       0.028357         0.7716
  69   0.0000       0.034344         0.9345

----------------------------------------------------------------------------------------------------
          SPIN FLIP ABSORPTION SPECTRUM VIA TRANSITION ELECTRIC DIPOLE MOMENTS
----------------------------------------------------------------------------------------------------
     Transition      Energy     Energy  Wavelength fosc(D2)      D2        DX        DY        DZ
                      (eV)      (cm-1)    (nm)                 (au**2)    (au)      (au)      (au)
----------------------------------------------------------------------------------------------------
  1-3A  ->  2-3A    0.093845     756.9  13211.7   0.000023078   0.01004  -0.07679   0.04110   0.04952
  1-3A  ->  3-3A    2.279494   18385.4   543.9   0.000154305   0.00276  -0.04639  -0.01803  -0.01689

Dispersion correction             ... done (  0.1 sec)

MULLIKEN ATOMIC CHARGES AND SPIN DENSITIES
------------------------------------------
   0 O :   -0.698024   -0.002131
   1 O :   -0.618401    0.000998
   2 O :   -0.637601   -0.001373
   3 O :   -0.627111   -0.000178
   4 N :   -0.204165   -0.014220
   5 N :   -0.348098   -0.003272
   6 N :    0.078372   -0.005222
   7 N :   -0.022818   -0.003623
   8 C :    0.251709    0.288690
   9 C :    0.582305    0.350386
  10 C :    0.566586   -0.157668
  11 C :   -0.030768   -0.197334
  12 C :   -1.284541   -0.009975
  13 C :   -1.560687   -0.019072
  14 C :    0.151405   -0.150850
  15 C :    0.270119   -0.176941
  16 C :    0.326786    0.024270
  17 C :    0.439888    0.010702
  18 H :    0.530206    0.001819
  19 H :    0.550714    0.019920
  20 H :    0.280915    0.014011
  21 H :    0.333709    0.009198
  22 H :    0.343638   -0.002484
  23 H :    0.279185    0.006223
  24 H :    0.511254    0.011383
  25 H :    0.273055    0.001192
  26 H :    0.081769    0.000125
  27 H :    0.169043    0.001030
  28 H :    0.031289    0.002286
  29 H :   -0.019732    0.002113
Sum of atomic charges       :    0.0000000

LOEWDIN ATOMIC CHARGES AND SPIN DENSITIES
-----------------------------------------
   0 O :    0.054742   -0.002452
   1 O :    0.140709    0.001300
   2 O :    0.096473   -0.001658
   3 O :    0.105454   -0.000284
   4 N :    0.300486   -0.000893
   5 N :    0.265710   -0.001461
   6 N :    0.321615   -0.001368
   7 N :    0.344238   -0.001843
   8 C :   -0.053904    0.005755
   9 C :    0.003872    0.014035
  10 C :   -0.068765   -0.003409
  11 C :   -0.064959   -0.003002
  12 C :    0.183295    0.000013
  13 C :    0.206809    0.001281
  14 C :   -0.379463   -0.004121
  15 C :   -0.442247   -0.002165
  16 C :   -0.494041   -0.000237
  17 C :   -0.538053   -0.000430
  18 H :    0.056426   -0.000425
  19 H :    0.052498   -0.000269
  20 H :   -0.001578    0.000460
  21 H :   -0.013797    0.000254
  22 H :    0.019153    0.000020
  23 H :    0.000070    0.000812
  24 H :    0.005959    0.000630
  25 H :    0.014207   -0.000125
  26 H :   -0.042777   -0.000038
  27 H :   -0.015599   -0.000154
  28 H :   -0.014578   -0.000063
  29 H :   -0.041955   -0.000161

  Mayer bond orders larger than 0.100000
B(  0-O , 14-C ) :   1.4280 B(  1-O , 15-C ) :   1.2999 B(  2-O , 16-C ) :   1.4824
B(  3-O , 17-C ) :   1.5905 B(  4-N ,  8-C ) :   0.3255 B(  4-N , 10-C ) :   0.1992
B(  4-N , 11-C ) :   0.1056 B(  4-N , 16-C ) :   1.0298 B(  4-N , 26-H ) :   0.9990
B(  5-N ,  9-C ) :   0.1762 B(  5-N , 11-C ) :   0.1804 B(  5-N , 17-C ) :   1.1404
B(  5-N , 19-H ) :  -0.1398 B(  5-N , 27-H ) :   0.9300 B(  6-N ,  8-C ) :  -0.1543
B(  6-N , 10-C ) :   0.1529 B(  6-N , 14-C ) :   1.0734 B(  6-N , 16-C ) :   0.8391
B(  6-N , 28-H ) :   1.1248 B(  7-N ,  9-C ) :  -0.1143 B(  7-N , 11-C ) :   0.1198
B(  7-N , 15-C ) :   1.0014 B(  7-N , 17-C ) :   0.9381 B(  7-N , 29-H ) :   1.1482
B(  8-C , 10-C ) :   0.1965 B(  8-C , 11-C ) :   0.4466 B(  8-C , 12-C ) :   0.6187
B(  8-C , 14-C ) :   0.7185 B(  8-C , 16-C ) :   0.1097 B(  8-C , 18-H ) :  -0.1814
B(  8-C , 21-H ) :  -0.1123 B(  8-C , 22-H ) :  -0.1057 B(  9-C , 11-C ) :   0.7657
B(  9-C , 13-C ) :   0.2140 B(  9-C , 15-C ) :   0.6916 B(  9-C , 16-C ) :   0.1195
B(  9-C , 19-H ) :  -0.1958 B(  9-C , 25-H ) :  -0.1496 B( 10-C , 11-C ) :   0.3233
B( 10-C , 14-C ) :  -0.1118 B( 10-C , 18-H ) :   0.9253 B( 11-C , 17-C ) :  -0.2132
B( 11-C , 18-H ) :  -0.1068 B( 11-C , 19-H ) :   0.8358 B( 12-C , 20-H ) :   0.8256
B( 12-C , 21-H ) :   0.9999 B( 12-C , 22-H ) :   0.9543 B( 13-C , 23-H ) :   1.0005
B( 13-C , 24-H ) :   0.7176 B( 13-C , 25-H ) :   1.1535

Dispersion correction           -0.059746537
FINAL SINGLE POINT ENERGY      -908.778465830778

DIPOLE MOMENT
-------------

Method             : TDA/CIS
Type of density    : Electron Density
Level              : Relaxed density
State              :   1
Multiplicity       :   3
Irrep              :   0
Energy             :     0.0000000000000000 Eh
Relativity type    :
Basis              : AO
                                X                 Y                 Z
Electronic contribution:     -9.411094862      -3.819710292      -0.857556750
Nuclear contribution   :     11.309745952       4.114405665       2.178975038
                        -----------------------------------------
Total Dipole Moment    :      1.898651091       0.294695373       1.321418288
                        -----------------------------------------
Magnitude (a.u.)       :      2.331923588
Magnitude (Debye)      :      5.927278711

Rotational constants in cm-1:             0.023346             0.012202             0.011046
Rotational constants in MHz :           699.903958           365.813186           331.137900

                             ****ORCA TERMINATED NORMALLY****
TOTAL RUN TIME: 0 days 0 hours 5 minutes 17 seconds 975 msec
