                         Program Version 6.0.0  -   RELEASE  -
|  1> ! Opt wB97M-D3BJ def2-TZVPPD
|  2> %pal nprocs 8 end %pal nprocs 64 end
|  3> %geom
|  4> Constraints
|  5>     {A 2 1 0 145.4237288135593 C }
|  6> end
|  7> MaxIter 200
|  8> end
|  9> *xyz 0 1
| 10> O   1.9305619547018407 0.40784918347661714 0.0
| 11> C   0.7509 -0.4065 0.0
| 12> C   -0.7502 -0.4076 0.0
| 13> H   1.2625 -0.6786 0.9136
| 14> H   1.2625 -0.6787 -0.9136
| 15> H   -1.2614 -0.6806 -0.9136
| 16> H   -1.2614 -0.6805 0.9136
| 17> *
| 18>
| 19>                          ****END OF INPUT****
 Total Charge           Charge          ....    0
 Multiplicity           Mult            ....    1
 Number of Electrons    NEL             ....   24
Dispersion correction           -0.005284064
FINAL SINGLE POINT ENERGY      -153.679825296812
Dispersion correction             ... done (  0.1 sec)
Dispersion correction           -0.005385538
FINAL SINGLE POINT ENERGY      -153.703140515709
Dispersion correction             ... done (  0.1 sec)
Dispersion correction           -0.005455667
FINAL SINGLE POINT ENERGY      -153.713553086421
Dispersion correction             ... done (  0.1 sec)
FINAL SINGLE POINT ENERGY      -153.721038091392
FINAL SINGLE POINT ENERGY      -153.728754451569
FINAL SINGLE POINT ENERGY      -153.738335109962
FINAL SINGLE POINT ENERGY      -153.754798540258
FINAL SINGLE POINT ENERGY      -153.787023000743
FINAL SINGLE POINT ENERGY      -153.818097955078
FINAL SINGLE POINT ENERGY      -153.839525500620
FINAL SINGLE POINT ENERGY      -153.911952232024
FINAL SINGLE POINT ENERGY      -153.913600238540
FINAL SINGLE POINT ENERGY      -153.913832475501
FINAL SINGLE POINT ENERGY      -153.913911411954
FINAL SINGLE POINT ENERGY      -153.914144597182
FINAL SINGLE POINT ENERGY      -153.914249064333
FINAL SINGLE POINT ENERGY      -153.914296440417
Dispersion correction             ... done (  0.1 sec)
Dispersion correction           -0.005490075
FINAL SINGLE POINT ENERGY      -153.914308629627
Dispersion correction             ... done (  0.1 sec)
Dispersion correction           -0.005491236
FINAL SINGLE POINT ENERGY      -153.914310109898
Dispersion correction             ... done (  0.1 sec)
                    ***********************HURRAY********************

CARTESIAN COORDINATES (ANGSTROEM)
---------------------------------
  O      1.716073    0.911246    0.033148
  C      0.978199   -0.021013    0.188956
  C     -0.303532   -0.670444   -0.248762
  H      1.352793   -0.733569    0.975525
  H     -0.030087   -1.671819   -0.577373
  H     -0.875327   -0.163555   -1.024436
  H     -0.904657   -0.775497    0.652941

 Multiplicity           Mult            ....    1
 Number of Electrons    NEL             ....   24
 Basis Dimension        Dim             ....  182

ORBITAL ENERGIES
----------------

  NO   OCC          E(Eh)            E(eV)
   0   2.0000     -19.344580      -526.3928
   1   2.0000     -10.447236      -284.2837
   2   2.0000     -10.370657      -282.1999
   3   2.0000      -1.191044       -32.4100
   4   2.0000      -0.899341       -24.4723
   5   2.0000      -0.694477       -18.8977
   6   2.0000      -0.595264       -16.1980
   7   2.0000      -0.568408       -15.4672
   8   2.0000      -0.562856       -15.3161
   9   2.0000      -0.511539       -13.9197
  10   2.0000      -0.482825       -13.1383
  11   2.0000      -0.358766        -9.7625
  12   0.0000       0.032823         0.8932
  13   0.0000       0.058302         1.5865
  14   0.0000       0.059141         1.6093
  15   0.0000       0.080805         2.1988
  16   0.0000       0.084733         2.3057

MULLIKEN ATOMIC CHARGES
-----------------------
   0 O :   -0.460877
   1 C :    0.224055
   2 C :   -0.685763
   3 H :    0.191901
   4 H :    0.244340
   5 H :    0.241695
   6 H :    0.244649
Sum of atomic charges:   -0.0000000

LOEWDIN ATOMIC CHARGES
----------------------
   0 O :    0.078473
   1 C :   -0.244264
   2 C :    0.172403
   3 H :    0.017256
   4 H :   -0.006318
   5 H :   -0.011198
   6 H :   -0.006352

  Mayer bond orders larger than 0.100000
B(  0-O ,  1-C ) :   1.7748 B(  1-C ,  2-C ) :   0.7565 B(  1-C ,  3-H ) :   1.0238
B(  2-C ,  4-H ) :   0.9821 B(  2-C ,  5-H ) :   0.9650 B(  2-C ,  6-H ) :   0.9816

Dispersion correction           -0.005491200
FINAL SINGLE POINT ENERGY      -153.914310177742

DIPOLE MOMENT
-------------

Method             : SCF
Type of density    : Electron Density
Multiplicity       :   1
Irrep              :   0
Energy             :  -153.9088189774392674 Eh
Relativity type    :
Basis              : AO
                                X                 Y                 Z
Electronic contribution:      2.557070641       2.495286412      -0.002268735
Nuclear contribution   :     -3.405269051      -3.372445462       0.039277713
                        -----------------------------------------
Total Dipole Moment    :     -0.848198411      -0.877159049       0.037008977
                        -----------------------------------------
Magnitude (a.u.)       :      1.220744939
Magnitude (Debye)      :      3.102887044

Rotational constants in cm-1:             2.595685             0.297226             0.280473
Rotational constants in MHz :         77816.690349          8910.620237          8408.357168

                             ****ORCA TERMINATED NORMALLY****
TOTAL RUN TIME: 0 days 0 hours 5 minutes 39 seconds 618 msec
