                         Program Version 6.0.0  -   RELEASE  -
|  1> ! Engrad def2-TZVPPD wB97M-D3BJ
|  2> %pal nprocs 8 end%pal nprocs 32 end
|  3>  %tddft nroots 2 Iroot 1
|  4> sf true
|  5> end
|  6> *xyz 0 3
|  7> O   3.30214637243523 0.54621143211454 -0.62990327570513
|  8> O   -0.64409616743578 1.22919906634218 -2.42653854945063
|  9> O   0.46530813948502 -2.96674741724391 -0.79204397512825
| 10> O   -3.22363961550116 -1.53254570138102 0.0124034500609
| 11> N   0.27229642586351 -1.53190117758475 0.95414872575202
| 12> N   -2.07796452100795 0.08759654797724 1.13288900286692
| 13> N   1.73701621564375 -1.08572835106699 -0.79274207758153
| 14> N   -1.64406561967799 -0.34241797704548 -1.11815450007338
| 15> C   1.6535400792253 0.46378249326852 1.05322436545745
| 16> C   -0.65716505886759 1.56758588938659 -0.07914472772965
| 17> C   0.38893613554591 -0.2113758370552 1.52836321426275
| 18> C   -0.79140773369413 0.74999168396292 1.22258117935561
| 19> C   2.27856539767344 1.51692192663732 1.87350758333164
| 20> C   -0.63462974253468 3.03923636138343 -0.05334027237337
| 21> C   2.31296897276484 0.01054673160235 -0.16732291841682
| 22> C   -0.94534631841881 0.84521281901811 -1.31646030371682
| 23> C   0.78666863211941 -1.93480336693082 -0.24891634305009
| 24> C   -2.37931500876364 -0.66947213031918 0.02164715490767
| 25> H   0.43453802991862 -0.34119025890558 2.61436876385794
| 26> H   -0.84135730747364 1.46267741757205 2.0442289661241
| 27> H   3.1466516890465 1.92529809204143 1.36725551592108
| 28> H   1.57523017444703 2.32670227180288 2.09166357678568
| 29> H   2.5830408268082 1.10837739376616 2.84283145462005
| 30> H   -1.58654847118927 3.42677031272098 0.32923305727687
| 31> H   0.14385763811888 3.4091373345658 0.61869675854406
| 32> H   -0.47638819859915 3.43440488502292 -1.05220202790474
| 33> H   -0.44238477847751 -2.14702088292997 1.3025734831529
| 34> H   -2.58287040408955 -0.18984023494591 1.95736185533257
| 35> H   2.16806288925146 -1.39971321883915 -1.64635243602352
| 36> H   -1.86904867261624 -0.88189610493748 -1.93925670045631
| 37> *
| 38>
| 39>                          ****END OF INPUT****

CARTESIAN COORDINATES (ANGSTROEM)
---------------------------------
  O      3.302146    0.546211   -0.629903
  O     -0.644096    1.229199   -2.426539
  O      0.465308   -2.966747   -0.792044
  O     -3.223640   -1.532546    0.012403
  N      0.272296   -1.531901    0.954149
  N     -2.077965    0.087597    1.132889
  N      1.737016   -1.085728   -0.792742
  N     -1.644066   -0.342418   -1.118155
  C      1.653540    0.463782    1.053224
  C     -0.657165    1.567586   -0.079145
  C      0.388936   -0.211376    1.528363
  C     -0.791408    0.749992    1.222581
  C      2.278565    1.516922    1.873508
  C     -0.634630    3.039236   -0.053340
  C      2.312969    0.010547   -0.167323
  C     -0.945346    0.845213   -1.316460
  C      0.786669   -1.934803   -0.248916
  C     -2.379315   -0.669472    0.021647
  H      0.434538   -0.341190    2.614369
  H     -0.841357    1.462677    2.044229
  H      3.146652    1.925298    1.367256
  H      1.575230    2.326702    2.091664
  H      2.583041    1.108377    2.842831
  H     -1.586548    3.426770    0.329233
  H      0.143858    3.409137    0.618697
  H     -0.476388    3.434405   -1.052202
  H     -0.442385   -2.147021    1.302573
  H     -2.582870   -0.189840    1.957362
  H      2.168063   -1.399713   -1.646352
  H     -1.869049   -0.881896   -1.939257

 Total Charge           Charge          ....    0
 Multiplicity           Mult            ....    3
 Number of Electrons    NEL             ....  132
 Basis Dimension        Dim             ....  882

ORBITAL ENERGIES
----------------
                 SPIN UP ORBITALS
  NO   OCC          E(Eh)            E(eV)
   0   1.0000     -19.333290      -526.0856
   1   1.0000     -19.331988      -526.0501
   2   1.0000     -19.322494      -525.7918
   3   1.0000     -19.315097      -525.5905
   4   1.0000     -14.563901      -396.3039
   5   1.0000     -14.560098      -396.2004
   6   1.0000     -14.559928      -396.1958
   7   1.0000     -14.556840      -396.1117
   8   1.0000     -10.505851      -285.8787
   9   1.0000     -10.501682      -285.7653
  10   1.0000     -10.479911      -285.1729
  11   1.0000     -10.479603      -285.1645
  12   1.0000     -10.444666      -284.2138
  13   1.0000     -10.443772      -284.1895
  14   1.0000     -10.418044      -283.4894
  15   1.0000     -10.415765      -283.4274
  16   1.0000     -10.375221      -282.3241
  17   1.0000     -10.374146      -282.2949
  18   1.0000      -1.221962       -33.2513
  19   1.0000      -1.216082       -33.0913
  20   1.0000      -1.197994       -32.5991
  21   1.0000      -1.195080       -32.5198
  22   1.0000      -1.119586       -30.4655
  23   1.0000      -1.096806       -29.8456
  24   1.0000      -1.065491       -28.9935
  25   1.0000      -1.055719       -28.7276
  26   1.0000      -0.982655       -26.7394
  27   1.0000      -0.951807       -25.9000
  28   1.0000      -0.892282       -24.2802
  29   1.0000      -0.838588       -22.8191
  30   1.0000      -0.829124       -22.5616
  31   1.0000      -0.801683       -21.8149
  32   1.0000      -0.784373       -21.3439
  33   1.0000      -0.780688       -21.2436
  34   1.0000      -0.699502       -19.0344
  35   1.0000      -0.695534       -18.9265
  36   1.0000      -0.689927       -18.7739
  37   1.0000      -0.666375       -18.1330
  38   1.0000      -0.657151       -17.8820
  39   1.0000      -0.644687       -17.5428
  40   1.0000      -0.619824       -16.8663
  41   1.0000      -0.602796       -16.4029
  42   1.0000      -0.590804       -16.0766
  43   1.0000      -0.584613       -15.9081
  44   1.0000      -0.579770       -15.7764
  45   1.0000      -0.575279       -15.6541
  46   1.0000      -0.566455       -15.4140
  47   1.0000      -0.560252       -15.2452
  48   1.0000      -0.558400       -15.1948
  49   1.0000      -0.553815       -15.0701
  50   1.0000      -0.548210       -14.9175
  51   1.0000      -0.544234       -14.8094
  52   1.0000      -0.533088       -14.5061
  53   1.0000      -0.525159       -14.2903
  54   1.0000      -0.514590       -14.0027
  55   1.0000      -0.507985       -13.8230
  56   1.0000      -0.489146       -13.3103
  57   1.0000      -0.420089       -11.4312
  58   1.0000      -0.418589       -11.3904
  59   1.0000      -0.412059       -11.2127
  60   1.0000      -0.402518       -10.9531
  61   1.0000      -0.400110       -10.8875
  62   1.0000      -0.392759       -10.6875
  63   1.0000      -0.388931       -10.5834
  64   1.0000      -0.382721       -10.4144
  65   1.0000      -0.351097        -9.5538
  66   1.0000      -0.322512        -8.7760
  67   0.0000       0.005299         0.1442
  68   0.0000       0.028116         0.7651
  69   0.0000       0.031721         0.8632
  70   0.0000       0.038079         1.0362
  71   0.0000       0.055762         1.5174

                 SPIN DOWN ORBITALS
  NO   OCC          E(Eh)            E(eV)
   0   1.0000     -19.329320      -525.9775
   1   1.0000     -19.327506      -525.9282
   2   1.0000     -19.322214      -525.7842
   3   1.0000     -19.315017      -525.5883
   4   1.0000     -14.563098      -396.2820
   5   1.0000     -14.559649      -396.1882
   6   1.0000     -14.559600      -396.1869
   7   1.0000     -14.556697      -396.1079
   8   1.0000     -10.505860      -285.8790
   9   1.0000     -10.501713      -285.7661
  10   1.0000     -10.480945      -285.2010
  11   1.0000     -10.480608      -285.1918
  12   1.0000     -10.444220      -284.2017
  13   1.0000     -10.443962      -284.1946
  14   1.0000     -10.406445      -283.1738
  15   1.0000     -10.403705      -283.0992
  16   1.0000     -10.375834      -282.3408
  17   1.0000     -10.374729      -282.3107
  18   1.0000      -1.220334       -33.2070
  19   1.0000      -1.214159       -33.0390
  20   1.0000      -1.193112       -32.4662
  21   1.0000      -1.190228       -32.3877
  22   1.0000      -1.116958       -30.3940
  23   1.0000      -1.094641       -29.7867
  24   1.0000      -1.063776       -28.9468
  25   1.0000      -1.054255       -28.6877
  26   1.0000      -0.969043       -26.3690
  27   1.0000      -0.934878       -25.4393
  28   1.0000      -0.887057       -24.1380
  29   1.0000      -0.833353       -22.6767
  30   1.0000      -0.820228       -22.3196
  31   1.0000      -0.796567       -21.6757
  32   1.0000      -0.782992       -21.3063
  33   1.0000      -0.779062       -21.1994
  34   1.0000      -0.694298       -18.8928
  35   1.0000      -0.687927       -18.7194
  36   1.0000      -0.683380       -18.5957
  37   1.0000      -0.658266       -17.9123
  38   1.0000      -0.647589       -17.6218
  39   1.0000      -0.641091       -17.4450
  40   1.0000      -0.616261       -16.7693
  41   1.0000      -0.598727       -16.2922
  42   1.0000      -0.583887       -15.8884
  43   1.0000      -0.577809       -15.7230
  44   1.0000      -0.573332       -15.6012
  45   1.0000      -0.565290       -15.3823
  46   1.0000      -0.561505       -15.2793
  47   1.0000      -0.556038       -15.1306
  48   1.0000      -0.553009       -15.0481
  49   1.0000      -0.543418       -14.7871
  50   1.0000      -0.539887       -14.6911
  51   1.0000      -0.537803       -14.6344
  52   1.0000      -0.526390       -14.3238
  53   1.0000      -0.515355       -14.0235
  54   1.0000      -0.506527       -13.7833
  55   1.0000      -0.501728       -13.6527
  56   1.0000      -0.483261       -13.1502
  57   1.0000      -0.417028       -11.3479
  58   1.0000      -0.414741       -11.2857
  59   1.0000      -0.405763       -11.0414
  60   1.0000      -0.390455       -10.6248
  61   1.0000      -0.388926       -10.5832
  62   1.0000      -0.387722       -10.5505
  63   1.0000      -0.384314       -10.4577
  64   1.0000      -0.375925       -10.2294
  65   0.0000      -0.068486        -1.8636
  66   0.0000      -0.033230        -0.9042
  67   0.0000       0.004851         0.1320
  68   0.0000       0.028081         0.7641
  69   0.0000       0.031491         0.8569

----------------------------------------------------------------------------------------------------
          SPIN FLIP ABSORPTION SPECTRUM VIA TRANSITION ELECTRIC DIPOLE MOMENTS
----------------------------------------------------------------------------------------------------
     Transition      Energy     Energy  Wavelength fosc(D2)      D2        DX        DY        DZ
                      (eV)      (cm-1)    (nm)                 (au**2)    (au)      (au)      (au)
----------------------------------------------------------------------------------------------------
  1-3A  ->  2-3A    0.298955    2411.2  4147.3   0.000022867   0.00312  -0.03118   0.03233  -0.03323

Dispersion correction             ... done (  0.1 sec)

MULLIKEN ATOMIC CHARGES AND SPIN DENSITIES
------------------------------------------
   0 O :   -0.686271   -0.032452
   1 O :   -0.660977    0.024088
   2 O :   -0.663528   -0.002028
   3 O :   -0.632950   -0.000722
   4 N :   -0.252942    0.016959
   5 N :   -0.343654    0.003894
   6 N :    0.060448   -0.002853
   7 N :    0.071575    0.011564
   8 C :    0.888416    0.754547
   9 C :    0.819697    0.540958
  10 C :   -0.298035   -0.525317
  11 C :    0.419309   -0.195194
  12 C :   -1.208958    0.106642
  13 C :   -1.440107    0.005886
  14 C :   -0.012245   -0.578406
  15 C :   -0.120071   -0.296085
  16 C :    0.479991    0.045214
  17 C :    0.326639    0.019348
  18 H :    0.604784    0.002260
  19 H :    0.486561    0.015427
  20 H :    0.271480   -0.010770
  21 H :    0.319480    0.029294
  22 H :    0.373617    0.012049
  23 H :    0.359081    0.011227
  24 H :    0.257048    0.040502
  25 H :    0.362730   -0.008599
  26 H :    0.056155    0.001847
  27 H :    0.103779    0.001822
  28 H :    0.025419    0.008074
  29 H :    0.033530    0.000825
Sum of atomic charges       :    0.0000000

LOEWDIN ATOMIC CHARGES AND SPIN DENSITIES
-----------------------------------------
   0 O :    0.088130   -0.027137
   1 O :    0.103710    0.017515
   2 O :    0.090556   -0.001204
   3 O :    0.098528   -0.000130
   4 N :    0.281589   -0.000131
   5 N :    0.279396    0.001396
   6 N :    0.329546   -0.004348
   7 N :    0.328084    0.001796
   8 C :    0.002419   -0.066213
   9 C :    0.002106    0.091099
  10 C :   -0.120718   -0.005700
  11 C :   -0.117318    0.002818
  12 C :    0.191595   -0.012765
  13 C :    0.188831    0.011514
  14 C :   -0.405509   -0.017205
  15 C :   -0.410960    0.009174
  16 C :   -0.494535   -0.000079
  17 C :   -0.487057    0.000051
  18 H :    0.054066   -0.000854
  19 H :    0.048583   -0.000195
  20 H :   -0.001032    0.000189
  21 H :   -0.005608   -0.002769
  22 H :    0.015570   -0.003553
  23 H :    0.017594    0.004418
  24 H :   -0.007475    0.002332
  25 H :    0.002872    0.000005
  26 H :   -0.029106   -0.000023
  27 H :   -0.029683    0.000152
  28 H :   -0.008679   -0.000343
  29 H :   -0.005493    0.000191

  Mayer bond orders larger than 0.100000
B(  0-O , 14-C ) :   1.2769 B(  1-O , 15-C ) :   1.4447 B(  2-O , 16-C ) :   1.5364
B(  3-O , 17-C ) :   1.5735 B(  4-N ,  8-C ) :   0.2282 B(  4-N , 10-C ) :   0.3798
B(  4-N , 16-C ) :   1.0413 B(  4-N , 26-H ) :   1.0989 B(  5-N ,  9-C ) :   0.2823
B(  5-N , 10-C ) :   0.1257 B(  5-N , 17-C ) :   1.1957 B(  5-N , 27-H ) :   1.0198
B(  6-N , 10-C ) :   0.1174 B(  6-N , 14-C ) :   1.0552 B(  6-N , 16-C ) :   0.9156
B(  6-N , 28-H ) :   1.1145 B(  7-N , 11-C ) :   0.1420 B(  7-N , 15-C ) :   0.9340
B(  7-N , 17-C ) :   0.9908 B(  7-N , 29-H ) :   1.0902 B(  8-C ,  9-C ) :   0.4018
B(  8-C , 10-C ) :   0.4067 B(  8-C , 11-C ) :  -0.1066 B(  8-C , 12-C ) :   0.5553
B(  8-C , 14-C ) :   0.2532 B(  8-C , 18-H ) :  -0.1307 B(  8-C , 20-H ) :  -0.1244
B(  9-C , 11-C ) :   0.1631 B(  9-C , 13-C ) :   0.3807 B(  9-C , 15-C ) :   0.5098
B( 10-C , 11-C ) :   0.8051 B( 10-C , 14-C ) :   0.2706 B( 10-C , 16-C ) :  -0.1420
B( 10-C , 18-H ) :   0.7094 B( 11-C , 13-C ) :  -0.1842 B( 11-C , 15-C ) :  -0.1235
B( 11-C , 17-C ) :  -0.2222 B( 11-C , 19-H ) :   0.9212 B( 12-C , 14-C ) :  -0.1148
B( 12-C , 20-H ) :   1.1040 B( 12-C , 21-H ) :   0.8297 B( 12-C , 22-H ) :   0.8876
B( 13-C , 23-H ) :   0.8571 B( 13-C , 24-H ) :   1.0332 B( 13-C , 25-H ) :   0.9303
B( 14-C , 16-C ) :  -0.1305 B( 15-C , 17-C ) :  -0.1137

Dispersion correction           -0.059277677
FINAL SINGLE POINT ENERGY      -908.811859041256

DIPOLE MOMENT
-------------

Method             : TDA/CIS
Type of density    : Electron Density
Level              : Relaxed density
State              :   1
Multiplicity       :   3
Irrep              :   0
Energy             :     0.0000000000000000 Eh
Relativity type    :
Basis              : AO
                                X                 Y                 Z
Electronic contribution:     -2.289427706     -10.069868036      -7.181817657
Nuclear contribution   :      2.064277818      11.641806159       9.924304219
                        -----------------------------------------
Total Dipole Moment    :     -0.225149889       1.571938123       2.742486563
                        -----------------------------------------
Magnitude (a.u.)       :      3.169055772
Magnitude (Debye)      :      8.055099622

Rotational constants in cm-1:             0.019472             0.014874             0.012448
Rotational constants in MHz :           583.766749           445.900414           373.194831

                             ****ORCA TERMINATED NORMALLY****
TOTAL RUN TIME: 0 days 0 hours 12 minutes 15 seconds 562 msec
