                         Program Version 6.0.0  -   RELEASE  -
|  1> ! Engrad def2-TZVPPD wB97M-D3BJ
|  2> %pal nprocs 8 end%pal nprocs 64 end
|  3> %tddft Nroots 2 Iroot 2
|  4> sf true
|  5> end
|  6> *xyz 0 3
|  7> O   2.29630822 1.30424031 -0.43711494
|  8> O   -0.62088353 1.00440464 -2.46036718
|  9> O   0.57728639 -2.81014922 -1.38220102
| 10> O   -2.64278405 -1.59320798 0.87567036
| 11> N   0.4832825 -2.03173446 0.78734094
| 12> N   -1.64523571 0.38258644 1.33370371
| 13> N   1.70790073 -0.89606422 -0.84821026
| 14> N   -1.56125829 -0.41459533 -0.81109
| 15> C   1.5797316 -0.02433091 1.39807123
| 16> C   -0.81971984 1.92434762 -0.32928244
| 17> C   0.86389976 -1.13977794 1.73446363
| 18> C   -1.17718553 1.67552118 1.01861286
| 19> C   1.93330145 0.97964482 2.45220135
| 20> C   -0.54939841 3.31403342 -0.83371113
| 21> C   1.87980917 0.21701284 -0.0130733
| 22> C   -1.01760815 0.84812935 -1.30142338
| 23> C   0.95259909 -2.01943114 -0.53865922
| 24> C   -1.98101441 -0.64893581 0.48969786
| 25> H   0.64711432 -1.38249469 2.79765731
| 26> H   -1.18600661 2.39214644 1.89199827
| 27> H   1.62362652 2.03462415 2.30048213
| 28> H   1.5083917 0.66761599 3.43735788
| 29> H   2.97049079 1.07411469 2.55748461
| 30> H   0.38570509 3.31353811 -1.44967765
| 31> H   -1.35990605 3.59916323 -1.48992785
| 32> H   -0.52019771 4.10532855 -0.01611741
| 33> H   -0.06173015 -2.87430767 0.94202646
| 34> H   -1.91063314 0.08934115 2.35667177
| 35> H   2.11525921 -0.9294937 -1.81470569
| 36> H   -1.83332804 -1.10500934 -1.53512147
| 37> *
| 38>
| 39>                          ****END OF INPUT****

CARTESIAN COORDINATES (ANGSTROEM)
---------------------------------
  O      2.296308    1.304240   -0.437115
  O     -0.620884    1.004405   -2.460367
  O      0.577286   -2.810149   -1.382201
  O     -2.642784   -1.593208    0.875670
  N      0.483282   -2.031734    0.787341
  N     -1.645236    0.382586    1.333704
  N      1.707901   -0.896064   -0.848210
  N     -1.561258   -0.414595   -0.811090
  C      1.579732   -0.024331    1.398071
  C     -0.819720    1.924348   -0.329282
  C      0.863900   -1.139778    1.734464
  C     -1.177186    1.675521    1.018613
  C      1.933301    0.979645    2.452201
  C     -0.549398    3.314033   -0.833711
  C      1.879809    0.217013   -0.013073
  C     -1.017608    0.848129   -1.301423
  C      0.952599   -2.019431   -0.538659
  C     -1.981014   -0.648936    0.489698
  H      0.647114   -1.382495    2.797657
  H     -1.186007    2.392146    1.891998
  H      1.623627    2.034624    2.300482
  H      1.508392    0.667616    3.437358
  H      2.970491    1.074115    2.557485
  H      0.385705    3.313538   -1.449678
  H     -1.359906    3.599163   -1.489928
  H     -0.520198    4.105329   -0.016117
  H     -0.061730   -2.874308    0.942026
  H     -1.910633    0.089341    2.356672
  H      2.115259   -0.929494   -1.814706
  H     -1.833328   -1.105009   -1.535121

 Total Charge           Charge          ....    0
 Multiplicity           Mult            ....    3
 Number of Electrons    NEL             ....  132
 Basis Dimension        Dim             ....  882

ORBITAL ENERGIES
----------------
                 SPIN UP ORBITALS
  NO   OCC          E(Eh)            E(eV)
   0   1.0000     -19.333928      -526.1029
   1   1.0000     -19.325164      -525.8644
   2   1.0000     -19.325105      -525.8628
   3   1.0000     -19.320809      -525.7459
   4   1.0000     -14.592571      -397.0840
   5   1.0000     -14.580069      -396.7439
   6   1.0000     -14.571059      -396.4987
   7   1.0000     -14.557655      -396.1339
   8   1.0000     -10.512146      -286.0500
   9   1.0000     -10.511626      -286.0359
  10   1.0000     -10.480769      -285.1962
  11   1.0000     -10.467325      -284.8304
  12   1.0000     -10.436599      -283.9943
  13   1.0000     -10.414745      -283.3996
  14   1.0000     -10.413940      -283.3777
  15   1.0000     -10.379996      -282.4541
  16   1.0000     -10.366384      -282.0837
  17   1.0000     -10.358857      -281.8788
  18   1.0000      -1.221169       -33.2297
  19   1.0000      -1.215623       -33.0788
  20   1.0000      -1.178930       -32.0803
  21   1.0000      -1.175162       -31.9778
  22   1.0000      -1.116710       -30.3872
  23   1.0000      -1.108110       -30.1532
  24   1.0000      -1.060921       -28.8691
  25   1.0000      -1.045961       -28.4620
  26   1.0000      -0.955881       -26.0108
  27   1.0000      -0.948221       -25.8024
  28   1.0000      -0.845947       -23.0194
  29   1.0000      -0.842521       -22.9262
  30   1.0000      -0.805992       -21.9322
  31   1.0000      -0.797288       -21.6953
  32   1.0000      -0.781197       -21.2575
  33   1.0000      -0.767854       -20.8944
  34   1.0000      -0.695156       -18.9162
  35   1.0000      -0.681975       -18.5575
  36   1.0000      -0.680872       -18.5275
  37   1.0000      -0.672993       -18.3131
  38   1.0000      -0.638138       -17.3646
  39   1.0000      -0.631151       -17.1745
  40   1.0000      -0.618167       -16.8212
  41   1.0000      -0.592569       -16.1246
  42   1.0000      -0.587203       -15.9786
  43   1.0000      -0.581708       -15.8291
  44   1.0000      -0.566366       -15.4116
  45   1.0000      -0.564889       -15.3714
  46   1.0000      -0.560351       -15.2479
  47   1.0000      -0.547113       -14.8877
  48   1.0000      -0.544117       -14.8062
  49   1.0000      -0.538431       -14.6514
  50   1.0000      -0.523264       -14.2387
  51   1.0000      -0.521219       -14.1831
  52   1.0000      -0.514171       -13.9913
  53   1.0000      -0.508329       -13.8323
  54   1.0000      -0.494815       -13.4646
  55   1.0000      -0.492282       -13.3957
  56   1.0000      -0.480773       -13.0825
  57   1.0000      -0.472877       -12.8676
  58   1.0000      -0.423177       -11.5152
  59   1.0000      -0.415131       -11.2963
  60   1.0000      -0.405064       -11.0223
  61   1.0000      -0.395988       -10.7754
  62   1.0000      -0.387180       -10.5357
  63   1.0000      -0.382577       -10.4105
  64   1.0000      -0.376379       -10.2418
  65   1.0000      -0.336483        -9.1562
  66   1.0000      -0.223695        -6.0870
  67   0.0000       0.011164         0.3038
  68   0.0000       0.016977         0.4620
  69   0.0000       0.033073         0.9000
  70   0.0000       0.038368         1.0441
  71   0.0000       0.039632         1.0784

                 SPIN DOWN ORBITALS
  NO   OCC          E(Eh)            E(eV)
   0   1.0000     -19.332272      -526.0579
   1   1.0000     -19.325046      -525.8612
   2   1.0000     -19.320462      -525.7365
   3   1.0000     -19.318151      -525.6736
   4   1.0000     -14.588266      -396.9669
   5   1.0000     -14.580047      -396.7433
   6   1.0000     -14.571080      -396.4992
   7   1.0000     -14.556858      -396.1123
   8   1.0000     -10.512377      -286.0563
   9   1.0000     -10.511637      -286.0362
  10   1.0000     -10.480807      -285.1973
  11   1.0000     -10.467216      -284.8274
  12   1.0000     -10.436632      -283.9952
  13   1.0000     -10.404985      -283.1340
  14   1.0000     -10.402916      -283.0777
  15   1.0000     -10.379957      -282.4530
  16   1.0000     -10.366833      -282.0959
  17   1.0000     -10.358776      -281.8766
  18   1.0000      -1.218588       -33.1595
  19   1.0000      -1.214538       -33.0493
  20   1.0000      -1.175198       -31.9788
  21   1.0000      -1.167582       -31.7715
  22   1.0000      -1.116438       -30.3798
  23   1.0000      -1.098665       -29.8962
  24   1.0000      -1.060850       -28.8672
  25   1.0000      -1.040432       -28.3116
  26   1.0000      -0.948220       -25.8024
  27   1.0000      -0.932032       -25.3619
  28   1.0000      -0.843179       -22.9441
  29   1.0000      -0.833158       -22.6714
  30   1.0000      -0.805825       -21.9276
  31   1.0000      -0.785121       -21.3642
  32   1.0000      -0.781122       -21.2554
  33   1.0000      -0.762182       -20.7400
  34   1.0000      -0.695040       -18.9130
  35   1.0000      -0.681307       -18.5393
  36   1.0000      -0.670258       -18.2386
  37   1.0000      -0.664664       -18.0864
  38   1.0000      -0.635522       -17.2934
  39   1.0000      -0.625897       -17.0315
  40   1.0000      -0.610782       -16.6202
  41   1.0000      -0.587882       -15.9971
  42   1.0000      -0.583965       -15.8905
  43   1.0000      -0.573365       -15.6020
  44   1.0000      -0.560412       -15.2496
  45   1.0000      -0.558892       -15.2082
  46   1.0000      -0.547774       -14.9057
  47   1.0000      -0.542073       -14.7506
  48   1.0000      -0.536444       -14.5974
  49   1.0000      -0.533888       -14.5278
  50   1.0000      -0.521067       -14.1789
  51   1.0000      -0.514049       -13.9880
  52   1.0000      -0.508768       -13.8443
  53   1.0000      -0.497276       -13.5316
  54   1.0000      -0.490719       -13.3531
  55   1.0000      -0.486655       -13.2426
  56   1.0000      -0.470844       -12.8123
  57   1.0000      -0.438169       -11.9232
  58   1.0000      -0.417716       -11.3666
  59   1.0000      -0.414551       -11.2805
  60   1.0000      -0.394550       -10.7363
  61   1.0000      -0.383585       -10.4379
  62   1.0000      -0.381681       -10.3861
  63   1.0000      -0.376957       -10.2575
  64   1.0000      -0.335154        -9.1200
  65   0.0000      -0.093859        -2.5540
  66   0.0000       0.011226         0.3055
  67   0.0000       0.017530         0.4770
  68   0.0000       0.032089         0.8732
  69   0.0000       0.037833         1.0295

----------------------------------------------------------------------------------------------------
          SPIN FLIP ABSORPTION SPECTRUM VIA TRANSITION ELECTRIC DIPOLE MOMENTS
----------------------------------------------------------------------------------------------------
     Transition      Energy     Energy  Wavelength fosc(D2)      D2        DX        DY        DZ
                      (eV)      (cm-1)    (nm)                 (au**2)    (au)      (au)      (au)
----------------------------------------------------------------------------------------------------
  1-3A  ->  2-3A    3.543039   28576.5   349.9   0.000866193   0.00998   0.00652  -0.04761  -0.08758

Dispersion correction             ... done (  0.1 sec)

MULLIKEN ATOMIC CHARGES AND SPIN DENSITIES
------------------------------------------
   0 O :   -0.691240    0.000313
   1 O :   -0.676873    0.008366
   2 O :   -0.652500   -0.000244
   3 O :   -0.658635    0.000300
   4 N :    0.060281   -0.002528
   5 N :    0.085787    0.015686
   6 N :    0.060964   -0.002941
   7 N :    0.067426   -0.005360
   8 C :    0.905384   -0.023059
   9 C :    1.178803   -0.004983
  10 C :   -0.319680    0.022661
  11 C :   -0.618015    0.116300
  12 C :   -1.253805   -0.006228
  13 C :   -1.349714    0.001829
  14 C :    0.329888    0.003116
  15 C :    0.325682   -0.136970
  16 C :    0.326729   -0.000210
  17 C :    0.364881   -0.008633
  18 H :    0.144963    0.002119
  19 H :    0.110835    0.004240
  20 H :    0.214696   -0.001898
  21 H :    0.323879    0.000742
  22 H :    0.349078   -0.000419
  23 H :    0.270517    0.010334
  24 H :    0.338451    0.006245
  25 H :    0.341527   -0.000721
  26 H :    0.064402    0.000229
  27 H :    0.167397    0.000736
  28 H :    0.108350   -0.000079
  29 H :    0.080541    0.001058
Sum of atomic charges       :   -0.0000000

LOEWDIN ATOMIC CHARGES AND SPIN DENSITIES
-----------------------------------------
   0 O :    0.066487   -0.000193
   1 O :    0.051799    0.005743
   2 O :    0.076919   -0.000206
   3 O :    0.083416   -0.000095
   4 N :    0.255139   -0.000478
   5 N :    0.226911    0.017811
   6 N :    0.322938   -0.000086
   7 N :    0.304818   -0.004150
   8 C :   -0.142880   -0.000269
   9 C :   -0.100374    0.001859
  10 C :    0.020809   -0.000567
  11 C :    0.026156   -0.006665
  12 C :    0.159191   -0.000674
  13 C :    0.182523    0.000385
  14 C :   -0.380966    0.000035
  15 C :   -0.386787   -0.006853
  16 C :   -0.459210   -0.000089
  17 C :   -0.523092   -0.002230
  18 H :    0.057787   -0.000072
  19 H :    0.027329   -0.004312
  20 H :    0.005893   -0.000229
  21 H :    0.011142   -0.000023
  22 H :   -0.044134   -0.000116
  23 H :    0.024844    0.000536
  24 H :   -0.006622    0.000483
  25 H :    0.027649   -0.000204
  26 H :   -0.009615   -0.000036
  27 H :    0.072315    0.001097
  28 H :    0.040296   -0.000016
  29 H :    0.009317   -0.000384

  Mayer bond orders larger than 0.100000
B(  0-O , 14-C ) :   1.3974 B(  1-O , 15-C ) :   1.2461 B(  2-O , 16-C ) :   1.5112
B(  3-O , 17-C ) :   1.5168 B(  4-N , 10-C ) :   0.9186 B(  4-N , 16-C ) :   0.9739
B(  4-N , 17-C ) :   0.1065 B(  4-N , 26-H ) :   1.1136 B(  5-N , 11-C ) :   0.8855
B(  5-N , 17-C ) :   0.9912 B(  5-N , 27-H ) :   1.0011 B(  6-N , 14-C ) :   0.9667
B(  6-N , 16-C ) :   1.0218 B(  6-N , 28-H ) :   1.0340 B(  7-N , 15-C ) :   0.7970
B(  7-N , 16-C ) :   0.1104 B(  7-N , 17-C ) :   1.0353 B(  7-N , 29-H ) :   1.0836
B(  8-C , 10-C ) :   1.2152 B(  8-C , 12-C ) :   0.4029 B(  8-C , 14-C ) :   0.7140
B(  9-C , 11-C ) :   0.5748 B(  9-C , 13-C ) :   0.4204 B(  9-C , 15-C ) :   0.9141
B( 10-C , 18-H ) :   1.1659 B( 11-C , 19-H ) :   1.1255 B( 12-C , 20-H ) :   0.9945
B( 12-C , 21-H ) :   0.9219 B( 12-C , 22-H ) :   0.9407 B( 13-C , 23-H ) :   1.0040
B( 13-C , 24-H ) :   0.8935 B( 13-C , 25-H ) :   0.9006

Dispersion correction           -0.057872836
FINAL SINGLE POINT ENERGY      -908.741916286840

DIPOLE MOMENT
-------------

Method             : TDA/CIS
Type of density    : Electron Density
Level              : Relaxed density
State              :   2
Multiplicity       :   3
Irrep              :   0
Energy             :     0.0000000000000000 Eh
Relativity type    :
Basis              : AO
                                X                 Y                 Z
Electronic contribution:     -2.210390297      -9.854530584      -6.380589672
Nuclear contribution   :      2.133736421      10.362838667       8.817468711
                        -----------------------------------------
Total Dipole Moment    :     -0.076653876       0.508308082       2.436879039
                        -----------------------------------------
Magnitude (a.u.)       :      2.490508457
Magnitude (Debye)      :      6.330369416

Rotational constants in cm-1:             0.016987             0.015602             0.013617
Rotational constants in MHz :           509.247598           467.723042           408.233469

                             ****ORCA TERMINATED NORMALLY****
TOTAL RUN TIME: 0 days 0 hours 4 minutes 56 seconds 79 msec
