                         Program Version 6.0.0  -   RELEASE  -
|  1> ! Engrad def2-TZVPPD wB97M-D3BJ
|  2> %pal nprocs 8 end%pal nprocs 64 end
|  3> %tddft Nroots 2 Iroot 2
|  4> sf true
|  5> end
|  6> *xyz 0 3
|  7> O   2.45835186 1.2718124 -0.31765097
|  8> O   -0.82294938 0.81293592 -2.40145203
|  9> O   0.52896249 -2.63089299 -1.61111651
| 10> O   -2.3937323 -1.5255382 1.16376755
| 11> N   0.63398129 -2.15486302 0.61056069
| 12> N   -1.84130124 0.66514757 1.44670694
| 13> N   1.5933354 -0.7335015 -0.92730477
| 14> N   -1.66840307 -0.30865079 -0.62918559
| 15> C   1.50904117 -0.06328346 1.38236425
| 16> C   -0.91934257 1.96582131 -0.32787915
| 17> C   0.88124255 -1.25644328 1.61424535
| 18> C   -1.28397817 1.82202926 0.94968696
| 19> C   1.78758213 0.92934657 2.45198783
| 20> C   -0.27932361 3.199165 -0.88601454
| 21> C   1.90580215 0.24088246 0.0273263
| 22> C   -1.11415239 0.82907499 -1.22860707
| 23> C   0.896227 -1.90005914 -0.72061674
| 24> C   -2.00650934 -0.4753773 0.69232825
| 25> H   0.5541159 -1.53336856 2.58476563
| 26> H   -1.16241587 2.61437639 1.6678092
| 27> H   1.35297211 1.89026489 2.19583726
| 28> H   1.39151134 0.61465254 3.4095953
| 29> H   2.85446018 1.10536328 2.5510871
| 30> H   -0.83575394 3.56467005 -1.75344387
| 31> H   -0.24411033 3.99224763 -0.14364394
| 32> H   0.74349207 2.98409114 -1.21601839
| 33> H   0.03021914 -2.93549543 0.78299895
| 34> H   -2.07511206 0.5847654 2.41251357
| 35> H   1.75234797 -0.49011808 -1.90222029
| 36> H   -1.75179869 -1.12027686 -1.22373668
| 37> *
| 38>
| 39>                          ****END OF INPUT****

CARTESIAN COORDINATES (ANGSTROEM)
---------------------------------
  O      2.458352    1.271812   -0.317651
  O     -0.822949    0.812936   -2.401452
  O      0.528962   -2.630893   -1.611117
  O     -2.393732   -1.525538    1.163768
  N      0.633981   -2.154863    0.610561
  N     -1.841301    0.665148    1.446707
  N      1.593335   -0.733501   -0.927305
  N     -1.668403   -0.308651   -0.629186
  C      1.509041   -0.063283    1.382364
  C     -0.919343    1.965821   -0.327879
  C      0.881243   -1.256443    1.614245
  C     -1.283978    1.822029    0.949687
  C      1.787582    0.929347    2.451988
  C     -0.279324    3.199165   -0.886015
  C      1.905802    0.240882    0.027326
  C     -1.114152    0.829075   -1.228607
  C      0.896227   -1.900059   -0.720617
  C     -2.006509   -0.475377    0.692328
  H      0.554116   -1.533369    2.584766
  H     -1.162416    2.614376    1.667809
  H      1.352972    1.890265    2.195837
  H      1.391511    0.614653    3.409595
  H      2.854460    1.105363    2.551087
  H     -0.835754    3.564670   -1.753444
  H     -0.244110    3.992248   -0.143644
  H      0.743492    2.984091   -1.216018
  H      0.030219   -2.935495    0.782999
  H     -2.075112    0.584765    2.412514
  H      1.752348   -0.490118   -1.902220
  H     -1.751799   -1.120277   -1.223737

 Total Charge           Charge          ....    0
 Multiplicity           Mult            ....    3
 Number of Electrons    NEL             ....  132
 Basis Dimension        Dim             ....  882

ORBITAL ENERGIES
----------------
                 SPIN UP ORBITALS
  NO   OCC          E(Eh)            E(eV)
   0   1.0000     -19.330703      -526.0152
   1   1.0000     -19.326691      -525.9060
   2   1.0000     -19.322143      -525.7822
   3   1.0000     -19.320955      -525.7499
   4   1.0000     -14.589687      -397.0056
   5   1.0000     -14.583766      -396.8445
   6   1.0000     -14.569800      -396.4644
   7   1.0000     -14.550572      -395.9412
   8   1.0000     -10.514143      -286.1044
   9   1.0000     -10.508003      -285.9373
  10   1.0000     -10.477300      -285.1018
  11   1.0000     -10.458287      -284.5845
  12   1.0000     -10.430374      -283.8249
  13   1.0000     -10.410566      -283.2859
  14   1.0000     -10.395175      -282.8671
  15   1.0000     -10.378850      -282.4229
  16   1.0000     -10.372206      -282.2421
  17   1.0000     -10.349060      -281.6123
  18   1.0000      -1.227580       -33.4041
  19   1.0000      -1.223377       -33.2898
  20   1.0000      -1.193585       -32.4791
  21   1.0000      -1.188463       -32.3397
  22   1.0000      -1.123413       -30.5696
  23   1.0000      -1.122792       -30.5527
  24   1.0000      -1.069801       -29.1108
  25   1.0000      -1.059346       -28.8263
  26   1.0000      -0.974375       -26.5141
  27   1.0000      -0.954787       -25.9811
  28   1.0000      -0.859420       -23.3860
  29   1.0000      -0.843996       -22.9663
  30   1.0000      -0.812836       -22.1184
  31   1.0000      -0.808822       -22.0092
  32   1.0000      -0.794564       -21.6212
  33   1.0000      -0.787266       -21.4226
  34   1.0000      -0.698427       -19.0052
  35   1.0000      -0.694527       -18.8990
  36   1.0000      -0.693581       -18.8733
  37   1.0000      -0.691145       -18.8070
  38   1.0000      -0.644184       -17.5291
  39   1.0000      -0.639675       -17.4064
  40   1.0000      -0.629310       -17.1244
  41   1.0000      -0.599163       -16.3040
  42   1.0000      -0.597080       -16.2474
  43   1.0000      -0.594015       -16.1640
  44   1.0000      -0.573545       -15.6069
  45   1.0000      -0.569268       -15.4906
  46   1.0000      -0.566718       -15.4212
  47   1.0000      -0.556005       -15.1297
  48   1.0000      -0.551148       -14.9975
  49   1.0000      -0.548743       -14.9321
  50   1.0000      -0.534018       -14.5314
  51   1.0000      -0.521245       -14.1838
  52   1.0000      -0.515769       -14.0348
  53   1.0000      -0.513415       -13.9707
  54   1.0000      -0.512721       -13.9519
  55   1.0000      -0.495277       -13.4772
  56   1.0000      -0.491618       -13.3776
  57   1.0000      -0.476300       -12.9608
  58   1.0000      -0.420488       -11.4421
  59   1.0000      -0.418430       -11.3861
  60   1.0000      -0.404637       -11.0107
  61   1.0000      -0.403463       -10.9788
  62   1.0000      -0.388285       -10.5658
  63   1.0000      -0.386659       -10.5215
  64   1.0000      -0.383706       -10.4412
  65   1.0000      -0.346980        -9.4418
  66   1.0000      -0.213798        -5.8177
  67   0.0000       0.012185         0.3316
  68   0.0000       0.021466         0.5841
  69   0.0000       0.033394         0.9087
  70   0.0000       0.039701         1.0803
  71   0.0000       0.041821         1.1380

                 SPIN DOWN ORBITALS
  NO   OCC          E(Eh)            E(eV)
   0   1.0000     -19.328764      -525.9624
   1   1.0000     -19.326652      -525.9049
   2   1.0000     -19.322078      -525.7805
   3   1.0000     -19.314488      -525.5739
   4   1.0000     -14.584563      -396.8661
   5   1.0000     -14.583590      -396.8397
   6   1.0000     -14.569814      -396.4648
   7   1.0000     -14.549670      -395.9167
   8   1.0000     -10.514147      -286.1045
   9   1.0000     -10.508375      -285.9474
  10   1.0000     -10.477307      -285.1020
  11   1.0000     -10.457961      -284.5756
  12   1.0000     -10.430361      -283.8246
  13   1.0000     -10.401086      -283.0279
  14   1.0000     -10.384846      -282.5860
  15   1.0000     -10.378790      -282.4212
  16   1.0000     -10.372681      -282.2550
  17   1.0000     -10.349035      -281.6115
  18   1.0000      -1.226365       -33.3711
  19   1.0000      -1.220155       -33.2021
  20   1.0000      -1.193447       -32.4753
  21   1.0000      -1.178869       -32.0787
  22   1.0000      -1.122625       -30.5482
  23   1.0000      -1.112446       -30.2712
  24   1.0000      -1.069712       -29.1084
  25   1.0000      -1.053747       -28.6739
  26   1.0000      -0.954958       -25.9857
  27   1.0000      -0.951057       -25.8796
  28   1.0000      -0.848063       -23.0770
  29   1.0000      -0.843632       -22.9564
  30   1.0000      -0.808893       -22.0111
  31   1.0000      -0.800209       -21.7748
  32   1.0000      -0.794492       -21.6192
  33   1.0000      -0.780911       -21.2497
  34   1.0000      -0.694417       -18.8961
  35   1.0000      -0.691425       -18.8146
  36   1.0000      -0.687900       -18.7187
  37   1.0000      -0.683961       -18.6115
  38   1.0000      -0.642262       -17.4768
  39   1.0000      -0.631072       -17.1724
  40   1.0000      -0.623228       -16.9589
  41   1.0000      -0.596998       -16.2451
  42   1.0000      -0.588561       -16.0156
  43   1.0000      -0.585408       -15.9298
  44   1.0000      -0.566747       -15.4220
  45   1.0000      -0.563400       -15.3309
  46   1.0000      -0.554618       -15.0919
  47   1.0000      -0.549144       -14.9430
  48   1.0000      -0.547888       -14.9088
  49   1.0000      -0.545009       -14.8305
  50   1.0000      -0.525894       -14.3103
  51   1.0000      -0.514705       -14.0058
  52   1.0000      -0.512659       -13.9502
  53   1.0000      -0.507644       -13.8137
  54   1.0000      -0.500601       -13.6220
  55   1.0000      -0.494025       -13.4431
  56   1.0000      -0.476644       -12.9702
  57   1.0000      -0.444036       -12.0828
  58   1.0000      -0.418847       -11.3974
  59   1.0000      -0.414788       -11.2870
  60   1.0000      -0.403423       -10.9777
  61   1.0000      -0.386020       -10.5042
  62   1.0000      -0.380200       -10.3458
  63   1.0000      -0.378866       -10.3095
  64   1.0000      -0.345842        -9.4108
  65   0.0000      -0.103722        -2.8224
  66   0.0000       0.011182         0.3043
  67   0.0000       0.021964         0.5977
  68   0.0000       0.031652         0.8613
  69   0.0000       0.038219         1.0400

----------------------------------------------------------------------------------------------------
          SPIN FLIP ABSORPTION SPECTRUM VIA TRANSITION ELECTRIC DIPOLE MOMENTS
----------------------------------------------------------------------------------------------------
     Transition      Energy     Energy  Wavelength fosc(D2)      D2        DX        DY        DZ
                      (eV)      (cm-1)    (nm)                 (au**2)    (au)      (au)      (au)
----------------------------------------------------------------------------------------------------
  1-3A  ->  2-3A    4.045517   32629.3   306.5   0.001302356   0.01314   0.04584   0.07861  -0.06971

Dispersion correction             ... done (  0.1 sec)

MULLIKEN ATOMIC CHARGES AND SPIN DENSITIES
------------------------------------------
   0 O :   -0.702923    0.009769
   1 O :   -0.657818   -0.000491
   2 O :   -0.613804    0.002584
   3 O :   -0.667198    0.000017
   4 N :    0.056553    0.033040
   5 N :    0.042417   -0.002294
   6 N :    0.006235   -0.010948
   7 N :    0.058868   -0.000322
   8 C :    1.218222    0.102967
   9 C :    0.870993   -0.004181
  10 C :   -0.349897    0.019107
  11 C :   -0.253835    0.006397
  12 C :   -1.340468   -0.014630
  13 C :   -1.367356    0.002106
  14 C :    0.179806   -0.133973
  15 C :    0.457943    0.001078
  16 C :    0.360596    0.003409
  17 C :    0.406191   -0.011151
  18 H :    0.102644   -0.019083
  19 H :    0.164318   -0.000234
  20 H :    0.264458    0.008457
  21 H :    0.335328   -0.001600
  22 H :    0.352207    0.008609
  23 H :    0.329137   -0.000106
  24 H :    0.337048    0.000373
  25 H :    0.229550   -0.001130
  26 H :    0.060822   -0.001066
  27 H :    0.021980    0.000967
  28 H :    0.060708    0.002521
  29 H :    0.037275   -0.000190
Sum of atomic charges       :    0.0000000

LOEWDIN ATOMIC CHARGES AND SPIN DENSITIES
-----------------------------------------
   0 O :    0.067238    0.007400
   1 O :    0.103536   -0.000388
   2 O :    0.109991    0.001746
   3 O :    0.069345   -0.000350
   4 N :    0.312212    0.020525
   5 N :    0.287101   -0.000273
   6 N :    0.314837   -0.006730
   7 N :    0.344331   -0.000090
   8 C :   -0.093791    0.005978
   9 C :   -0.133105   -0.000628
  10 C :    0.016973   -0.013946
  11 C :    0.045281   -0.000014
  12 C :    0.207130    0.001507
  13 C :    0.180738   -0.000089
  14 C :   -0.430957   -0.007545
  15 C :   -0.395354   -0.000061
  16 C :   -0.480907   -0.002577
  17 C :   -0.486919   -0.000323
  18 H :   -0.011583   -0.006544
  19 H :    0.033450   -0.000008
  20 H :   -0.004141    0.000793
  21 H :   -0.005907   -0.000414
  22 H :    0.013965    0.000891
  23 H :    0.002610   -0.000034
  24 H :   -0.008446   -0.000009
  25 H :   -0.006592   -0.000052
  26 H :   -0.012505    0.002064
  27 H :   -0.027629   -0.000128
  28 H :   -0.000164   -0.000697
  29 H :   -0.010740   -0.000004

  Mayer bond orders larger than 0.100000
B(  0-O , 14-C ) :   1.2610 B(  1-O , 15-C ) :   1.4616 B(  2-O , 16-C ) :   1.5697
B(  3-O , 17-C ) :   1.5350 B(  4-N , 10-C ) :   0.8733 B(  4-N , 16-C ) :   0.9638
B(  4-N , 26-H ) :   1.0924 B(  5-N , 11-C ) :   0.9512 B(  5-N , 17-C ) :   1.0328
B(  5-N , 27-H ) :   1.1323 B(  6-N , 14-C ) :   0.8833 B(  6-N , 16-C ) :   0.9192
B(  6-N , 28-H ) :   1.0976 B(  7-N , 15-C ) :   0.9501 B(  7-N , 16-C ) :   0.1237
B(  7-N , 17-C ) :   0.9433 B(  7-N , 29-H ) :   1.1133 B(  8-C , 10-C ) :   0.4431
B(  8-C , 12-C ) :   0.3495 B(  8-C , 14-C ) :   0.9151 B(  8-C , 18-H ) :  -0.1493
B(  8-C , 21-H ) :  -0.1041 B(  9-C , 11-C ) :   1.1472 B(  9-C , 13-C ) :   0.3489
B(  9-C , 15-C ) :   0.7875 B(  9-C , 19-H ) :  -0.1134 B( 10-C , 18-H ) :   1.2403
B( 11-C , 13-C ) :  -0.1168 B( 11-C , 19-H ) :   1.1390 B( 12-C , 20-H ) :   0.9563
B( 12-C , 21-H ) :   0.9960 B( 12-C , 22-H ) :   0.9111 B( 13-C , 23-H ) :   0.9463
B( 13-C , 24-H ) :   0.9945 B( 13-C , 25-H ) :   0.9958

Dispersion correction           -0.058665096
FINAL SINGLE POINT ENERGY      -908.778975949832

DIPOLE MOMENT
-------------

Method             : TDA/CIS
Type of density    : Electron Density
Level              : Relaxed density
State              :   2
Multiplicity       :   3
Irrep              :   0
Energy             :     0.0000000000000000 Eh
Relativity type    :
Basis              : AO
                                X                 Y                 Z
Electronic contribution:     -2.904185254      -9.483792124      -5.664885509
Nuclear contribution   :      2.549027367      10.246332143       8.144716027
                        -----------------------------------------
Total Dipole Moment    :     -0.355157888       0.762540019       2.479830519
                        -----------------------------------------
Magnitude (a.u.)       :      2.618618683
Magnitude (Debye)      :      6.655999732

Rotational constants in cm-1:             0.017015             0.015617             0.014032
Rotational constants in MHz :           510.096052           468.176344           420.670908

                             ****ORCA TERMINATED NORMALLY****
TOTAL RUN TIME: 0 days 0 hours 4 minutes 59 seconds 766 msec
