                         Program Version 6.0.0  -   RELEASE  -
|  1> ! Engrad def2-TZVPPD wB97M-D3BJ
|  2> %pal nprocs 8 end%pal nprocs 64 end
|  3> %tddft Nroots 2 Iroot 1
|  4> sf true
|  5> end
|  6> *xyz 0 3
|  7> O   2.08894376 0.14437625 -1.22300999
|  8> O   -0.60782434 2.47095163 -2.594351
|  9> O   0.44349296 -3.70342677 0.40959562
| 10> O   -2.40852353 -1.22076637 -1.0988864
| 11> N   0.46256289 -1.90726789 1.85581262
| 12> N   -1.43460104 -0.20972626 0.69855489
| 13> N   1.12821924 -1.70131061 -0.38230943
| 14> N   -0.98474738 0.45393558 -1.59223118
| 15> C   1.13083509 0.31196651 1.0130774
| 16> C   -0.28924135 2.3602979 -0.30610032
| 17> C   0.57501969 -0.51831504 2.11428991
| 18> C   -0.37524681 0.40842359 1.4002405
| 19> C   2.05583849 1.45798518 1.33062786
| 20> C   -0.9628664 3.39386554 0.39750902
| 21> C   1.49213843 -0.36504489 -0.30886213
| 22> C   -0.47665195 1.77702633 -1.5964383
| 23> C   0.64450673 -2.52547983 0.62440865
| 24> C   -1.63216157 -0.40544805 -0.67774711
| 25> H   0.88331639 -0.25293724 3.12522556
| 26> H   -0.65721716 1.29877395 1.91042353
| 27> H   2.18378972 1.98519194 0.38560393
| 28> H   1.5978165 2.12605922 2.03948104
| 29> H   3.00102472 1.08781326 1.76610578
| 30> H   -1.96369362 3.03118932 0.70155481
| 31> H   -0.40940579 3.72489748 1.27047627
| 32> H   -1.13060339 4.29094247 -0.25481892
| 33> H   0.21467212 -2.53054873 2.60242864
| 34> H   -2.03477644 -0.83454218 1.20636116
| 35> H   1.42626626 -2.18806874 -1.20006818
| 36> H   -1.28874666 0.15314432 -2.48060716
| 37> *
| 38>
| 39>                          ****END OF INPUT****

CARTESIAN COORDINATES (ANGSTROEM)
---------------------------------
  O      2.088944    0.144376   -1.223010
  O     -0.607824    2.470952   -2.594351
  O      0.443493   -3.703427    0.409596
  O     -2.408524   -1.220766   -1.098886
  N      0.462563   -1.907268    1.855813
  N     -1.434601   -0.209726    0.698555
  N      1.128219   -1.701311   -0.382309
  N     -0.984747    0.453936   -1.592231
  C      1.130835    0.311967    1.013077
  C     -0.289241    2.360298   -0.306100
  C      0.575020   -0.518315    2.114290
  C     -0.375247    0.408424    1.400240
  C      2.055838    1.457985    1.330628
  C     -0.962866    3.393866    0.397509
  C      1.492138   -0.365045   -0.308862
  C     -0.476652    1.777026   -1.596438
  C      0.644507   -2.525480    0.624409
  C     -1.632162   -0.405448   -0.677747
  H      0.883316   -0.252937    3.125226
  H     -0.657217    1.298774    1.910424
  H      2.183790    1.985192    0.385604
  H      1.597816    2.126059    2.039481
  H      3.001025    1.087813    1.766106
  H     -1.963694    3.031189    0.701555
  H     -0.409406    3.724897    1.270476
  H     -1.130603    4.290942   -0.254819
  H      0.214672   -2.530549    2.602429
  H     -2.034776   -0.834542    1.206361
  H      1.426266   -2.188069   -1.200068
  H     -1.288747    0.153144   -2.480607

 Total Charge           Charge          ....    0
 Multiplicity           Mult            ....    3
 Number of Electrons    NEL             ....  132
 Basis Dimension        Dim             ....  882

ORBITAL ENERGIES
----------------
                 SPIN UP ORBITALS
  NO   OCC          E(Eh)            E(eV)
   0   1.0000     -19.340810      -526.2902
   1   1.0000     -19.337284      -526.1943
   2   1.0000     -19.321888      -525.7753
   3   1.0000     -19.321437      -525.7630
   4   1.0000     -14.566077      -396.3631
   5   1.0000     -14.564920      -396.3316
   6   1.0000     -14.558195      -396.1486
   7   1.0000     -14.551249      -395.9596
   8   1.0000     -10.510354      -286.0013
   9   1.0000     -10.508699      -285.9562
  10   1.0000     -10.495147      -285.5875
  11   1.0000     -10.487576      -285.3815
  12   1.0000     -10.436958      -284.0041
  13   1.0000     -10.433617      -283.9132
  14   1.0000     -10.417795      -283.4826
  15   1.0000     -10.398403      -282.9549
  16   1.0000     -10.381565      -282.4967
  17   1.0000     -10.369475      -282.1678
  18   1.0000      -1.225130       -33.3375
  19   1.0000      -1.216294       -33.0970
  20   1.0000      -1.202400       -32.7190
  21   1.0000      -1.196844       -32.5678
  22   1.0000      -1.127162       -30.6716
  23   1.0000      -1.083355       -29.4796
  24   1.0000      -1.067549       -29.0495
  25   1.0000      -1.054259       -28.6878
  26   1.0000      -1.007033       -27.4028
  27   1.0000      -0.944664       -25.7056
  28   1.0000      -0.881987       -24.0001
  29   1.0000      -0.829769       -22.5792
  30   1.0000      -0.818513       -22.2729
  31   1.0000      -0.808327       -21.9957
  32   1.0000      -0.787220       -21.4214
  33   1.0000      -0.763341       -20.7716
  34   1.0000      -0.718559       -19.5530
  35   1.0000      -0.697703       -18.9855
  36   1.0000      -0.685212       -18.6456
  37   1.0000      -0.667333       -18.1591
  38   1.0000      -0.635235       -17.2856
  39   1.0000      -0.627802       -17.0834
  40   1.0000      -0.610525       -16.6132
  41   1.0000      -0.605719       -16.4825
  42   1.0000      -0.599611       -16.3163
  43   1.0000      -0.592436       -16.1210
  44   1.0000      -0.579153       -15.7596
  45   1.0000      -0.568731       -15.4760
  46   1.0000      -0.566170       -15.4063
  47   1.0000      -0.559849       -15.2343
  48   1.0000      -0.558966       -15.2102
  49   1.0000      -0.551609       -15.0100
  50   1.0000      -0.549808       -14.9610
  51   1.0000      -0.541485       -14.7346
  52   1.0000      -0.538174       -14.6445
  53   1.0000      -0.521933       -14.2025
  54   1.0000      -0.510940       -13.9034
  55   1.0000      -0.485394       -13.2082
  56   1.0000      -0.447536       -12.1781
  57   1.0000      -0.431253       -11.7350
  58   1.0000      -0.418393       -11.3850
  59   1.0000      -0.406480       -11.0609
  60   1.0000      -0.399912       -10.8822
  61   1.0000      -0.396032       -10.7766
  62   1.0000      -0.393407       -10.7051
  63   1.0000      -0.388427       -10.5696
  64   1.0000      -0.370465       -10.0809
  65   1.0000      -0.349957        -9.5228
  66   1.0000      -0.317338        -8.6352
  67   0.0000       0.009179         0.2498
  68   0.0000       0.027465         0.7474
  69   0.0000       0.031870         0.8672
  70   0.0000       0.038736         1.0541
  71   0.0000       0.043552         1.1851

                 SPIN DOWN ORBITALS
  NO   OCC          E(Eh)            E(eV)
   0   1.0000     -19.340755      -526.2887
   1   1.0000     -19.331575      -526.0389
   2   1.0000     -19.321816      -525.7733
   3   1.0000     -19.321431      -525.7629
   4   1.0000     -14.566041      -396.3621
   5   1.0000     -14.564830      -396.3292
   6   1.0000     -14.558154      -396.1475
   7   1.0000     -14.550801      -395.9474
   8   1.0000     -10.510358      -286.0014
   9   1.0000     -10.508716      -285.9567
  10   1.0000     -10.495167      -285.5880
  11   1.0000     -10.488421      -285.4044
  12   1.0000     -10.436628      -283.9951
  13   1.0000     -10.433330      -283.9053
  14   1.0000     -10.417181      -283.4659
  15   1.0000     -10.382359      -282.5184
  16   1.0000     -10.372388      -282.2470
  17   1.0000     -10.369266      -282.1621
  18   1.0000      -1.224920       -33.3318
  19   1.0000      -1.215235       -33.0682
  20   1.0000      -1.202254       -32.7150
  21   1.0000      -1.188277       -32.3346
  22   1.0000      -1.126597       -30.6563
  23   1.0000      -1.082766       -29.4636
  24   1.0000      -1.066701       -29.0264
  25   1.0000      -1.052179       -28.6313
  26   1.0000      -1.005866       -27.3710
  27   1.0000      -0.914773       -24.8923
  28   1.0000      -0.881132       -23.9768
  29   1.0000      -0.818794       -22.2805
  30   1.0000      -0.814926       -22.1753
  31   1.0000      -0.806385       -21.9429
  32   1.0000      -0.785939       -21.3865
  33   1.0000      -0.758408       -20.6373
  34   1.0000      -0.715115       -19.4593
  35   1.0000      -0.695732       -18.9318
  36   1.0000      -0.677047       -18.4234
  37   1.0000      -0.666163       -18.1272
  38   1.0000      -0.631962       -17.1966
  39   1.0000      -0.616518       -16.7763
  40   1.0000      -0.607594       -16.5335
  41   1.0000      -0.601682       -16.3726
  42   1.0000      -0.587137       -15.9768
  43   1.0000      -0.584734       -15.9114
  44   1.0000      -0.571975       -15.5642
  45   1.0000      -0.564676       -15.3656
  46   1.0000      -0.560150       -15.2425
  47   1.0000      -0.554929       -15.1004
  48   1.0000      -0.553005       -15.0480
  49   1.0000      -0.548864       -14.9354
  50   1.0000      -0.542475       -14.7615
  51   1.0000      -0.537184       -14.6175
  52   1.0000      -0.529398       -14.4056
  53   1.0000      -0.513876       -13.9833
  54   1.0000      -0.504993       -13.7416
  55   1.0000      -0.484404       -13.1813
  56   1.0000      -0.436222       -11.8702
  57   1.0000      -0.425244       -11.5715
  58   1.0000      -0.417263       -11.3543
  59   1.0000      -0.404558       -11.0086
  60   1.0000      -0.396029       -10.7765
  61   1.0000      -0.389365       -10.5952
  62   1.0000      -0.385068       -10.4782
  63   1.0000      -0.382187       -10.3998
  64   1.0000      -0.367337        -9.9957
  65   0.0000      -0.037066        -1.0086
  66   0.0000       0.007383         0.2009
  67   0.0000       0.011058         0.3009
  68   0.0000       0.027538         0.7493
  69   0.0000       0.031920         0.8686

----------------------------------------------------------------------------------------------------
          SPIN FLIP ABSORPTION SPECTRUM VIA TRANSITION ELECTRIC DIPOLE MOMENTS
----------------------------------------------------------------------------------------------------
     Transition      Energy     Energy  Wavelength fosc(D2)      D2        DX        DY        DZ
                      (eV)      (cm-1)    (nm)                 (au**2)    (au)      (au)      (au)
----------------------------------------------------------------------------------------------------
  1-3A  ->  2-3A    0.721733    5821.2  1717.9   0.000046420   0.00263   0.01897   0.02992   0.03702

Dispersion correction             ... done (  0.1 sec)

MULLIKEN ATOMIC CHARGES AND SPIN DENSITIES
------------------------------------------
   0 O :   -0.632003   -0.002909
   1 O :   -0.662814   -0.039981
   2 O :   -0.656330   -0.000152
   3 O :   -0.656175   -0.000743
   4 N :   -0.084446    0.001129
   5 N :   -0.044564    0.002768
   6 N :    0.020063    0.001375
   7 N :    0.100736   -0.013004
   8 C :    2.159852    0.027935
   9 C :    0.718913    0.250444
  10 C :   -0.363213    0.006472
  11 C :   -1.160994   -0.098994
  12 C :   -1.663863   -0.028809
  13 C :   -1.170044    0.050147
  14 C :   -0.044819   -0.003850
  15 C :    0.189852   -0.199096
  16 C :    0.441673    0.001428
  17 C :    0.575436    0.012497
  18 H :    0.247226    0.000563
  19 H :    0.523599    0.025963
  20 H :    0.364510   -0.036084
  21 H :    0.315643    0.013707
  22 H :    0.425554   -0.003564
  23 H :    0.315045   -0.004292
  24 H :    0.281526    0.050473
  25 H :    0.337487   -0.020282
  26 H :    0.033110   -0.000403
  27 H :    0.068508   -0.000688
  28 H :    0.025971    0.000263
  29 H :   -0.005437    0.007686
Sum of atomic charges       :    0.0000000

LOEWDIN ATOMIC CHARGES AND SPIN DENSITIES
-----------------------------------------
   0 O :    0.119367   -0.001991
   1 O :    0.079883   -0.038877
   2 O :    0.090746   -0.000059
   3 O :    0.101207   -0.000703
   4 N :    0.289191    0.000441
   5 N :    0.281552    0.000491
   6 N :    0.341062    0.000153
   7 N :    0.324454   -0.000560
   8 C :   -0.201997    0.003586
   9 C :    0.158683    0.057063
  10 C :   -0.062037    0.001649
  11 C :   -0.081502    0.004614
  12 C :    0.190269   -0.005789
  13 C :    0.113618    0.001703
  14 C :   -0.360104   -0.000310
  15 C :   -0.469601   -0.016824
  16 C :   -0.453174    0.000042
  17 C :   -0.453531   -0.000616
  18 H :    0.066143    0.000157
  19 H :    0.012180    0.000516
  20 H :   -0.017442   -0.003356
  21 H :   -0.012466   -0.000230
  22 H :    0.021943   -0.001059
  23 H :    0.023336   -0.004417
  24 H :   -0.020979    0.001922
  25 H :    0.052064    0.002601
  26 H :   -0.030939    0.000036
  27 H :   -0.031774   -0.000039
  28 H :   -0.016910    0.000019
  29 H :   -0.053241   -0.000163

  Mayer bond orders larger than 0.100000
B(  0-O ,  8-C ) :  -0.1556 B(  0-O , 14-C ) :   1.5913 B(  1-O ,  9-C ) :   0.2553
B(  1-O , 15-C ) :   1.1991 B(  2-O , 16-C ) :   1.5539 B(  3-O , 17-C ) :   1.4645
B(  4-N , 10-C ) :   0.6621 B(  4-N , 16-C ) :   1.0973 B(  4-N , 26-H ) :   1.1255
B(  5-N , 10-C ) :  -0.1828 B(  5-N , 11-C ) :   0.7888 B(  5-N , 17-C ) :   0.9102
B(  5-N , 19-H ) :  -0.1074 B(  5-N , 27-H ) :   1.0838 B(  6-N , 14-C ) :   1.0503
B(  6-N , 16-C ) :   0.9488 B(  6-N , 28-H ) :   1.1042 B(  7-N , 15-C ) :   0.8501
B(  7-N , 17-C ) :   0.9475 B(  7-N , 29-H ) :   1.0971 B(  8-C ,  9-C ) :   0.1363
B(  8-C , 10-C ) :   0.4948 B(  8-C , 11-C ) :  -0.2601 B(  8-C , 14-C ) :   0.2194
B(  8-C , 20-H ) :  -0.1249 B(  9-C , 13-C ) :   0.4627 B(  9-C , 15-C ) :   1.0662
B(  9-C , 20-H ) :  -0.1272 B(  9-C , 24-H ) :  -0.1515 B( 10-C , 11-C ) :   0.8055
B( 10-C , 16-C ) :  -0.1070 B( 10-C , 18-H ) :   1.1228 B( 11-C , 12-C ) :   0.1179
B( 11-C , 19-H ) :   0.9215 B( 12-C , 20-H ) :   1.0489 B( 12-C , 21-H ) :   1.0052
B( 12-C , 22-H ) :   0.7620 B( 13-C , 23-H ) :   0.8698 B( 13-C , 24-H ) :   1.1572
B( 13-C , 25-H ) :   0.8863 B( 14-C , 16-C ) :  -0.1189 B( 15-C , 17-C ) :  -0.1267

Dispersion correction           -0.058820775
FINAL SINGLE POINT ENERGY      -908.698423892497

DIPOLE MOMENT
-------------

Method             : TDA/CIS
Type of density    : Electron Density
Level              : Relaxed density
State              :   1
Multiplicity       :   3
Irrep              :   0
Energy             :     0.0000000000000000 Eh
Relativity type    :
Basis              : AO
                                X                 Y                 Z
Electronic contribution:     -1.290777199      -9.954532913      -7.421197964
Nuclear contribution   :      1.317767688      11.161092070      10.543735116
                        -----------------------------------------
Total Dipole Moment    :      0.026990489       1.206559157       3.122537152
                        -----------------------------------------
Magnitude (a.u.)       :      3.347648690
Magnitude (Debye)      :      8.509046745

Rotational constants in cm-1:             0.022000             0.013555             0.011888
Rotational constants in MHz :           659.534842           406.375142           356.379610

                             ****ORCA TERMINATED NORMALLY****
TOTAL RUN TIME: 0 days 0 hours 4 minutes 52 seconds 624 msec
