                         Program Version 6.0.0  -   RELEASE  -
|  1> ! EnGrad wB97M-D3BJ def2-TZVPPD
|  2> %pal nprocs 8 end%pal nprocs 16 end
|  3> %tddft
|  4>  sf true
|  5>  nroots 2 Iroot 2 end
|  6> *xyz 0 3
|  7> O   0.17605532892763 0.90402229621907 -0.00064362861931
|  8> C   0.66272972996419 -0.35618145604938 -4.33396932e-05
|  9> C   -0.73107787281715 -0.6071382495881 6.940581384e-05
| 10> H   1.21879597205103 -0.64800402522926 0.8950155941231
| 11> H   1.21865857624425 -0.64832163896054 -0.89509118310083
| 12> H   -1.27177793943851 -0.68263808363941 -0.92808520502043
| 13> H   -1.27118379493144 -0.68013884275238 0.92877835649682
| 14> *
| 15>
| 16>                          ****END OF INPUT****

CARTESIAN COORDINATES (ANGSTROEM)
---------------------------------
  O      0.176055    0.904022   -0.000644
  C      0.662730   -0.356181   -0.000043
  C     -0.731078   -0.607138    0.000069
  H      1.218796   -0.648004    0.895016
  H      1.218659   -0.648322   -0.895091
  H     -1.271778   -0.682638   -0.928085
  H     -1.271184   -0.680139    0.928778

 Total Charge           Charge          ....    0
 Multiplicity           Mult            ....    3
 Number of Electrons    NEL             ....   24
 Basis Dimension        Dim             ....  182

ORBITAL ENERGIES
----------------
                 SPIN UP ORBITALS
  NO   OCC          E(Eh)            E(eV)
   0   1.0000     -19.426792      -528.6299
   1   1.0000     -10.409387      -283.2538
   2   1.0000     -10.334391      -281.2131
   3   1.0000      -1.240600       -33.7584
   4   1.0000      -0.860374       -23.4120
   5   1.0000      -0.750002       -20.4086
   6   1.0000      -0.657927       -17.9031
   7   1.0000      -0.621857       -16.9216
   8   1.0000      -0.550446       -14.9784
   9   1.0000      -0.499829       -13.6010
  10   1.0000      -0.468750       -12.7553
  11   1.0000      -0.452749       -12.3199
  12   1.0000      -0.223138        -6.0719
  13   0.0000       0.039882         1.0852
  14   0.0000       0.063470         1.7271
  15   0.0000       0.071953         1.9579
  16   0.0000       0.085611         2.3296
  17   0.0000       0.114306         3.1104

                 SPIN DOWN ORBITALS
  NO   OCC          E(Eh)            E(eV)
   0   1.0000     -19.395664      -527.7828
   1   1.0000     -10.410297      -283.2786
   2   1.0000     -10.322407      -280.8870
   3   1.0000      -1.176045       -32.0018
   4   1.0000      -0.825714       -22.4688
   5   1.0000      -0.730135       -19.8680
   6   1.0000      -0.610226       -16.6051
   7   1.0000      -0.585407       -15.9297
   8   1.0000      -0.521249       -14.1839
   9   1.0000      -0.471016       -12.8170
  10   1.0000      -0.404390       -11.0040
  11   0.0000      -0.087688        -2.3861
  12   0.0000       0.036910         1.0044
  13   0.0000       0.051376         1.3980
  14   0.0000       0.062146         1.6911
  15   0.0000       0.068997         1.8775

----------------------------------------------------------------------------------------------------
          SPIN FLIP ABSORPTION SPECTRUM VIA TRANSITION ELECTRIC DIPOLE MOMENTS
----------------------------------------------------------------------------------------------------
     Transition      Energy     Energy  Wavelength fosc(D2)      D2        DX        DY        DZ
                      (eV)      (cm-1)    (nm)                 (au**2)    (au)      (au)      (au)
----------------------------------------------------------------------------------------------------
  1-3A  ->  2-3A    4.107219   33127.0   301.9   0.002331921   0.02317   0.00011  -0.00006  -0.15223

Dispersion correction             ... done (  0.0 sec)

MULLIKEN ATOMIC CHARGES AND SPIN DENSITIES
------------------------------------------
   0 O :   -0.289834    0.617406
   1 C :    0.148255    0.254469
   2 C :   -0.369847   -0.556392
   3 H :    0.205765    0.023975
   4 H :    0.205481    0.023847
   5 H :    0.049944   -0.181747
   6 H :    0.050235   -0.181558
Sum of atomic charges       :    0.0000000

LOEWDIN ATOMIC CHARGES AND SPIN DENSITIES
-----------------------------------------
   0 O :    0.109608    0.607232
   1 C :   -0.169203    0.048765
   2 C :    0.130349   -0.514049
   3 H :    0.036173    0.022177
   4 H :    0.036191    0.022222
   5 H :   -0.071591   -0.093224
   6 H :   -0.071528   -0.093123

  Mayer bond orders larger than 0.100000
B(  0-O ,  1-C ) :   0.8031 B(  0-O ,  2-C ) :   0.4407 B(  1-C ,  2-C ) :   0.5926
B(  1-C ,  3-H ) :   0.9882 B(  1-C ,  4-H ) :   0.9880 B(  2-C ,  5-H ) :   1.1568
B(  2-C ,  6-H ) :   1.1568

Dispersion correction           -0.005317183
FINAL SINGLE POINT ENERGY      -153.685611917360

DIPOLE MOMENT
-------------

Method             : TDA/CIS
Type of density    : Electron Density
Level              : Relaxed density
State              :   2
Multiplicity       :   3
Irrep              :   0
Energy             :     0.0000000000000000 Eh
Relativity type    :
Basis              : AO
                                X                 Y                 Z
Electronic contribution:      0.840837990       2.465929852      -0.001516165
Nuclear contribution   :     -0.257968072      -2.499523224       0.001370505
                        -----------------------------------------
Total Dipole Moment    :      0.582869918      -0.033593372      -0.000145660
                        -----------------------------------------
Magnitude (a.u.)       :      0.583837201
Magnitude (Debye)      :      1.483996229

Rotational constants in cm-1:             0.957320             0.596346             0.430351
Rotational constants in MHz :         28699.717522         17877.995480         12901.612448

                             ****ORCA TERMINATED NORMALLY****
TOTAL RUN TIME: 0 days 0 hours 0 minutes 17 seconds 952 msec
