                         Program Version 6.0.0  -   RELEASE  -
|  1> ! Engrad def2-TZVPPD wB97M-D3BJ
|  2> %pal nprocs 8 end%pal nprocs 64 end
|  3> %tddft Nroots 2 Iroot 1
|  4> sf true
|  5> end
|  6> *xyz 0 3
|  7> O   2.45835186 1.2718124 -0.31765097
|  8> O   -0.82294938 0.81293592 -2.40145203
|  9> O   0.52896249 -2.63089299 -1.61111651
| 10> O   -2.3937323 -1.5255382 1.16376755
| 11> N   0.63398129 -2.15486302 0.61056069
| 12> N   -1.84130124 0.66514757 1.44670694
| 13> N   1.5933354 -0.7335015 -0.92730477
| 14> N   -1.66840307 -0.30865079 -0.62918559
| 15> C   1.50904117 -0.06328346 1.38236425
| 16> C   -0.91934257 1.96582131 -0.32787915
| 17> C   0.88124255 -1.25644328 1.61424535
| 18> C   -1.28397817 1.82202926 0.94968696
| 19> C   1.78758213 0.92934657 2.45198783
| 20> C   -0.27932361 3.199165 -0.88601454
| 21> C   1.90580215 0.24088246 0.0273263
| 22> C   -1.11415239 0.82907499 -1.22860707
| 23> C   0.896227 -1.90005914 -0.72061674
| 24> C   -2.00650934 -0.4753773 0.69232825
| 25> H   0.5541159 -1.53336856 2.58476563
| 26> H   -1.16241587 2.61437639 1.6678092
| 27> H   1.35297211 1.89026489 2.19583726
| 28> H   1.39151134 0.61465254 3.4095953
| 29> H   2.85446018 1.10536328 2.5510871
| 30> H   -0.83575394 3.56467005 -1.75344387
| 31> H   -0.24411033 3.99224763 -0.14364394
| 32> H   0.74349207 2.98409114 -1.21601839
| 33> H   0.03021914 -2.93549543 0.78299895
| 34> H   -2.07511206 0.5847654 2.41251357
| 35> H   1.75234797 -0.49011808 -1.90222029
| 36> H   -1.75179869 -1.12027686 -1.22373668
| 37> *
| 38>
| 39>                          ****END OF INPUT****

CARTESIAN COORDINATES (ANGSTROEM)
---------------------------------
  O      2.458352    1.271812   -0.317651
  O     -0.822949    0.812936   -2.401452
  O      0.528962   -2.630893   -1.611117
  O     -2.393732   -1.525538    1.163768
  N      0.633981   -2.154863    0.610561
  N     -1.841301    0.665148    1.446707
  N      1.593335   -0.733501   -0.927305
  N     -1.668403   -0.308651   -0.629186
  C      1.509041   -0.063283    1.382364
  C     -0.919343    1.965821   -0.327879
  C      0.881243   -1.256443    1.614245
  C     -1.283978    1.822029    0.949687
  C      1.787582    0.929347    2.451988
  C     -0.279324    3.199165   -0.886015
  C      1.905802    0.240882    0.027326
  C     -1.114152    0.829075   -1.228607
  C      0.896227   -1.900059   -0.720617
  C     -2.006509   -0.475377    0.692328
  H      0.554116   -1.533369    2.584766
  H     -1.162416    2.614376    1.667809
  H      1.352972    1.890265    2.195837
  H      1.391511    0.614653    3.409595
  H      2.854460    1.105363    2.551087
  H     -0.835754    3.564670   -1.753444
  H     -0.244110    3.992248   -0.143644
  H      0.743492    2.984091   -1.216018
  H      0.030219   -2.935495    0.782999
  H     -2.075112    0.584765    2.412514
  H      1.752348   -0.490118   -1.902220
  H     -1.751799   -1.120277   -1.223737

 Total Charge           Charge          ....    0
 Multiplicity           Mult            ....    3
 Number of Electrons    NEL             ....  132
 Basis Dimension        Dim             ....  882

ORBITAL ENERGIES
----------------
                 SPIN UP ORBITALS
  NO   OCC          E(Eh)            E(eV)
   0   1.0000     -19.330703      -526.0152
   1   1.0000     -19.326691      -525.9060
   2   1.0000     -19.322143      -525.7822
   3   1.0000     -19.320955      -525.7499
   4   1.0000     -14.589687      -397.0056
   5   1.0000     -14.583766      -396.8445
   6   1.0000     -14.569800      -396.4644
   7   1.0000     -14.550572      -395.9412
   8   1.0000     -10.514143      -286.1044
   9   1.0000     -10.508003      -285.9373
  10   1.0000     -10.477300      -285.1018
  11   1.0000     -10.458287      -284.5845
  12   1.0000     -10.430374      -283.8249
  13   1.0000     -10.410566      -283.2859
  14   1.0000     -10.395175      -282.8671
  15   1.0000     -10.378850      -282.4229
  16   1.0000     -10.372206      -282.2421
  17   1.0000     -10.349060      -281.6123
  18   1.0000      -1.227580       -33.4041
  19   1.0000      -1.223377       -33.2898
  20   1.0000      -1.193585       -32.4791
  21   1.0000      -1.188463       -32.3397
  22   1.0000      -1.123413       -30.5696
  23   1.0000      -1.122792       -30.5527
  24   1.0000      -1.069801       -29.1108
  25   1.0000      -1.059346       -28.8263
  26   1.0000      -0.974375       -26.5141
  27   1.0000      -0.954787       -25.9811
  28   1.0000      -0.859420       -23.3860
  29   1.0000      -0.843996       -22.9663
  30   1.0000      -0.812836       -22.1184
  31   1.0000      -0.808822       -22.0092
  32   1.0000      -0.794564       -21.6212
  33   1.0000      -0.787266       -21.4226
  34   1.0000      -0.698427       -19.0052
  35   1.0000      -0.694527       -18.8990
  36   1.0000      -0.693581       -18.8733
  37   1.0000      -0.691145       -18.8070
  38   1.0000      -0.644184       -17.5291
  39   1.0000      -0.639675       -17.4064
  40   1.0000      -0.629310       -17.1244
  41   1.0000      -0.599163       -16.3040
  42   1.0000      -0.597080       -16.2474
  43   1.0000      -0.594015       -16.1640
  44   1.0000      -0.573545       -15.6069
  45   1.0000      -0.569268       -15.4906
  46   1.0000      -0.566718       -15.4212
  47   1.0000      -0.556005       -15.1297
  48   1.0000      -0.551148       -14.9975
  49   1.0000      -0.548743       -14.9321
  50   1.0000      -0.534018       -14.5314
  51   1.0000      -0.521245       -14.1838
  52   1.0000      -0.515769       -14.0348
  53   1.0000      -0.513415       -13.9707
  54   1.0000      -0.512721       -13.9519
  55   1.0000      -0.495277       -13.4772
  56   1.0000      -0.491618       -13.3776
  57   1.0000      -0.476300       -12.9608
  58   1.0000      -0.420488       -11.4421
  59   1.0000      -0.418430       -11.3861
  60   1.0000      -0.404637       -11.0107
  61   1.0000      -0.403463       -10.9788
  62   1.0000      -0.388285       -10.5658
  63   1.0000      -0.386659       -10.5215
  64   1.0000      -0.383706       -10.4412
  65   1.0000      -0.346980        -9.4418
  66   1.0000      -0.213798        -5.8177
  67   0.0000       0.012185         0.3316
  68   0.0000       0.021466         0.5841
  69   0.0000       0.033394         0.9087
  70   0.0000       0.039701         1.0803
  71   0.0000       0.041821         1.1380

                 SPIN DOWN ORBITALS
  NO   OCC          E(Eh)            E(eV)
   0   1.0000     -19.328764      -525.9624
   1   1.0000     -19.326652      -525.9049
   2   1.0000     -19.322078      -525.7805
   3   1.0000     -19.314488      -525.5739
   4   1.0000     -14.584563      -396.8661
   5   1.0000     -14.583590      -396.8397
   6   1.0000     -14.569814      -396.4648
   7   1.0000     -14.549670      -395.9167
   8   1.0000     -10.514147      -286.1045
   9   1.0000     -10.508375      -285.9474
  10   1.0000     -10.477307      -285.1020
  11   1.0000     -10.457961      -284.5756
  12   1.0000     -10.430361      -283.8246
  13   1.0000     -10.401086      -283.0279
  14   1.0000     -10.384846      -282.5860
  15   1.0000     -10.378790      -282.4212
  16   1.0000     -10.372681      -282.2550
  17   1.0000     -10.349035      -281.6115
  18   1.0000      -1.226365       -33.3711
  19   1.0000      -1.220155       -33.2021
  20   1.0000      -1.193447       -32.4753
  21   1.0000      -1.178869       -32.0787
  22   1.0000      -1.122625       -30.5482
  23   1.0000      -1.112446       -30.2712
  24   1.0000      -1.069712       -29.1084
  25   1.0000      -1.053747       -28.6739
  26   1.0000      -0.954958       -25.9857
  27   1.0000      -0.951057       -25.8796
  28   1.0000      -0.848063       -23.0770
  29   1.0000      -0.843632       -22.9564
  30   1.0000      -0.808893       -22.0111
  31   1.0000      -0.800209       -21.7748
  32   1.0000      -0.794492       -21.6192
  33   1.0000      -0.780911       -21.2497
  34   1.0000      -0.694417       -18.8961
  35   1.0000      -0.691425       -18.8146
  36   1.0000      -0.687900       -18.7187
  37   1.0000      -0.683961       -18.6115
  38   1.0000      -0.642262       -17.4768
  39   1.0000      -0.631072       -17.1724
  40   1.0000      -0.623228       -16.9589
  41   1.0000      -0.596998       -16.2451
  42   1.0000      -0.588561       -16.0156
  43   1.0000      -0.585408       -15.9298
  44   1.0000      -0.566747       -15.4220
  45   1.0000      -0.563400       -15.3309
  46   1.0000      -0.554618       -15.0919
  47   1.0000      -0.549144       -14.9430
  48   1.0000      -0.547888       -14.9088
  49   1.0000      -0.545009       -14.8305
  50   1.0000      -0.525894       -14.3103
  51   1.0000      -0.514705       -14.0058
  52   1.0000      -0.512659       -13.9502
  53   1.0000      -0.507644       -13.8137
  54   1.0000      -0.500601       -13.6220
  55   1.0000      -0.494025       -13.4431
  56   1.0000      -0.476644       -12.9702
  57   1.0000      -0.444036       -12.0828
  58   1.0000      -0.418847       -11.3974
  59   1.0000      -0.414788       -11.2870
  60   1.0000      -0.403423       -10.9777
  61   1.0000      -0.386020       -10.5042
  62   1.0000      -0.380200       -10.3458
  63   1.0000      -0.378866       -10.3095
  64   1.0000      -0.345842        -9.4108
  65   0.0000      -0.103722        -2.8224
  66   0.0000       0.011182         0.3043
  67   0.0000       0.021964         0.5977
  68   0.0000       0.031652         0.8613
  69   0.0000       0.038219         1.0400

----------------------------------------------------------------------------------------------------
          SPIN FLIP ABSORPTION SPECTRUM VIA TRANSITION ELECTRIC DIPOLE MOMENTS
----------------------------------------------------------------------------------------------------
     Transition      Energy     Energy  Wavelength fosc(D2)      D2        DX        DY        DZ
                      (eV)      (cm-1)    (nm)                 (au**2)    (au)      (au)      (au)
----------------------------------------------------------------------------------------------------
  1-3A  ->  2-3A    4.045517   32629.3   306.5   0.001302356   0.01314   0.04584   0.07861  -0.06971

Dispersion correction             ... done (  0.1 sec)

MULLIKEN ATOMIC CHARGES AND SPIN DENSITIES
------------------------------------------
   0 O :   -0.702571    0.035816
   1 O :   -0.656809   -0.000047
   2 O :   -0.635426    0.008047
   3 O :   -0.670308    0.000750
   4 N :   -0.003509    0.057797
   5 N :    0.034756   -0.000623
   6 N :    0.039891    0.002838
   7 N :    0.058257   -0.002426
   8 C :    1.134989    0.610852
   9 C :    0.831339   -0.008170
  10 C :   -0.189648   -0.447678
  11 C :   -0.208890   -0.007729
  12 C :   -1.420321   -0.021340
  13 C :   -1.357735    0.001772
  14 C :    0.162707   -0.321899
  15 C :    0.466797    0.024471
  16 C :    0.351327    0.021318
  17 C :    0.419704   -0.006535
  18 H :    0.173942    0.030402
  19 H :    0.155117   -0.003527
  20 H :    0.260308    0.010895
  21 H :    0.338718    0.010400
  22 H :    0.353122    0.002384
  23 H :    0.329753   -0.000287
  24 H :    0.336576    0.000669
  25 H :    0.226745   -0.002167
  26 H :    0.053119    0.001783
  27 H :    0.012741   -0.001440
  28 H :    0.065878    0.003598
  29 H :    0.039432    0.000076
Sum of atomic charges       :    0.0000000

LOEWDIN ATOMIC CHARGES AND SPIN DENSITIES
-----------------------------------------
   0 O :    0.071274    0.029138
   1 O :    0.103787   -0.000012
   2 O :    0.092184    0.006621
   3 O :    0.068778    0.000194
   4 N :    0.291752    0.023914
   5 N :    0.286241   -0.001460
   6 N :    0.337666   -0.000282
   7 N :    0.345259   -0.000096
   8 C :   -0.136219   -0.033882
   9 C :   -0.132084   -0.000252
  10 C :    0.076330   -0.030127
  11 C :    0.046913   -0.000306
  12 C :    0.171057   -0.003939
  13 C :    0.181114    0.000163
  14 C :   -0.412824    0.010505
  15 C :   -0.395686    0.000074
  16 C :   -0.485465    0.000582
  17 C :   -0.486178   -0.000595
  18 H :    0.025457   -0.002278
  19 H :    0.034228    0.000032
  20 H :   -0.014377   -0.000331
  21 H :   -0.007807    0.000244
  22 H :    0.002284   -0.000392
  23 H :    0.002558    0.000012
  24 H :   -0.007932    0.000016
  25 H :   -0.006503    0.000113
  26 H :   -0.019495    0.002256
  27 H :   -0.027559   -0.000062
  28 H :    0.005693    0.000148
  29 H :   -0.010444    0.000004

  Mayer bond orders larger than 0.100000
B(  0-O , 14-C ) :   1.4204 B(  1-O , 15-C ) :   1.4686 B(  2-O , 16-C ) :   1.5715
B(  3-O , 17-C ) :   1.5297 B(  4-N , 10-C ) :   0.8974 B(  4-N , 16-C ) :   0.9878
B(  4-N , 26-H ) :   1.1151 B(  5-N , 11-C ) :   0.9648 B(  5-N , 17-C ) :   1.0370
B(  5-N , 27-H ) :   1.1331 B(  6-N , 14-C ) :   0.9611 B(  6-N , 16-C ) :   0.9374
B(  6-N , 28-H ) :   1.0906 B(  7-N , 15-C ) :   0.9472 B(  7-N , 16-C ) :   0.1185
B(  7-N , 17-C ) :   0.9502 B(  7-N , 29-H ) :   1.1130 B(  8-C , 10-C ) :   1.0626
B(  8-C , 12-C ) :   0.2940 B(  8-C , 14-C ) :   0.6529 B(  9-C , 11-C ) :   1.1789
B(  9-C , 13-C ) :   0.3568 B(  9-C , 15-C ) :   0.7779 B(  9-C , 19-H ) :  -0.1097
B( 10-C , 14-C ) :   0.1420 B( 10-C , 16-C ) :  -0.1019 B( 10-C , 18-H ) :   1.1357
B( 11-C , 13-C ) :  -0.1175 B( 11-C , 19-H ) :   1.1317 B( 12-C , 20-H ) :   0.9760
B( 12-C , 21-H ) :   0.9825 B( 12-C , 22-H ) :   0.9427 B( 13-C , 23-H ) :   0.9468
B( 13-C , 24-H ) :   0.9919 B( 13-C , 25-H ) :   0.9975

Dispersion correction           -0.058665096
FINAL SINGLE POINT ENERGY      -908.927645987599

DIPOLE MOMENT
-------------

Method             : TDA/CIS
Type of density    : Electron Density
Level              : Relaxed density
State              :   1
Multiplicity       :   3
Irrep              :   0
Energy             :     0.0000000000000000 Eh
Relativity type    :
Basis              : AO
                                X                 Y                 Z
Electronic contribution:     -2.976647625      -9.671811591      -5.638656522
Nuclear contribution   :      2.549027367      10.246332143       8.144716027
                        -----------------------------------------
Total Dipole Moment    :     -0.427620258       0.574520552       2.506059505
                        -----------------------------------------
Magnitude (a.u.)       :      2.606389686
Magnitude (Debye)      :      6.624916091

Rotational constants in cm-1:             0.017015             0.015617             0.014032
Rotational constants in MHz :           510.096052           468.176344           420.670908

                             ****ORCA TERMINATED NORMALLY****
TOTAL RUN TIME: 0 days 0 hours 5 minutes 6 seconds 149 msec
