                         Program Version 6.0.0  -   RELEASE  -
|  1> ! opt def2-TZVPPD wB97M-D3BJ
|  2> %pal nprocs 24 end%geom Constraints
|  3> {B 9 8 3.0 C}
|  4> {A 8 9 11 79.71428571428571 C}
|  5>  end
|  6>  end
|  7> *xyz 0 1
|  8> O   2.98579685529314 0.88758230159078 -0.86184571092411
|  9> O   -0.03983205397054 0.68929041702508 -2.10362336723772
| 10> O   0.93431434349854 -3.13274393337945 -0.68767288184107
| 11> O   -3.75829998830163 -0.84727300865116 -0.0472717177755
| 12> N   0.21184538946282 -1.54604804365365 0.7617588924445
| 13> N   -2.13631993928911 0.03188773433438 1.27350571071531
| 14> N   2.02598672506387 -1.14318467211666 -0.64531219127023
| 15> N   -1.91814233924584 0.03137116037665 -1.04498946748291
| 16> C   1.18097737274226 0.71693507080484 0.70173889017321
| 17> C   -0.20686880480777 1.27024627933494 0.21345042231937
| 18> C   0.41441080275909 -0.34173258966541 1.52336266615173
| 19> C   -0.82922175114212 0.58960593673968 1.44434972027296
| 20> C   1.92822011286806 1.69488653817281 1.5963734975385
| 21> C   -0.37809776891576 2.77134929626422 0.04819649358288
| 22> C   2.1403947470937 0.1972384729179 -0.35038567829864
| 23> C   -0.67361678962426 0.6214190571346 -1.0793014500539
| 24> C   1.04142578622994 -2.02697492875068 -0.21027082435993
| 25> C   -2.68467002550422 -0.30396816036989 0.07167054343891
| 26> H   0.80817443950001 -0.54572267081061 2.51895215321335
| 27> H   -0.83785272399001 1.27240685039143 2.28901317073582
| 28> H   2.31167340578204 2.52284411740894 1.00913016264629
| 29> H   1.28982602448342 2.08257620823614 2.38710022492991
| 30> H   2.77390820759972 1.19140411795486 2.06045858523949
| 31> H   -1.41857211141493 3.00964947214868 -0.16882755561625
| 32> H   -0.09065531563179 3.29799318042223 0.95389844358819
| 33> H   0.23426221611057 3.12492645074476 -0.77764887675592
| 34> H   -0.46772570547622 -2.21560145172536 1.0787081584806
| 35> H   -2.71769301149571 -0.17090724573546 2.06627440900372
| 36> H   2.60065167263658 -1.49057255715425 -1.3966820077142
| 37> H   -2.27169977231386 -0.32388339999036 -1.91951041514436
| 38> *
| 39>
| 40>                          ****END OF INPUT****
 Total Charge           Charge          ....    0
 Multiplicity           Mult            ....    1
 Number of Electrons    NEL             ....  132
Dispersion correction           -0.053094307
FINAL SINGLE POINT ENERGY      -908.658080720941
Dispersion correction             ... done (  0.0 sec)
Dispersion correction           -0.053664595
FINAL SINGLE POINT ENERGY      -908.686043748854
Dispersion correction             ... done (  0.1 sec)
Dispersion correction           -0.054312153
FINAL SINGLE POINT ENERGY      -908.703672617343
Dispersion correction             ... done (  0.0 sec)
FINAL SINGLE POINT ENERGY      -908.717272110387
FINAL SINGLE POINT ENERGY      -908.723792106928
FINAL SINGLE POINT ENERGY      -908.729920346362
FINAL SINGLE POINT ENERGY      -908.735779105595
FINAL SINGLE POINT ENERGY      -908.739258587297
FINAL SINGLE POINT ENERGY      -908.743531139826
FINAL SINGLE POINT ENERGY      -908.770038834741
FINAL SINGLE POINT ENERGY      -908.929144774741
FINAL SINGLE POINT ENERGY      -908.929695497122
FINAL SINGLE POINT ENERGY      -908.930012170504
FINAL SINGLE POINT ENERGY      -908.930183623435
FINAL SINGLE POINT ENERGY      -908.930304834100
FINAL SINGLE POINT ENERGY      -908.930385815224
FINAL SINGLE POINT ENERGY      -908.930425819638
Dispersion correction             ... done (  0.0 sec)
Dispersion correction           -0.061454278
FINAL SINGLE POINT ENERGY      -908.930438043827
Dispersion correction             ... done (  0.0 sec)
Dispersion correction           -0.061516422
FINAL SINGLE POINT ENERGY      -908.930439731324
Dispersion correction             ... done (  0.0 sec)
                    ***********************HURRAY********************

CARTESIAN COORDINATES (ANGSTROEM)
---------------------------------
  O      2.607560    1.158504   -0.553549
  O     -0.598263    0.844478   -2.273734
  O      0.701970   -2.867051   -1.455610
  O     -2.580048   -1.646317    0.970244
  N      0.584350   -2.052834    0.668105
  N     -1.972841    0.495117    1.446467
  N      1.711573   -0.880896   -0.961555
  N     -1.642073   -0.355048   -0.662648
  C      1.338477    0.153446    1.180378
  C     -0.779766    1.832674   -0.120870
  C      0.733616   -0.989874    1.528850
  C     -1.325305    1.653599    1.086443
  C      1.607446    1.271816    2.134984
  C     -0.079559    3.084800   -0.540817
  C      1.946021    0.225456   -0.149540
  C     -0.973585    0.784663   -1.124887
  C      0.977048   -2.005169   -0.652066
  C     -2.108290   -0.588551    0.608363
  H      0.318776   -1.143482    2.513359
  H     -1.265508    2.404222    1.859356
  H      1.371928    2.231985    1.684156
  H      1.024984    1.151377    3.046425
  H      2.662880    1.300625    2.401391
  H     -0.567223    3.516431   -1.412505
  H     -0.086792    3.816799    0.264061
  H      0.950809    2.871899   -0.816112
  H     -0.044406   -2.802701    0.900416
  H     -2.336358    0.369920    2.373557
  H      2.005902   -0.800930   -1.922514
  H     -1.730724   -1.119956   -1.315549

 Multiplicity           Mult            ....    1
 Number of Electrons    NEL             ....  132
 Basis Dimension        Dim             ....  882

ORBITAL ENERGIES
----------------

  NO   OCC          E(Eh)            E(eV)
   0   2.0000     -19.330683      -526.0146
   1   2.0000     -19.324385      -525.8433
   2   2.0000     -19.320398      -525.7348
   3   2.0000     -19.319032      -525.6976
   4   2.0000     -14.588045      -396.9609
   5   2.0000     -14.574819      -396.6010
   6   2.0000     -14.572461      -396.5368
   7   2.0000     -14.563518      -396.2935
   8   2.0000     -10.517087      -286.1845
   9   2.0000     -10.505649      -285.8732
  10   2.0000     -10.479933      -285.1735
  11   2.0000     -10.475824      -285.0617
  12   2.0000     -10.431230      -283.8482
  13   2.0000     -10.428446      -283.7724
  14   2.0000     -10.380146      -282.4581
  15   2.0000     -10.379086      -282.4293
  16   2.0000     -10.362057      -281.9659
  17   2.0000     -10.349466      -281.6233
  18   2.0000      -1.230096       -33.4726
  19   2.0000      -1.219237       -33.1771
  20   2.0000      -1.195633       -32.5348
  21   2.0000      -1.189549       -32.3693
  22   2.0000      -1.126235       -30.6464
  23   2.0000      -1.116430       -30.3796
  24   2.0000      -1.072530       -29.1850
  25   2.0000      -1.063852       -28.9489
  26   2.0000      -0.961647       -26.1678
  27   2.0000      -0.952721       -25.9249
  28   2.0000      -0.849360       -23.1122
  29   2.0000      -0.846932       -23.0462
  30   2.0000      -0.812743       -22.1159
  31   2.0000      -0.807240       -21.9661
  32   2.0000      -0.796629       -21.6774
  33   2.0000      -0.788035       -21.4435
  34   2.0000      -0.697489       -18.9796
  35   2.0000      -0.694297       -18.8928
  36   2.0000      -0.691392       -18.8137
  37   2.0000      -0.687884       -18.7183
  38   2.0000      -0.644739       -17.5442
  39   2.0000      -0.641550       -17.4575
  40   2.0000      -0.634485       -17.2652
  41   2.0000      -0.598997       -16.2995
  42   2.0000      -0.596521       -16.2322
  43   2.0000      -0.591232       -16.0882
  44   2.0000      -0.570103       -15.5133
  45   2.0000      -0.567885       -15.4529
  46   2.0000      -0.559811       -15.2332
  47   2.0000      -0.551444       -15.0056
  48   2.0000      -0.550521       -14.9804
  49   2.0000      -0.543731       -14.7957
  50   2.0000      -0.520606       -14.1664
  51   2.0000      -0.518295       -14.1035
  52   2.0000      -0.515255       -14.0208
  53   2.0000      -0.512301       -13.9404
  54   2.0000      -0.505530       -13.7562
  55   2.0000      -0.496889       -13.5210
  56   2.0000      -0.480550       -13.0764
  57   2.0000      -0.471600       -12.8329
  58   2.0000      -0.422334       -11.4923
  59   2.0000      -0.411901       -11.2084
  60   2.0000      -0.406431       -11.0595
  61   2.0000      -0.395804       -10.7704
  62   2.0000      -0.388451       -10.5703
  63   2.0000      -0.384017       -10.4496
  64   2.0000      -0.353312        -9.6141
  65   2.0000      -0.337481        -9.1833
  66   0.0000       0.009344         0.2543
  67   0.0000       0.016656         0.4532
  68   0.0000       0.024039         0.6541
  69   0.0000       0.034107         0.9281
  70   0.0000       0.040052         1.0899

MULLIKEN ATOMIC CHARGES
-----------------------
   0 O :   -0.676499
   1 O :   -0.664485
   2 O :   -0.651087
   3 O :   -0.670035
   4 N :   -0.057745
   5 N :    0.003576
   6 N :    0.050516
   7 N :    0.032788
   8 C :    1.032721
   9 C :    0.530629
  10 C :    0.054975
  11 C :    0.096728
  12 C :   -1.529883
  13 C :   -1.523464
  14 C :    0.134962
  15 C :    0.615513
  16 C :    0.397209
  17 C :    0.428008
  18 H :    0.187624
  19 H :    0.181439
  20 H :    0.248490
  21 H :    0.331031
  22 H :    0.380588
  23 H :    0.383480
  24 H :    0.327208
  25 H :    0.228030
  26 H :    0.061586
  27 H :    0.020582
  28 H :    0.025313
  29 H :    0.020202
Sum of atomic charges:    0.0000000

LOEWDIN ATOMIC CHARGES
----------------------
   0 O :    0.090955
   1 O :    0.105348
   2 O :    0.087995
   3 O :    0.075414
   4 N :    0.279382
   5 N :    0.284975
   6 N :    0.345622
   7 N :    0.348199
   8 C :   -0.148030
   9 C :   -0.145070
  10 C :    0.041027
  11 C :    0.035071
  12 C :    0.178221
  13 C :    0.184316
  14 C :   -0.398245
  15 C :   -0.392496
  16 C :   -0.482851
  17 C :   -0.492978
  18 H :    0.040942
  19 H :    0.040280
  20 H :   -0.018242
  21 H :   -0.003348
  22 H :    0.006113
  23 H :    0.003303
  24 H :   -0.004263
  25 H :   -0.017408
  26 H :   -0.020877
  27 H :   -0.017914
  28 H :   -0.001392
  29 H :   -0.004049

  Mayer bond orders larger than 0.100000
B(  0-O , 14-C ) :   1.4426 B(  1-O , 15-C ) :   1.4158 B(  2-O , 16-C ) :   1.5633
B(  3-O , 17-C ) :   1.5434 B(  4-N , 10-C ) :   0.8116 B(  4-N , 16-C ) :   1.0146
B(  4-N , 26-H ) :   1.1154 B(  5-N , 11-C ) :   0.9666 B(  5-N , 17-C ) :   1.0342
B(  5-N , 27-H ) :   1.1313 B(  6-N ,  8-C ) :  -0.1074 B(  6-N , 14-C ) :   1.0493
B(  6-N , 16-C ) :   0.9146 B(  6-N , 28-H ) :   1.1059 B(  7-N , 15-C ) :   0.9752
B(  7-N , 17-C ) :   0.9383 B(  7-N , 29-H ) :   1.1252 B(  8-C , 10-C ) :   1.0227
B(  8-C , 12-C ) :   0.3457 B(  8-C , 14-C ) :   0.6121 B(  8-C , 20-H ) :  -0.1096
B(  8-C , 21-H ) :  -0.1011 B(  9-C , 11-C ) :   1.1357 B(  9-C , 13-C ) :   0.3585
B(  9-C , 15-C ) :   0.6848 B(  9-C , 24-H ) :  -0.1188 B( 10-C , 12-C ) :  -0.2113
B( 10-C , 18-H ) :   1.1381 B( 11-C , 13-C ) :  -0.2632 B( 11-C , 19-H ) :   1.1185
B( 12-C , 14-C ) :  -0.1106 B( 12-C , 20-H ) :   1.0086 B( 12-C , 21-H ) :   1.0342
B( 12-C , 22-H ) :   0.8641 B( 13-C , 23-H ) :   0.8516 B( 13-C , 24-H ) :   1.0790
B( 13-C , 25-H ) :   0.9872

Dispersion correction           -0.061476611
FINAL SINGLE POINT ENERGY      -908.930441998733

DIPOLE MOMENT
-------------

Method             : SCF
Type of density    : Electron Density
Multiplicity       :   1
Irrep              :   0
Energy             :  -908.8689653876118655 Eh
Relativity type    :
Basis              : AO
                                X                 Y                 Z
Electronic contribution:     -2.662023909     -10.169353732      -5.928386720
Nuclear contribution   :      2.066804721      11.116445096       8.444298100
                        -----------------------------------------
Total Dipole Moment    :     -0.595219188       0.947091364       2.515911379
                        -----------------------------------------
Magnitude (a.u.)       :      2.753375747
Magnitude (Debye)      :      6.998524966

Rotational constants in cm-1:             0.017393             0.016983             0.013603
Rotational constants in MHz :           521.441112           509.136783           407.817065

                             ****ORCA TERMINATED NORMALLY****
TOTAL RUN TIME: 0 days 3 hours 3 minutes 51 seconds 416 msec
