                         Program Version 6.0.0  -   RELEASE  -
|  1> ! Engrad def2-TZVPPD wB97M-D3BJ
|  2> %pal nprocs 8 end%pal nprocs 32 end
|  3> %tddft Nroots 2 Iroot 1
|  4> sf true
|  5> end
|  6> *xyz 0 3
|  7> O   0.51644379 1.25123578 -0.0253306
|  8> C   0.42816198 -0.26269282 -0.01174138
|  9> C   -0.87758918 -1.09574214 0.03936058
| 10> H   1.02427845 -0.64617022 0.80801711
| 11> H   0.99126536 -0.57014137 -0.89593979
| 12> H   -1.50034641 -1.07830934 -0.86265377
| 13> H   -1.42040026 -1.12832916 0.99238593
| 14> *
| 15>
| 16>                          ****END OF INPUT****

CARTESIAN COORDINATES (ANGSTROEM)
---------------------------------
  O      0.516444    1.251236   -0.025331
  C      0.428162   -0.262693   -0.011741
  C     -0.877589   -1.095742    0.039361
  H      1.024278   -0.646170    0.808017
  H      0.991265   -0.570141   -0.895940
  H     -1.500346   -1.078309   -0.862654
  H     -1.420400   -1.128329    0.992386

 Total Charge           Charge          ....    0
 Multiplicity           Mult            ....    3
 Number of Electrons    NEL             ....   24
 Basis Dimension        Dim             ....  182

ORBITAL ENERGIES
----------------
                 SPIN UP ORBITALS
  NO   OCC          E(Eh)            E(eV)
   0   1.0000     -19.401304      -527.9363
   1   1.0000     -10.418391      -283.4988
   2   1.0000     -10.387835      -282.6674
   3   1.0000      -1.125647       -30.6304
   4   1.0000      -0.879749       -23.9392
   5   1.0000      -0.739140       -20.1130
   6   1.0000      -0.601863       -16.3775
   7   1.0000      -0.550133       -14.9699
   8   1.0000      -0.535635       -14.5754
   9   1.0000      -0.522193       -14.2096
  10   1.0000      -0.446981       -12.1630
  11   1.0000      -0.419772       -11.4226
  12   1.0000      -0.354517        -9.6469
  13   0.0000       0.039232         1.0676
  14   0.0000       0.061373         1.6700
  15   0.0000       0.079180         2.1546
  16   0.0000       0.087459         2.3799
  17   0.0000       0.112311         3.0561

                 SPIN DOWN ORBITALS
  NO   OCC          E(Eh)            E(eV)
   0   1.0000     -19.375039      -527.2216
   1   1.0000     -10.419754      -283.5359
   2   1.0000     -10.374631      -282.3081
   3   1.0000      -1.060735       -28.8641
   4   1.0000      -0.850250       -23.1365
   5   1.0000      -0.715625       -19.4731
   6   1.0000      -0.577534       -15.7155
   7   1.0000      -0.519696       -14.1416
   8   1.0000      -0.511283       -13.9127
   9   1.0000      -0.483950       -13.1690
  10   1.0000      -0.389092       -10.5877
  11   0.0000      -0.051040        -1.3889
  12   0.0000      -0.024867        -0.6767
  13   0.0000       0.038427         1.0457
  14   0.0000       0.062008         1.6873
  15   0.0000       0.080637         2.1942

----------------------------------------------------------------------------------------------------
          SPIN FLIP ABSORPTION SPECTRUM VIA TRANSITION ELECTRIC DIPOLE MOMENTS
----------------------------------------------------------------------------------------------------
     Transition      Energy     Energy  Wavelength fosc(D2)      D2        DX        DY        DZ
                      (eV)      (cm-1)    (nm)                 (au**2)    (au)      (au)      (au)
----------------------------------------------------------------------------------------------------
  1-3A  ->  2-3A    0.096548     778.7  12841.7   0.000000500   0.00021  -0.00517  -0.00789  -0.01106

Dispersion correction             ... done (  0.1 sec)

MULLIKEN ATOMIC CHARGES AND SPIN DENSITIES
------------------------------------------
   0 O :   -0.299947    0.885577
   1 C :    0.004675    0.271632
   2 C :   -0.470211   -1.025682
   3 H :    0.233200    0.015520
   4 H :    0.212624    0.018104
   5 H :    0.157394   -0.079583
   6 H :    0.162264   -0.085569
Sum of atomic charges       :   -0.0000000

LOEWDIN ATOMIC CHARGES AND SPIN DENSITIES
-----------------------------------------
   0 O :   -0.002780    0.848029
   1 C :   -0.147987   -0.034478
   2 C :    0.295224   -0.669639
   3 H :   -0.010898    0.005537
   4 H :    0.002000    0.013568
   5 H :   -0.068581   -0.081222
   6 H :   -0.066978   -0.081794

  Mayer bond orders larger than 0.100000
B(  0-O ,  1-C ) :   0.8591 B(  1-C ,  2-C ) :   0.6075 B(  1-C ,  3-H ) :   0.9597
B(  1-C ,  4-H ) :   0.9554 B(  2-C ,  5-H ) :   1.1229 B(  2-C ,  6-H ) :   1.1259

Dispersion correction           -0.005335379
FINAL SINGLE POINT ENERGY      -153.729952900445

DIPOLE MOMENT
-------------

Method             : TDA/CIS
Type of density    : Electron Density
Level              : Relaxed density
State              :   1
Multiplicity       :   3
Irrep              :   0
Energy             :     0.0000000000000000 Eh
Relativity type    :
Basis              : AO
                                X                 Y                 Z
Electronic contribution:      0.883507980       2.572257176      -0.029707235
Nuclear contribution   :     -1.008546779      -3.214379821       0.041534245
                        -----------------------------------------
Total Dipole Moment    :     -0.125038799      -0.642122645       0.011827010
                        -----------------------------------------
Magnitude (a.u.)       :      0.654290509
Magnitude (Debye)      :      1.663074308

Rotational constants in cm-1:             1.536536             0.276570             0.257270
Rotational constants in MHz :         46064.203709          8291.351674          7712.748040

                             ****ORCA TERMINATED NORMALLY****
TOTAL RUN TIME: 0 days 0 hours 0 minutes 17 seconds 441 msec
