                         Program Version 6.0.0  -   RELEASE  -
|  1> ! Opt wB97M-D3BJ def2-TZVPPD
|  2> %pal nprocs 8 end %pal nprocs 64 end
|  3> %geom
|  4> Constraints
|  5>     {A 2 1 0 90.50847457627118 C }
|  6> end
|  7> MaxIter 200
|  8> end
|  9> *xyz 0 1
| 10> O   0.7625706424740689 1.0268983103465144 0.0
| 11> C   0.7509 -0.4065 0.0
| 12> C   -0.7502 -0.4076 0.0
| 13> H   1.2625 -0.6786 0.9136
| 14> H   1.2625 -0.6787 -0.9136
| 15> H   -1.2614 -0.6806 -0.9136
| 16> H   -1.2614 -0.6805 0.9136
| 17> *
| 18>
| 19>                          ****END OF INPUT****
 Total Charge           Charge          ....    0
 Multiplicity           Mult            ....    1
 Number of Electrons    NEL             ....   24
Dispersion correction           -0.005554812
FINAL SINGLE POINT ENERGY      -153.791434219513
Dispersion correction             ... done (  0.1 sec)
Dispersion correction           -0.005628641
FINAL SINGLE POINT ENERGY      -153.809227204153
Dispersion correction             ... done (  0.1 sec)
Dispersion correction           -0.005652640
FINAL SINGLE POINT ENERGY      -153.817801988899
Dispersion correction             ... done (  0.1 sec)
FINAL SINGLE POINT ENERGY      -153.823553606513
FINAL SINGLE POINT ENERGY      -153.824024905867
FINAL SINGLE POINT ENERGY      -153.824058121913
Dispersion correction             ... done (  0.1 sec)
Dispersion correction           -0.005658142
FINAL SINGLE POINT ENERGY      -153.824063735384
Dispersion correction             ... done (  0.1 sec)
Dispersion correction           -0.005657715
FINAL SINGLE POINT ENERGY      -153.824064144103
Dispersion correction             ... done (  0.1 sec)
                    ***********************HURRAY********************

CARTESIAN COORDINATES (ANGSTROEM)
---------------------------------
  O      0.546574    0.975999   -0.000325
  C      0.750623   -0.348867   -0.000063
  C     -0.655656   -0.578249    0.000119
  H      1.270258   -0.732699    0.887213
  H      1.269978   -0.733157   -0.887308
  H     -1.208268   -0.544443   -0.926164
  H     -1.208039   -0.544186    0.926528

 Multiplicity           Mult            ....    1
 Number of Electrons    NEL             ....   24
 Basis Dimension        Dim             ....  182

ORBITAL ENERGIES
----------------

  NO   OCC          E(Eh)            E(eV)
   0   2.0000     -19.336985      -526.1861
   1   2.0000     -10.432075      -283.8712
   2   2.0000     -10.396894      -282.9139
   3   2.0000      -1.143472       -31.1154
   4   2.0000      -0.868564       -23.6348
   5   2.0000      -0.734718       -19.9927
   6   2.0000      -0.625289       -17.0150
   7   2.0000      -0.579401       -15.7663
   8   2.0000      -0.515419       -14.0253
   9   2.0000      -0.507612       -13.8128
  10   2.0000      -0.384518       -10.4633
  11   2.0000      -0.362325        -9.8594
  12   0.0000      -0.021873        -0.5952
  13   0.0000       0.039826         1.0837
  14   0.0000       0.060863         1.6562
  15   0.0000       0.076608         2.0846
  16   0.0000       0.098136         2.6704

MULLIKEN ATOMIC CHARGES
-----------------------
   0 O :   -0.487295
   1 C :   -0.084470
   2 C :   -0.299851
   3 H :    0.217519
   4 H :    0.217554
   5 H :    0.218275
   6 H :    0.218266
Sum of atomic charges:   -0.0000000

LOEWDIN ATOMIC CHARGES
----------------------
   0 O :   -0.016615
   1 C :   -0.355379
   2 C :    0.337060
   3 H :    0.024344
   4 H :    0.024339
   5 H :   -0.006873
   6 H :   -0.006877

  Mayer bond orders larger than 0.100000
B(  0-O ,  1-C ) :   0.6735 B(  0-O ,  2-C ) :   0.9438 B(  1-C ,  2-C ) :   0.7670
B(  1-C ,  3-H ) :   1.0476 B(  1-C ,  4-H ) :   1.0476 B(  2-C ,  5-H ) :   0.9642
B(  2-C ,  6-H ) :   0.9642

Dispersion correction           -0.005657576
FINAL SINGLE POINT ENERGY      -153.824064251423

DIPOLE MOMENT
-------------

Method             : SCF
Type of density    : Electron Density
Multiplicity       :   1
Irrep              :   0
Energy             :  -153.8184066752831711 Eh
Relativity type    :
Basis              : AO
                                X                 Y                 Z
Electronic contribution:      0.213118599       1.415938312      -0.000315103
Nuclear contribution   :     -0.731740551      -2.545000744       0.000611259
                        -----------------------------------------
Total Dipole Moment    :     -0.518621952      -1.129062432       0.000296156
                        -----------------------------------------
Magnitude (a.u.)       :      1.242477683
Magnitude (Debye)      :      3.158127289

Rotational constants in cm-1:             1.067527             0.498903             0.392525
Rotational constants in MHz :         32003.647488         14956.727585         11767.595319

                             ****ORCA TERMINATED NORMALLY****
TOTAL RUN TIME: 0 days 0 hours 1 minutes 55 seconds 922 msec
