                         Program Version 6.0.0  -   RELEASE  -
|  1> ! Opt wB97M-D3BJ def2-TZVPPD
|  2> %pal nprocs 8 end %pal nprocs 64 end
|  3> %geom
|  4> Constraints
|  5>     {A 2 1 0 137.79661016949152 C }
|  6> end
|  7> MaxIter 200
|  8> end
|  9> *xyz 0 1
| 10> O   1.8120403612604474 0.5572157535829988 0.0
| 11> C   0.7509 -0.4065 0.0
| 12> C   -0.7502 -0.4076 0.0
| 13> H   1.2625 -0.6786 0.9136
| 14> H   1.2625 -0.6787 -0.9136
| 15> H   -1.2614 -0.6806 -0.9136
| 16> H   -1.2614 -0.6805 0.9136
| 17> *
| 18>
| 19>                          ****END OF INPUT****
 Total Charge           Charge          ....    0
 Multiplicity           Mult            ....    1
 Number of Electrons    NEL             ....   24
Dispersion correction           -0.005312170
FINAL SINGLE POINT ENERGY      -153.687730669310
Dispersion correction             ... done (  0.1 sec)
Dispersion correction           -0.005402891
FINAL SINGLE POINT ENERGY      -153.708357682865
Dispersion correction             ... done (  0.1 sec)
Dispersion correction           -0.005470382
FINAL SINGLE POINT ENERGY      -153.718109662411
Dispersion correction             ... done (  0.1 sec)
FINAL SINGLE POINT ENERGY      -153.725134777952
FINAL SINGLE POINT ENERGY      -153.734278649773
FINAL SINGLE POINT ENERGY      -153.747613298878
FINAL SINGLE POINT ENERGY      -153.762642477990
FINAL SINGLE POINT ENERGY      -153.784346367798
FINAL SINGLE POINT ENERGY      -153.807856389361
FINAL SINGLE POINT ENERGY      -153.845577354207
FINAL SINGLE POINT ENERGY      -153.924414909776
FINAL SINGLE POINT ENERGY      -153.924446259318
FINAL SINGLE POINT ENERGY      -153.924461897900
FINAL SINGLE POINT ENERGY      -153.924483899389
FINAL SINGLE POINT ENERGY      -153.924534706604
FINAL SINGLE POINT ENERGY      -153.924578853458
FINAL SINGLE POINT ENERGY      -153.924606057052
Dispersion correction             ... done (  0.1 sec)
Dispersion correction           -0.005505891
FINAL SINGLE POINT ENERGY      -153.924614836581
Dispersion correction             ... done (  0.1 sec)
Dispersion correction           -0.005505941
FINAL SINGLE POINT ENERGY      -153.924616190674
Dispersion correction             ... done (  0.1 sec)
                    ***********************HURRAY********************

CARTESIAN COORDINATES (ANGSTROEM)
---------------------------------
  O      1.580912    0.981131   -0.042204
  C      0.959786   -0.012040    0.212970
  C     -0.307994   -0.673252   -0.233366
  H      1.409795   -0.665637    1.000508
  H     -0.041566   -1.670095   -0.583401
  H     -0.854776   -0.137672   -1.006124
  H     -0.931218   -0.797719    0.651617

 Multiplicity           Mult            ....    1
 Number of Electrons    NEL             ....   24
 Basis Dimension        Dim             ....  182

ORBITAL ENERGIES
----------------

  NO   OCC          E(Eh)            E(eV)
   0   2.0000     -19.342610      -526.3392
   1   2.0000     -10.444986      -284.2225
   2   2.0000     -10.365232      -282.0523
   3   2.0000      -1.190215       -32.3874
   4   2.0000      -0.894642       -24.3444
   5   2.0000      -0.696982       -18.9658
   6   2.0000      -0.596446       -16.2301
   7   2.0000      -0.565893       -15.3987
   8   2.0000      -0.560547       -15.2532
   9   2.0000      -0.510553       -13.8929
  10   2.0000      -0.480625       -13.0785
  11   2.0000      -0.364032        -9.9058
  12   0.0000       0.034736         0.9452
  13   0.0000       0.057586         1.5670
  14   0.0000       0.059222         1.6115
  15   0.0000       0.081605         2.2206
  16   0.0000       0.085245         2.3196

MULLIKEN ATOMIC CHARGES
-----------------------
   0 O :   -0.470220
   1 C :    0.229791
   2 C :   -0.690737
   3 H :    0.215297
   4 H :    0.237513
   5 H :    0.240511
   6 H :    0.237845
Sum of atomic charges:    0.0000000

LOEWDIN ATOMIC CHARGES
----------------------
   0 O :    0.077394
   1 C :   -0.245440
   2 C :    0.172239
   3 H :    0.020420
   4 H :   -0.007606
   5 H :   -0.009353
   6 H :   -0.007653

  Mayer bond orders larger than 0.100000
B(  0-O ,  1-C ) :   1.7713 B(  1-C ,  2-C ) :   0.7481 B(  1-C ,  3-H ) :   1.0068
B(  2-C ,  4-H ) :   0.9883 B(  2-C ,  5-H ) :   0.9606 B(  2-C ,  6-H ) :   0.9877

Dispersion correction           -0.005505791
FINAL SINGLE POINT ENERGY      -153.924616336640

DIPOLE MOMENT
-------------

Method             : SCF
Type of density    : Electron Density
Multiplicity       :   1
Irrep              :   0
Energy             :  -153.9191105454520709 Eh
Relativity type    :
Basis              : AO
                                X                 Y                 Z
Electronic contribution:      2.425394837       2.483698257      -0.008666640
Nuclear contribution   :     -3.165171623      -3.410901343       0.131406611
                        -----------------------------------------
Total Dipole Moment    :     -0.739776786      -0.927203085       0.122739971
                        -----------------------------------------
Magnitude (a.u.)       :      1.192493335
Magnitude (Debye)      :      3.031077174

Rotational constants in cm-1:             2.322131             0.310993             0.288841
Rotational constants in MHz :         69615.723409          9323.342113          8659.248190

                             ****ORCA TERMINATED NORMALLY****
TOTAL RUN TIME: 0 days 0 hours 6 minutes 3 seconds 613 msec
