                         Program Version 6.0.0  -   RELEASE  -
|  1> ! Engrad def2-TZVPPD wB97M-D3BJ
|  2> %pal nprocs 8 end%pal nprocs 32 end
|  3> %tddft Nroots 2 Iroot 1
|  4> sf true
|  5> end
|  6> *xyz 0 3
|  7> O   0.6428721 1.39800827 -0.1451532
|  8> C   0.28733653 0.27844699 0.53851589
|  9> C   -0.06841594 -0.88562873 -0.34986369
| 10> H   0.52093878 0.27091627 1.60864672
| 11> H   0.68545853 -1.42755712 -0.89691508
| 12> H   -0.70952419 -0.55039067 -1.17495479
| 13> H   -0.53313886 -1.6657577 0.24916591
| 14> *
| 15>
| 16>                          ****END OF INPUT****

CARTESIAN COORDINATES (ANGSTROEM)
---------------------------------
  O      0.642872    1.398008   -0.145153
  C      0.287337    0.278447    0.538516
  C     -0.068416   -0.885629   -0.349864
  H      0.520939    0.270916    1.608647
  H      0.685459   -1.427557   -0.896915
  H     -0.709524   -0.550391   -1.174955
  H     -0.533139   -1.665758    0.249166

 Total Charge           Charge          ....    0
 Multiplicity           Mult            ....    3
 Number of Electrons    NEL             ....   24
 Basis Dimension        Dim             ....  182

ORBITAL ENERGIES
----------------
                 SPIN UP ORBITALS
  NO   OCC          E(Eh)            E(eV)
   0   1.0000     -19.424397      -528.5647
   1   1.0000     -10.404991      -283.1342
   2   1.0000     -10.361928      -281.9624
   3   1.0000      -1.189769       -32.3753
   4   1.0000      -0.878050       -23.8930
   5   1.0000      -0.729851       -19.8603
   6   1.0000      -0.618637       -16.8340
   7   1.0000      -0.572511       -15.5788
   8   1.0000      -0.553482       -15.0610
   9   1.0000      -0.509829       -13.8732
  10   1.0000      -0.491159       -13.3651
  11   1.0000      -0.462984       -12.5984
  12   1.0000      -0.266938        -7.2638
  13   0.0000       0.042028         1.1436
  14   0.0000       0.059176         1.6103
  15   0.0000       0.079795         2.1713
  16   0.0000       0.091188         2.4814
  17   0.0000       0.107403         2.9226

                 SPIN DOWN ORBITALS
  NO   OCC          E(Eh)            E(eV)
   0   1.0000     -19.395671      -527.7830
   1   1.0000     -10.393145      -282.8118
   2   1.0000     -10.361175      -281.9419
   3   1.0000      -1.121364       -30.5139
   4   1.0000      -0.860560       -23.4170
   5   1.0000      -0.692339       -18.8395
   6   1.0000      -0.573365       -15.6021
   7   1.0000      -0.536480       -14.5984
   8   1.0000      -0.511310       -13.9134
   9   1.0000      -0.497561       -13.5393
  10   1.0000      -0.444780       -12.1031
  11   0.0000      -0.074703        -2.0328
  12   0.0000       0.040442         1.1005
  13   0.0000       0.047138         1.2827
  14   0.0000       0.059572         1.6210
  15   0.0000       0.080435         2.1888

----------------------------------------------------------------------------------------------------
          SPIN FLIP ABSORPTION SPECTRUM VIA TRANSITION ELECTRIC DIPOLE MOMENTS
----------------------------------------------------------------------------------------------------
     Transition      Energy     Energy  Wavelength fosc(D2)      D2        DX        DY        DZ
                      (eV)      (cm-1)    (nm)                 (au**2)    (au)      (au)      (au)
----------------------------------------------------------------------------------------------------
  1-3A  ->  2-3A    3.040857   24526.2   407.7   0.000107983   0.00145  -0.00456   0.02366  -0.02947

Dispersion correction             ... done (  0.1 sec)

MULLIKEN ATOMIC CHARGES AND SPIN DENSITIES
------------------------------------------
   0 O :   -0.534620    0.021163
   1 C :    0.173933   -0.144739
   2 C :   -0.587150    0.049534
   3 H :    0.297915    0.061520
   4 H :    0.197226    0.004045
   5 H :    0.209842    0.001276
   6 H :    0.242854    0.007202
Sum of atomic charges       :   -0.0000000

LOEWDIN ATOMIC CHARGES AND SPIN DENSITIES
-----------------------------------------
   0 O :   -0.107747   -0.012943
   1 C :   -0.030530    0.011744
   2 C :    0.156061    0.001577
   3 H :    0.014966   -0.000606
   4 H :   -0.013977    0.001053
   5 H :    0.004633   -0.000384
   6 H :   -0.023406   -0.000441

  Mayer bond orders larger than 0.100000
B(  0-O ,  1-C ) :   1.7601 B(  1-C ,  2-C ) :   0.8468 B(  1-C ,  3-H ) :   0.9213
B(  2-C ,  4-H ) :   0.9544 B(  2-C ,  5-H ) :   0.9668 B(  2-C ,  6-H ) :   0.9894

Dispersion correction           -0.005425757
FINAL SINGLE POINT ENERGY      -153.877047325369

DIPOLE MOMENT
-------------

Method             : TDA/CIS
Type of density    : Electron Density
Level              : Relaxed density
State              :   1
Multiplicity       :   3
Irrep              :   0
Energy             :     0.0000000000000000 Eh
Relativity type    :
Basis              : AO
                                X                 Y                 Z
Electronic contribution:      0.775243533       2.790131323       0.642185176
Nuclear contribution   :     -1.125884649      -4.141986860      -0.179693324
                        -----------------------------------------
Total Dipole Moment    :     -0.350641116      -1.351855536       0.462491852
                        -----------------------------------------
Magnitude (a.u.)       :      1.471176841
Magnitude (Debye)      :      3.739434352

Rotational constants in cm-1:             1.533600             0.338925             0.290740
Rotational constants in MHz :         45976.173803         10160.717340          8716.159474

                             ****ORCA TERMINATED NORMALLY****
TOTAL RUN TIME: 0 days 0 hours 0 minutes 16 seconds 932 msec
