                         Program Version 6.0.0  -   RELEASE  -
|  1> ! EnGrad wB97M-D3BJ def2-TZVPPD
|  2> %pal nprocs 8 end%pal nprocs 16 end
|  3> %tddft
|  4>  sf true
|  5>  nroots 2 Iroot 2 end
|  6> *xyz 0 3
|  7> O   0.51792067856373 1.10286044776172 0.14203450963995
|  8> C   0.59287544735484 -0.22347846697835 0.00874981655398
|  9> C   -0.75251007056978 -0.7533348563272 0.00522846717151
| 10> H   1.18014546521968 -0.7304584952688 0.80412131706202
| 11> H   1.09743557759932 -0.51316473211059 -0.93074764397673
| 12> H   -1.26547811803684 -1.04627059119112 -0.90356103828583
| 13> H   -1.36818898013095 -0.55455330588567 0.87417457183511
| 14> *
| 15>
| 16>                          ****END OF INPUT****

CARTESIAN COORDINATES (ANGSTROEM)
---------------------------------
  O      0.517921    1.102860    0.142035
  C      0.592875   -0.223478    0.008750
  C     -0.752510   -0.753335    0.005228
  H      1.180145   -0.730458    0.804121
  H      1.097436   -0.513165   -0.930748
  H     -1.265478   -1.046271   -0.903561
  H     -1.368189   -0.554553    0.874175

 Total Charge           Charge          ....    0
 Multiplicity           Mult            ....    3
 Number of Electrons    NEL             ....   24
 Basis Dimension        Dim             ....  182

ORBITAL ENERGIES
----------------
                 SPIN UP ORBITALS
  NO   OCC          E(Eh)            E(eV)
   0   1.0000     -19.390880      -527.6527
   1   1.0000     -10.408762      -283.2368
   2   1.0000     -10.357401      -281.8392
   3   1.0000      -1.187108       -32.3028
   4   1.0000      -0.880031       -23.9469
   5   1.0000      -0.733642       -19.9634
   6   1.0000      -0.627933       -17.0869
   7   1.0000      -0.593363       -16.1462
   8   1.0000      -0.559880       -15.2351
   9   1.0000      -0.514056       -13.9882
  10   1.0000      -0.435974       -11.8635
  11   1.0000      -0.416644       -11.3375
  12   1.0000      -0.321504        -8.7486
  13   0.0000       0.041202         1.1212
  14   0.0000       0.062775         1.7082
  15   0.0000       0.075172         2.0455
  16   0.0000       0.087140         2.3712
  17   0.0000       0.115311         3.1378

                 SPIN DOWN ORBITALS
  NO   OCC          E(Eh)            E(eV)
   0   1.0000     -19.366431      -526.9874
   1   1.0000     -10.410131      -283.2741
   2   1.0000     -10.344315      -281.4831
   3   1.0000      -1.133368       -30.8405
   4   1.0000      -0.846408       -23.0319
   5   1.0000      -0.708176       -19.2705
   6   1.0000      -0.594003       -16.1636
   7   1.0000      -0.555686       -15.1210
   8   1.0000      -0.536337       -14.5945
   9   1.0000      -0.480961       -13.0876
  10   1.0000      -0.382811       -10.4168
  11   0.0000      -0.063118        -1.7175
  12   0.0000       0.002720         0.0740
  13   0.0000       0.040106         1.0913
  14   0.0000       0.063210         1.7200
  15   0.0000       0.074918         2.0386

----------------------------------------------------------------------------------------------------
          SPIN FLIP ABSORPTION SPECTRUM VIA TRANSITION ELECTRIC DIPOLE MOMENTS
----------------------------------------------------------------------------------------------------
     Transition      Energy     Energy  Wavelength fosc(D2)      D2        DX        DY        DZ
                      (eV)      (cm-1)    (nm)                 (au**2)    (au)      (au)      (au)
----------------------------------------------------------------------------------------------------
  1-3A  ->  2-3A    0.633517    5109.7  1957.1   0.000091478   0.00589  -0.01532   0.00677   0.07492

Dispersion correction             ... done (  0.0 sec)

MULLIKEN ATOMIC CHARGES AND SPIN DENSITIES
------------------------------------------
   0 O :   -0.341995    0.739006
   1 C :    0.039484    0.217041
   2 C :   -0.338490   -0.799374
   3 H :    0.185996   -0.009422
   4 H :    0.203292    0.033475
   5 H :    0.107895   -0.094175
   6 H :    0.143818   -0.086551
Sum of atomic charges       :    0.0000000

LOEWDIN ATOMIC CHARGES AND SPIN DENSITIES
-----------------------------------------
   0 O :    0.086149    0.682253
   1 C :   -0.312040    0.016789
   2 C :    0.267582   -0.596132
   3 H :    0.046425    0.021503
   4 H :    0.041590    0.033932
   5 H :   -0.068395   -0.084223
   6 H :   -0.061310   -0.074121

  Mayer bond orders larger than 0.100000
B(  0-O ,  1-C ) :   0.9735 B(  1-C ,  2-C ) :   0.7198 B(  1-C ,  3-H ) :   0.9284
B(  1-C ,  4-H ) :   0.9816 B(  2-C ,  5-H ) :   1.1013 B(  2-C ,  6-H ) :   1.0598

Dispersion correction           -0.005608922
FINAL SINGLE POINT ENERGY      -153.745441335276

DIPOLE MOMENT
-------------

Method             : TDA/CIS
Type of density    : Electron Density
Level              : Relaxed density
State              :   2
Multiplicity       :   3
Irrep              :   0
Energy             :     0.0000000000000000 Eh
Relativity type    :
Basis              : AO
                                X                 Y                 Z
Electronic contribution:      0.986043474       2.373821329       0.245871445
Nuclear contribution   :     -0.840390322      -2.912693077      -0.339516988
                        -----------------------------------------
Total Dipole Moment    :      0.145653153      -0.538871749      -0.093645544
                        -----------------------------------------
Magnitude (a.u.)       :      0.566009797
Magnitude (Debye)      :      1.438682570

Rotational constants in cm-1:             1.325574             0.391106             0.338367
Rotational constants in MHz :         39739.712214         11725.054096         10143.990782

                             ****ORCA TERMINATED NORMALLY****
TOTAL RUN TIME: 0 days 0 hours 0 minutes 19 seconds 332 msec
