                         Program Version 6.0.0  -   RELEASE  -
|  1> ! EnGrad wB97M-D3BJ def2-TZVPPD
|  2> %pal nprocs 8 end%pal nprocs 16 end
|  3> %tddft
|  4>  sf true
|  5>  nroots 2 Iroot 2 end
|  6> *xyz 0 3
|  7> O   0.55111419809645 1.09637843496914 0.27968614200479
|  8> C   0.58204897435333 -0.19780260622792 0.02667808230977
|  9> C   -0.75641672440651 -0.72988177209531 0.01635334439811
| 10> H   1.20776221868348 -0.84843001620565 0.69929314251209
| 11> H   1.03327225583996 -0.41975443576625 -0.96867747013544
| 12> H   -1.18036738913905 -1.27491974059793 -0.81983817161869
| 13> H   -1.43521353342767 -0.34398986407608 0.76650493052936
| 14> *
| 15>
| 16>                          ****END OF INPUT****

CARTESIAN COORDINATES (ANGSTROEM)
---------------------------------
  O      0.551114    1.096378    0.279686
  C      0.582049   -0.197803    0.026678
  C     -0.756417   -0.729882    0.016353
  H      1.207762   -0.848430    0.699293
  H      1.033272   -0.419754   -0.968677
  H     -1.180367   -1.274920   -0.819838
  H     -1.435214   -0.343990    0.766505

 Total Charge           Charge          ....    0
 Multiplicity           Mult            ....    3
 Number of Electrons    NEL             ....   24
 Basis Dimension        Dim             ....  182

ORBITAL ENERGIES
----------------
                 SPIN UP ORBITALS
  NO   OCC          E(Eh)            E(eV)
   0   1.0000     -19.389886      -527.6256
   1   1.0000     -10.411063      -283.2994
   2   1.0000     -10.357467      -281.8410
   3   1.0000      -1.191605       -32.4252
   4   1.0000      -0.882797       -24.0221
   5   1.0000      -0.732650       -19.9364
   6   1.0000      -0.621089       -16.9007
   7   1.0000      -0.603013       -16.4088
   8   1.0000      -0.563539       -15.3347
   9   1.0000      -0.510067       -13.8796
  10   1.0000      -0.438710       -11.9379
  11   1.0000      -0.414472       -11.2784
  12   1.0000      -0.316753        -8.6193
  13   0.0000       0.040964         1.1147
  14   0.0000       0.061881         1.6839
  15   0.0000       0.077251         2.1021
  16   0.0000       0.085163         2.3174
  17   0.0000       0.112598         3.0640

                 SPIN DOWN ORBITALS
  NO   OCC          E(Eh)            E(eV)
   0   1.0000     -19.366706      -526.9949
   1   1.0000     -10.412509      -283.3388
   2   1.0000     -10.344146      -281.4785
   3   1.0000      -1.140815       -31.0432
   4   1.0000      -0.849405       -23.1135
   5   1.0000      -0.705707       -19.2033
   6   1.0000      -0.592304       -16.1174
   7   1.0000      -0.556246       -15.1362
   8   1.0000      -0.537258       -14.6195
   9   1.0000      -0.485910       -13.2223
  10   1.0000      -0.382762       -10.4155
  11   0.0000      -0.064619        -1.7584
  12   0.0000       0.005126         0.1395
  13   0.0000       0.039858         1.0846
  14   0.0000       0.062009         1.6873
  15   0.0000       0.076913         2.0929

----------------------------------------------------------------------------------------------------
          SPIN FLIP ABSORPTION SPECTRUM VIA TRANSITION ELECTRIC DIPOLE MOMENTS
----------------------------------------------------------------------------------------------------
     Transition      Energy     Energy  Wavelength fosc(D2)      D2        DX        DY        DZ
                      (eV)      (cm-1)    (nm)                 (au**2)    (au)      (au)      (au)
----------------------------------------------------------------------------------------------------
  1-3A  ->  2-3A    0.613483    4948.1  2021.0   0.000145106   0.00965   0.07733   0.00357  -0.06052

Dispersion correction             ... done (  0.0 sec)

MULLIKEN ATOMIC CHARGES AND SPIN DENSITIES
------------------------------------------
   0 O :   -0.348820    0.792087
   1 C :   -0.041076    0.067553
   2 C :   -0.267399   -0.695274
   3 H :    0.196831   -0.018758
   4 H :    0.202542    0.016129
   5 H :    0.108946   -0.081384
   6 H :    0.148977   -0.080353
Sum of atomic charges       :   -0.0000000

LOEWDIN ATOMIC CHARGES AND SPIN DENSITIES
-----------------------------------------
   0 O :    0.094514    0.730878
   1 C :   -0.335466    0.000326
   2 C :    0.264172   -0.608681
   3 H :    0.062518    0.016326
   4 H :    0.044432    0.021683
   5 H :   -0.069097   -0.084861
   6 H :   -0.061074   -0.075671

  Mayer bond orders larger than 0.100000
B(  0-O ,  1-C ) :   0.9557 B(  1-C ,  2-C ) :   0.8549 B(  1-C ,  3-H ) :   0.9024
B(  1-C ,  4-H ) :   0.9660 B(  2-C ,  5-H ) :   1.0709 B(  2-C ,  6-H ) :   1.0217

Dispersion correction           -0.005612088
FINAL SINGLE POINT ENERGY      -153.743773279605

DIPOLE MOMENT
-------------

Method             : TDA/CIS
Type of density    : Electron Density
Level              : Relaxed density
State              :   2
Multiplicity       :   3
Irrep              :   0
Energy             :     0.0000000000000000 Eh
Relativity type    :
Basis              : AO
                                X                 Y                 Z
Electronic contribution:      1.055568928       2.391291163       0.537980784
Nuclear contribution   :     -0.885910717      -2.990719166      -0.697696057
                        -----------------------------------------
Total Dipole Moment    :      0.169658211      -0.599428003      -0.159715273
                        -----------------------------------------
Magnitude (a.u.)       :      0.643122700
Magnitude (Debye)      :      1.634687993

Rotational constants in cm-1:             1.391042             0.390777             0.333848
Rotational constants in MHz :         41702.382052         11715.203107         10008.506520

                             ****ORCA TERMINATED NORMALLY****
TOTAL RUN TIME: 0 days 0 hours 0 minutes 19 seconds 179 msec
