                         Program Version 6.0.0  -   RELEASE  -
|  1> ! Engrad def2-TZVPPD wB97M-D3BJ
|  2> %pal nprocs 8 end%pal nprocs 64 end
|  3> %tddft
|  4>  Iroot 1 Nroots 3
|  5> sf true
|  6> end
|  7> *xyz 0 3
|  8> O   1.21731039 0.3200136 0.85958426
|  9> C   0.07892093 0.43534721 0.15800012
| 10> C   -0.07742182 -0.63208667 -0.86192275
| 11> H   0.09124988 1.39924642 -0.30633187
| 12> H   -0.7783053 0.63781172 0.80005556
| 13> H   -0.82301368 -1.45544229 -0.9839721
| 14> H   0.74686171 -0.47976819 -1.5418575
| 15> *
| 16>
| 17>                          ****END OF INPUT****

CARTESIAN COORDINATES (ANGSTROEM)
---------------------------------
  O      1.217310    0.320014    0.859584
  C      0.078921    0.435347    0.158000
  C     -0.077422   -0.632087   -0.861923
  H      0.091250    1.399246   -0.306332
  H     -0.778305    0.637812    0.800056
  H     -0.823014   -1.455442   -0.983972
  H      0.746862   -0.479768   -1.541858

 Total Charge           Charge          ....    0
 Multiplicity           Mult            ....    3
 Number of Electrons    NEL             ....   24
 Basis Dimension        Dim             ....  182

ORBITAL ENERGIES
----------------
                 SPIN UP ORBITALS
  NO   OCC          E(Eh)            E(eV)
   0   1.0000     -19.386296      -527.5279
   1   1.0000     -10.407401      -283.1998
   2   1.0000     -10.369341      -282.1641
   3   1.0000      -1.178894       -32.0793
   4   1.0000      -0.876326       -23.8460
   5   1.0000      -0.742899       -20.2153
   6   1.0000      -0.619654       -16.8616
   7   1.0000      -0.593537       -16.1510
   8   1.0000      -0.555209       -15.1080
   9   1.0000      -0.513525       -13.9737
  10   1.0000      -0.430369       -11.7109
  11   1.0000      -0.413312       -11.2468
  12   1.0000      -0.326657        -8.8888
  13   0.0000       0.039197         1.0666
  14   0.0000       0.061040         1.6610
  15   0.0000       0.077085         2.0976
  16   0.0000       0.087352         2.3770
  17   0.0000       0.111960         3.0466

                 SPIN DOWN ORBITALS
  NO   OCC          E(Eh)            E(eV)
   0   1.0000     -19.362442      -526.8788
   1   1.0000     -10.408644      -283.2336
   2   1.0000     -10.356127      -281.8045
   3   1.0000      -1.126715       -30.6595
   4   1.0000      -0.842903       -22.9366
   5   1.0000      -0.715949       -19.4820
   6   1.0000      -0.588359       -16.0101
   7   1.0000      -0.556226       -15.1357
   8   1.0000      -0.529339       -14.4040
   9   1.0000      -0.483165       -13.1476
  10   1.0000      -0.383127       -10.4254
  11   0.0000      -0.053743        -1.4624
  12   0.0000      -0.001389        -0.0378
  13   0.0000       0.038017         1.0345
  14   0.0000       0.061288         1.6677
  15   0.0000       0.076979         2.0947

----------------------------------------------------------------------------------------------------
          SPIN FLIP ABSORPTION SPECTRUM VIA TRANSITION ELECTRIC DIPOLE MOMENTS
----------------------------------------------------------------------------------------------------
     Transition      Energy     Energy  Wavelength fosc(D2)      D2        DX        DY        DZ
                      (eV)      (cm-1)    (nm)                 (au**2)    (au)      (au)      (au)
----------------------------------------------------------------------------------------------------
  1-3A  ->  2-3A    0.179275    1446.0  6915.9   0.000310055   0.07059  -0.09071  -0.16141  -0.19056
  1-3A  ->  3-3A    0.882226    7115.6  1405.4   0.005798424   0.26827  -0.38490  -0.09037  -0.33459

Dispersion correction             ... done (  0.1 sec)

MULLIKEN ATOMIC CHARGES AND SPIN DENSITIES
------------------------------------------
   0 O :   -0.462086   -0.446105
   1 C :   -0.033782   -0.006207
   2 C :   -0.389443    0.342596
   3 H :    0.208310    0.076441
   4 H :    0.220667   -0.013791
   5 H :    0.217418    0.019686
   6 H :    0.238916    0.027380
Sum of atomic charges       :   -0.0000000

LOEWDIN ATOMIC CHARGES AND SPIN DENSITIES
-----------------------------------------
   0 O :   -0.021890   -0.449790
   1 C :   -0.331628    0.031970
   2 C :    0.367097    0.330299
   3 H :    0.005317    0.029459
   4 H :    0.032995   -0.013296
   5 H :   -0.006265    0.033742
   6 H :   -0.045627    0.037616

  Mayer bond orders larger than 0.100000
B(  0-O ,  1-C ) :   0.9214 B(  0-O ,  2-C ) :   0.3814 B(  1-C ,  2-C ) :   0.8575
B(  1-C ,  3-H ) :   1.0057 B(  1-C ,  4-H ) :   0.9010 B(  2-C ,  5-H ) :   0.9456
B(  2-C ,  6-H ) :   0.9630

Dispersion correction           -0.005530946
FINAL SINGLE POINT ENERGY      -153.748501070012

DIPOLE MOMENT
-------------

Method             : TDA/CIS
Type of density    : Electron Density
Level              : Relaxed density
State              :   1
Multiplicity       :   3
Irrep              :   0
Energy             :     0.0000000000000000 Eh
Relativity type    :
Basis              : AO
                                X                 Y                 Z
Electronic contribution:      1.225712168      -0.049657644       1.290257999
Nuclear contribution   :     -2.299369286      -0.144267853      -2.171648357
                        -----------------------------------------
Total Dipole Moment    :     -1.073657118      -0.193925497      -0.881390358
                        -----------------------------------------
Magnitude (a.u.)       :      1.402567528
Magnitude (Debye)      :      3.565043336

Rotational constants in cm-1:             1.442739             0.359131             0.316355
Rotational constants in MHz :         43252.229383         10766.465881          9484.079182

                             ****ORCA TERMINATED NORMALLY****
TOTAL RUN TIME: 0 days 0 hours 0 minutes 26 seconds 318 msec
