                         Program Version 6.0.0  -   RELEASE  -
|  1> ! Engrad def2-TZVPPD wB97M-D3BJ
|  2> %pal nprocs 8 end%pal nprocs 32 end
|  3>  %tddft nroots 2 Iroot 1
|  4> sf true
|  5> end
|  6> *xyz 0 3
|  7> O   2.84848415747658 1.26607707918683 -0.50671195925196
|  8> O   -0.48865721142152 0.50771284621002 -1.97807839371852
|  9> O   1.32542149781928 -2.86193716803256 -1.64167100066094
| 10> O   -3.03728250555473 -1.48273463737307 1.19696470944658
| 11> N   0.66672987504133 -1.95308796151866 0.33997600968978
| 12> N   -2.21425069444319 0.60371240639805 1.60418047310305
| 13> N   2.09076570626059 -0.7947465205488 -1.04284992803971
| 14> N   -1.8675300820778 -0.3968471690333 -0.43391344887161
| 15> C   1.26170615738577 0.27481170888956 0.95848702235349
| 16> C   -0.74195111153484 1.67636384615671 0.07473976512481
| 17> C   0.66612088741007 -0.89993623757425 1.22087034195318
| 18> C   -1.46849455601477 1.69107717087723 1.19765659939898
| 19> C   1.47094151568825 1.31253335379035 2.0188501357335
| 20> C   -0.00374042243914 2.87858402494113 -0.42951605473068
| 21> C   2.12048530477488 0.33432856839577 -0.23381221364757
| 22> C   -0.98302984400871 0.58677716422393 -0.8752479074895
| 23> C   1.35432952594542 -1.94339850289036 -0.85713402265186
| 24> C   -2.42408125377757 -0.5074930452901 0.81952038479661
| 25> H   0.13147254780332 -1.07765941396299 2.14190089022253
| 26> H   -1.44812873881316 2.51986116893335 1.8879176668081
| 27> H   1.35841300577368 2.31871428908117 1.63064760613713
| 28> H   0.77136713756325 1.16545254039312 2.83873955208669
| 29> H   2.48332967931613 1.23722537597802 2.41317235993748
| 30> H   -0.45103965278571 3.21861276925023 -1.36162962348958
| 31> H   -0.0542835019017 3.68732150102696 0.29629881010585
| 32> H   1.03910352188227 2.65903584060819 -0.63631798318025
| 33> H   0.12907049511003 -2.78076553202168 0.52672388576637
| 34> H   -2.68101340184216 0.59681987266387 2.49296701607545
| 35> H   2.60685154988519 -0.74050379701173 -1.90647431236762
| 36> H   -2.0085095885211 -1.18091154174707 -1.05165638063984
| 37> *
| 38>
| 39>                          ****END OF INPUT****

CARTESIAN COORDINATES (ANGSTROEM)
---------------------------------
  O      2.848484    1.266077   -0.506712
  O     -0.488657    0.507713   -1.978078
  O      1.325421   -2.861937   -1.641671
  O     -3.037283   -1.482735    1.196965
  N      0.666730   -1.953088    0.339976
  N     -2.214251    0.603712    1.604180
  N      2.090766   -0.794747   -1.042850
  N     -1.867530   -0.396847   -0.433913
  C      1.261706    0.274812    0.958487
  C     -0.741951    1.676364    0.074740
  C      0.666121   -0.899936    1.220870
  C     -1.468495    1.691077    1.197657
  C      1.470942    1.312533    2.018850
  C     -0.003740    2.878584   -0.429516
  C      2.120485    0.334329   -0.233812
  C     -0.983030    0.586777   -0.875248
  C      1.354330   -1.943399   -0.857134
  C     -2.424081   -0.507493    0.819520
  H      0.131473   -1.077659    2.141901
  H     -1.448129    2.519861    1.887918
  H      1.358413    2.318714    1.630648
  H      0.771367    1.165453    2.838740
  H      2.483330    1.237225    2.413172
  H     -0.451040    3.218613   -1.361630
  H     -0.054284    3.687322    0.296299
  H      1.039104    2.659036   -0.636318
  H      0.129070   -2.780766    0.526724
  H     -2.681013    0.596820    2.492967
  H      2.606852   -0.740504   -1.906474
  H     -2.008510   -1.180912   -1.051656

 Total Charge           Charge          ....    0
 Multiplicity           Mult            ....    3
 Number of Electrons    NEL             ....  132
 Basis Dimension        Dim             ....  882

ORBITAL ENERGIES
----------------
                 SPIN UP ORBITALS
  NO   OCC          E(Eh)            E(eV)
   0   1.0000     -19.332097      -526.0531
   1   1.0000     -19.327259      -525.9215
   2   1.0000     -19.327253      -525.9213
   3   1.0000     -19.317360      -525.6521
   4   1.0000     -14.588672      -396.9779
   5   1.0000     -14.588410      -396.9708
   6   1.0000     -14.573065      -396.5532
   7   1.0000     -14.547388      -395.8545
   8   1.0000     -10.517623      -286.1991
   9   1.0000     -10.505160      -285.8599
  10   1.0000     -10.483361      -285.2668
  11   1.0000     -10.458498      -284.5902
  12   1.0000     -10.437555      -284.0203
  13   1.0000     -10.404964      -283.1335
  14   1.0000     -10.394989      -282.8620
  15   1.0000     -10.388993      -282.6989
  16   1.0000     -10.366931      -282.0985
  17   1.0000     -10.352550      -281.7072
  18   1.0000      -1.231123       -33.5006
  19   1.0000      -1.221720       -33.2447
  20   1.0000      -1.198420       -32.6107
  21   1.0000      -1.187771       -32.3209
  22   1.0000      -1.128288       -30.7023
  23   1.0000      -1.121514       -30.5179
  24   1.0000      -1.074333       -29.2341
  25   1.0000      -1.057767       -28.7833
  26   1.0000      -0.978497       -26.6263
  27   1.0000      -0.958964       -26.0947
  28   1.0000      -0.855255       -23.2727
  29   1.0000      -0.851292       -23.1648
  30   1.0000      -0.815689       -22.1960
  31   1.0000      -0.807760       -21.9803
  32   1.0000      -0.798079       -21.7168
  33   1.0000      -0.786958       -21.4142
  34   1.0000      -0.700989       -19.0749
  35   1.0000      -0.700468       -19.0607
  36   1.0000      -0.696198       -18.9445
  37   1.0000      -0.688637       -18.7388
  38   1.0000      -0.648257       -17.6400
  39   1.0000      -0.644616       -17.5409
  40   1.0000      -0.629652       -17.1337
  41   1.0000      -0.604324       -16.4445
  42   1.0000      -0.602242       -16.3878
  43   1.0000      -0.591053       -16.0834
  44   1.0000      -0.579518       -15.7695
  45   1.0000      -0.570817       -15.5327
  46   1.0000      -0.565469       -15.3872
  47   1.0000      -0.555655       -15.1202
  48   1.0000      -0.550916       -14.9912
  49   1.0000      -0.539489       -14.6803
  50   1.0000      -0.529655       -14.4126
  51   1.0000      -0.527491       -14.3538
  52   1.0000      -0.520515       -14.1639
  53   1.0000      -0.513595       -13.9756
  54   1.0000      -0.507872       -13.8199
  55   1.0000      -0.501163       -13.6373
  56   1.0000      -0.487080       -13.2541
  57   1.0000      -0.482798       -13.1376
  58   1.0000      -0.423871       -11.5341
  59   1.0000      -0.415241       -11.2993
  60   1.0000      -0.409801       -11.1512
  61   1.0000      -0.395123       -10.7519
  62   1.0000      -0.394591       -10.7374
  63   1.0000      -0.388435       -10.5698
  64   1.0000      -0.382731       -10.4146
  65   1.0000      -0.345519        -9.4020
  66   1.0000      -0.206428        -5.6172
  67   0.0000       0.009273         0.2523
  68   0.0000       0.016657         0.4533
  69   0.0000       0.029299         0.7973
  70   0.0000       0.037412         1.0180
  71   0.0000       0.040528         1.1028

                 SPIN DOWN ORBITALS
  NO   OCC          E(Eh)            E(eV)
   0   1.0000     -19.331820      -526.0456
   1   1.0000     -19.327495      -525.9279
   2   1.0000     -19.325283      -525.8677
   3   1.0000     -19.312102      -525.5090
   4   1.0000     -14.587597      -396.9487
   5   1.0000     -14.583899      -396.8481
   6   1.0000     -14.573118      -396.5547
   7   1.0000     -14.546618      -395.8336
   8   1.0000     -10.517621      -286.1990
   9   1.0000     -10.505517      -285.8697
  10   1.0000     -10.483223      -285.2630
  11   1.0000     -10.458193      -284.5819
  12   1.0000     -10.435336      -283.9599
  13   1.0000     -10.395676      -282.8807
  14   1.0000     -10.389450      -282.7113
  15   1.0000     -10.384651      -282.5807
  16   1.0000     -10.367372      -282.1105
  17   1.0000     -10.352475      -281.7052
  18   1.0000      -1.230545       -33.4848
  19   1.0000      -1.217511       -33.1302
  20   1.0000      -1.198516       -32.6133
  21   1.0000      -1.179951       -32.1081
  22   1.0000      -1.126682       -30.6586
  23   1.0000      -1.111209       -30.2375
  24   1.0000      -1.073841       -29.2207
  25   1.0000      -1.052763       -28.6471
  26   1.0000      -0.968314       -26.3492
  27   1.0000      -0.945298       -25.7229
  28   1.0000      -0.849927       -23.1277
  29   1.0000      -0.844732       -22.9863
  30   1.0000      -0.814292       -22.1580
  31   1.0000      -0.799710       -21.7612
  32   1.0000      -0.795206       -21.6387
  33   1.0000      -0.780650       -21.2426
  34   1.0000      -0.699450       -19.0330
  35   1.0000      -0.697411       -18.9775
  36   1.0000      -0.687791       -18.7157
  37   1.0000      -0.680704       -18.5229
  38   1.0000      -0.646299       -17.5867
  39   1.0000      -0.633900       -17.2493
  40   1.0000      -0.622732       -16.9454
  41   1.0000      -0.601630       -16.3712
  42   1.0000      -0.593956       -16.1624
  43   1.0000      -0.583192       -15.8695
  44   1.0000      -0.571266       -15.5449
  45   1.0000      -0.566540       -15.4163
  46   1.0000      -0.559863       -15.2346
  47   1.0000      -0.554290       -15.0830
  48   1.0000      -0.544234       -14.8094
  49   1.0000      -0.535871       -14.5818
  50   1.0000      -0.522366       -14.2143
  51   1.0000      -0.519385       -14.1332
  52   1.0000      -0.515331       -14.0229
  53   1.0000      -0.506531       -13.7834
  54   1.0000      -0.499261       -13.5856
  55   1.0000      -0.496282       -13.5045
  56   1.0000      -0.476347       -12.9621
  57   1.0000      -0.446626       -12.1533
  58   1.0000      -0.423191       -11.5156
  59   1.0000      -0.410989       -11.1836
  60   1.0000      -0.404511       -11.0073
  61   1.0000      -0.391702       -10.6588
  62   1.0000      -0.378118       -10.2891
  63   1.0000      -0.376080       -10.2336
  64   1.0000      -0.349862        -9.5202
  65   0.0000      -0.103862        -2.8262
  66   0.0000       0.009022         0.2455
  67   0.0000       0.022499         0.6122
  68   0.0000       0.026993         0.7345
  69   0.0000       0.033869         0.9216

----------------------------------------------------------------------------------------------------
          SPIN FLIP ABSORPTION SPECTRUM VIA TRANSITION ELECTRIC DIPOLE MOMENTS
----------------------------------------------------------------------------------------------------
     Transition      Energy     Energy  Wavelength fosc(D2)      D2        DX        DY        DZ
                      (eV)      (cm-1)    (nm)                 (au**2)    (au)      (au)      (au)
----------------------------------------------------------------------------------------------------
  1-3A  ->  2-3A    3.963183   31965.2   312.8   0.000827330   0.00852   0.02300   0.07042  -0.05507

Dispersion correction             ... done (  0.1 sec)

MULLIKEN ATOMIC CHARGES AND SPIN DENSITIES
------------------------------------------
   0 O :   -0.697002    0.024972
   1 O :   -0.655109    0.001015
   2 O :   -0.651990    0.006981
   3 O :   -0.669451    0.001606
   4 N :   -0.025334    0.049030
   5 N :    0.012826    0.004269
   6 N :    0.010187    0.001424
   7 N :   -0.029199    0.000478
   8 C :    1.132293    0.293300
   9 C :    0.399116    0.014208
  10 C :   -0.366011   -0.240411
  11 C :    0.220597    0.000805
  12 C :   -1.553046   -0.016073
  13 C :   -1.513113    0.010308
  14 C :    0.250594   -0.163555
  15 C :    0.549251   -0.023215
  16 C :    0.508537    0.013505
  17 C :    0.460370   -0.001077
  18 H :    0.319351    0.018867
  19 H :    0.205865   -0.001993
  20 H :    0.263109   -0.004487
  21 H :    0.338873    0.004763
  22 H :    0.410955    0.007924
  23 H :    0.379812    0.000149
  24 H :    0.346829    0.001249
  25 H :    0.235248   -0.003208
  26 H :    0.032586   -0.001238
  27 H :    0.021219   -0.000542
  28 H :    0.024983    0.002495
  29 H :    0.037656   -0.001549
Sum of atomic charges       :    0.0000000

LOEWDIN ATOMIC CHARGES AND SPIN DENSITIES
-----------------------------------------
   0 O :    0.080916    0.022091
   1 O :    0.110642    0.000559
   2 O :    0.095136    0.005743
   3 O :    0.077023    0.001366
   4 N :    0.297354    0.022444
   5 N :    0.286385    0.004692
   6 N :    0.343295   -0.000696
   7 N :    0.336733   -0.000882
   8 C :   -0.156524   -0.040763
   9 C :   -0.169960   -0.000192
  10 C :    0.046761   -0.029171
  11 C :    0.036937    0.010502
  12 C :    0.179765   -0.004111
  13 C :    0.188954    0.000001
  14 C :   -0.403978    0.007150
  15 C :   -0.399309   -0.001438
  16 C :   -0.468377    0.000601
  17 C :   -0.493663    0.000443
  18 H :    0.039858   -0.001541
  19 H :    0.039557    0.001379
  20 H :   -0.017761   -0.000428
  21 H :   -0.003355    0.000425
  22 H :    0.009793   -0.000925
  23 H :    0.008201   -0.000008
  24 H :   -0.000913    0.000016
  25 H :   -0.025487    0.000169
  26 H :   -0.013013    0.002129
  27 H :   -0.019321    0.000296
  28 H :   -0.001919    0.000205
  29 H :   -0.003729   -0.000056

  Mayer bond orders larger than 0.100000
B(  0-O , 14-C ) :   1.3854 B(  1-O , 15-C ) :   1.4341 B(  2-O , 16-C ) :   1.5669
B(  3-O , 17-C ) :   1.5522 B(  4-N , 10-C ) :   0.8902 B(  4-N , 16-C ) :   1.0060
B(  4-N , 26-H ) :   1.1409 B(  5-N , 11-C ) :   0.9679 B(  5-N , 17-C ) :   1.0414
B(  5-N , 27-H ) :   1.1336 B(  6-N , 14-C ) :   1.0624 B(  6-N , 16-C ) :   0.9842
B(  6-N , 28-H ) :   1.0992 B(  7-N , 15-C ) :   1.0181 B(  7-N , 17-C ) :   0.9594
B(  7-N , 29-H ) :   1.0917 B(  8-C ,  9-C ) :   0.1385 B(  8-C , 10-C ) :   0.9712
B(  8-C , 12-C ) :   0.2621 B(  8-C , 14-C ) :   0.5994 B(  8-C , 15-C ) :  -0.1895
B(  8-C , 18-H ) :  -0.1311 B(  8-C , 20-H ) :  -0.1347 B(  9-C , 11-C ) :   0.9885
B(  9-C , 13-C ) :   0.5422 B(  9-C , 15-C ) :   0.6532 B(  9-C , 24-H ) :  -0.1188
B( 10-C , 12-C ) :  -0.1299 B( 10-C , 18-H ) :   1.0931 B( 11-C , 13-C ) :  -0.2567
B( 11-C , 19-H ) :   1.0985 B( 12-C , 20-H ) :   1.0360 B( 12-C , 21-H ) :   1.0420
B( 12-C , 22-H ) :   0.8013 B( 13-C , 23-H ) :   0.8302 B( 13-C , 24-H ) :   1.0609
B( 13-C , 25-H ) :   0.9690

Dispersion correction           -0.061701315
FINAL SINGLE POINT ENERGY      -908.907697305978

DIPOLE MOMENT
-------------

Method             : TDA/CIS
Type of density    : Electron Density
Level              : Relaxed density
State              :   1
Multiplicity       :   3
Irrep              :   0
Energy             :     0.0000000000000000 Eh
Relativity type    :
Basis              : AO
                                X                 Y                 Z
Electronic contribution:     -2.210467511      -9.969402629      -5.715903003
Nuclear contribution   :      1.369518774      10.857253745       7.947982530
                        -----------------------------------------
Total Dipole Moment    :     -0.840948737       0.887851116       2.232079527
                        -----------------------------------------
Magnitude (a.u.)       :      2.545123454
Magnitude (Debye)      :      6.469189706

Rotational constants in cm-1:             0.019629             0.015249             0.011887
Rotational constants in MHz :           588.466617           457.163303           356.349297

                             ****ORCA TERMINATED NORMALLY****
TOTAL RUN TIME: 0 days 0 hours 7 minutes 57 seconds 989 msec
