                         Program Version 6.0.0  -   RELEASE  -
|  1> ! Opt wB97M-D3BJ def2-TZVPPD
|  2> %pal nprocs 8 end %pal nprocs 64 end
|  3> %geom
|  4> Constraints
|  5>     {A 2 1 0 105.76271186440678 C }
|  6> end
|  7> MaxIter 200
|  8> end
|  9> *xyz 0 1
| 10> O   1.139290231878968 0.9733260570742247 0.0
| 11> C   0.7509 -0.4065 0.0
| 12> C   -0.7502 -0.4076 0.0
| 13> H   1.2625 -0.6786 0.9136
| 14> H   1.2625 -0.6787 -0.9136
| 15> H   -1.2614 -0.6806 -0.9136
| 16> H   -1.2614 -0.6805 0.9136
| 17> *
| 18>
| 19>                          ****END OF INPUT****
 Total Charge           Charge          ....    0
 Multiplicity           Mult            ....    1
 Number of Electrons    NEL             ....   24
Dispersion correction           -0.005470941
FINAL SINGLE POINT ENERGY      -153.737993342084
Dispersion correction             ... done (  0.1 sec)
Dispersion correction           -0.005544901
FINAL SINGLE POINT ENERGY      -153.758322243222
Dispersion correction             ... done (  0.1 sec)
Dispersion correction           -0.005600955
FINAL SINGLE POINT ENERGY      -153.770091309228
Dispersion correction             ... done (  0.1 sec)
FINAL SINGLE POINT ENERGY      -153.779709145654
FINAL SINGLE POINT ENERGY      -153.782457646658
FINAL SINGLE POINT ENERGY      -153.782597912725
FINAL SINGLE POINT ENERGY      -153.782607093247
FINAL SINGLE POINT ENERGY      -153.782608947741
FINAL SINGLE POINT ENERGY      -153.782609684392
Dispersion correction             ... done (  0.1 sec)
Dispersion correction           -0.005619352
FINAL SINGLE POINT ENERGY      -153.782610578860
Dispersion correction             ... done (  0.1 sec)
Dispersion correction           -0.005619600
FINAL SINGLE POINT ENERGY      -153.782610845132
Dispersion correction             ... done (  0.1 sec)
                    ***********************HURRAY********************

CARTESIAN COORDINATES (ANGSTROEM)
---------------------------------
  O      0.891688    1.012628    0.000120
  C      0.781915   -0.323215   -0.000132
  C     -0.638110   -0.600911    0.000033
  H      1.256670   -0.789441    0.878680
  H      1.256678   -0.788923   -0.879165
  H     -1.203746   -0.535565   -0.921535
  H     -1.202904   -0.533746    0.921999

 Multiplicity           Mult            ....    1
 Number of Electrons    NEL             ....   24
 Basis Dimension        Dim             ....  182

ORBITAL ENERGIES
----------------

  NO   OCC          E(Eh)            E(eV)
   0   2.0000     -19.324427      -525.8444
   1   2.0000     -10.453547      -284.4555
   2   2.0000     -10.397320      -282.9255
   3   2.0000      -1.119631       -30.4667
   4   2.0000      -0.889832       -24.2136
   5   2.0000      -0.733879       -19.9699
   6   2.0000      -0.625440       -17.0191
   7   2.0000      -0.571141       -15.5415
   8   2.0000      -0.517043       -14.0694
   9   2.0000      -0.513170       -13.9641
  10   2.0000      -0.361067        -9.8251
  11   2.0000      -0.349011        -9.4971
  12   0.0000      -0.074971        -2.0401
  13   0.0000       0.034401         0.9361
  14   0.0000       0.061377         1.6702
  15   0.0000       0.076026         2.0688
  16   0.0000       0.098917         2.6917

MULLIKEN ATOMIC CHARGES
-----------------------
   0 O :   -0.514886
   1 C :   -0.129539
   2 C :   -0.201001
   3 H :    0.207245
   4 H :    0.207346
   5 H :    0.215278
   6 H :    0.215557
Sum of atomic charges:    0.0000000

LOEWDIN ATOMIC CHARGES
----------------------
   0 O :   -0.023358
   1 C :   -0.416155
   2 C :    0.414836
   3 H :    0.020588
   4 H :    0.020578
   5 H :   -0.008232
   6 H :   -0.008257

  Mayer bond orders larger than 0.100000
B(  0-O ,  1-C ) :   0.7834 B(  0-O ,  2-C ) :   0.8474 B(  1-C ,  2-C ) :   0.7972
B(  1-C ,  3-H ) :   1.0408 B(  1-C ,  4-H ) :   1.0408 B(  2-C ,  5-H ) :   0.9697
B(  2-C ,  6-H ) :   0.9696

Dispersion correction           -0.005619719
FINAL SINGLE POINT ENERGY      -153.782610933637

DIPOLE MOMENT
-------------

Method             : SCF
Type of density    : Electron Density
Multiplicity       :   1
Irrep              :   0
Energy             :  -153.7769912151264862 Eh
Relativity type    :
Basis              : AO
                                X                 Y                 Z
Electronic contribution:      0.354884350       1.375270821      -0.000202604
Nuclear contribution   :     -1.263689512      -2.677042967      -0.000079110
                        -----------------------------------------
Total Dipole Moment    :     -0.908805162      -1.301772146      -0.000281714
                        -----------------------------------------
Magnitude (a.u.)       :      1.587620113
Magnitude (Debye)      :      4.035409627

Rotational constants in cm-1:             1.271268             0.399961             0.344961
Rotational constants in MHz :         38111.645851         11990.514672         10341.677983

                             ****ORCA TERMINATED NORMALLY****
TOTAL RUN TIME: 0 days 0 hours 2 minutes 38 seconds 269 msec
