                         Program Version 6.0.0  -   RELEASE  -
|  1> ! Engrad def2-TZVPPD wB97M-D3BJ
|  2> %pal nprocs 8 end%pal nprocs 64 end
|  3> %tddft Nroots 2 Iroot 2
|  4> sf true
|  5> end
|  6> *xyz 0 3
|  7> O   2.82887498 1.09023097 -0.71480004
|  8> O   -0.40406348 0.80876097 -2.04389733
|  9> O   0.64509767 -2.8184969 -1.49494842
| 10> O   -2.66370227 -1.71532099 0.9761819
| 11> N   0.70052774 -2.01121251 0.62770829
| 12> N   -2.41735602 0.52124478 1.375747
| 13> N   1.85784598 -0.9480678 -1.04722556
| 14> N   -1.61950667 -0.4035124 -0.57734053
| 15> C   1.68696261 0.13933255 1.09861049
| 16> C   -1.02490796 1.86003837 -0.00763353
| 17> C   0.93588372 -0.99933717 1.49727354
| 18> C   -1.79967547 1.70881466 1.07260432
| 19> C   1.9642711 1.24536765 2.0291484
| 20> C   -0.30007209 3.12296083 -0.36110361
| 21> C   2.16563555 0.16467902 -0.24027425
| 22> C   -0.95892901 0.75794413 -0.97191519
| 23> C   1.03796669 -1.98824632 -0.70339071
| 24> C   -2.26773236 -0.62388924 0.6237507
| 25> H   0.55580662 -1.07465185 2.48764428
| 26> H   -1.95448329 2.48454925 1.79802398
| 27> H   1.54311708 2.17186805 1.63382684
| 28> H   1.56440628 1.07080275 3.02622308
| 29> H   3.03602743 1.41947868 2.10182513
| 30> H   -0.68549665 3.54246611 -1.30090753
| 31> H   -0.4122933 3.88437944 0.42221962
| 32> H   0.77927088 2.91544165 -0.48855895
| 33> H   0.04930727 -2.73820368 0.87938221
| 34> H   -2.92816547 0.41670712 2.23318114
| 35> H   2.07182202 -0.87342003 -2.03590879
| 36> H   -1.5430163 -1.19215742 -1.20472833
| 37> *
| 38>
| 39>                          ****END OF INPUT****

CARTESIAN COORDINATES (ANGSTROEM)
---------------------------------
  O      2.828875    1.090231   -0.714800
  O     -0.404063    0.808761   -2.043897
  O      0.645098   -2.818497   -1.494948
  O     -2.663702   -1.715321    0.976182
  N      0.700528   -2.011213    0.627708
  N     -2.417356    0.521245    1.375747
  N      1.857846   -0.948068   -1.047226
  N     -1.619507   -0.403512   -0.577341
  C      1.686963    0.139333    1.098610
  C     -1.024908    1.860038   -0.007634
  C      0.935884   -0.999337    1.497274
  C     -1.799675    1.708815    1.072604
  C      1.964271    1.245368    2.029148
  C     -0.300072    3.122961   -0.361104
  C      2.165636    0.164679   -0.240274
  C     -0.958929    0.757944   -0.971915
  C      1.037967   -1.988246   -0.703391
  C     -2.267732   -0.623889    0.623751
  H      0.555807   -1.074652    2.487644
  H     -1.954483    2.484549    1.798024
  H      1.543117    2.171868    1.633827
  H      1.564406    1.070803    3.026223
  H      3.036027    1.419479    2.101825
  H     -0.685497    3.542466   -1.300908
  H     -0.412293    3.884379    0.422220
  H      0.779271    2.915442   -0.488559
  H      0.049307   -2.738204    0.879382
  H     -2.928165    0.416707    2.233181
  H      2.071822   -0.873420   -2.035909
  H     -1.543016   -1.192157   -1.204728

 Total Charge           Charge          ....    0
 Multiplicity           Mult            ....    3
 Number of Electrons    NEL             ....  132
 Basis Dimension        Dim             ....  882

ORBITAL ENERGIES
----------------
                 SPIN UP ORBITALS
  NO   OCC          E(Eh)            E(eV)
   0   1.0000     -19.329855      -525.9921
   1   1.0000     -19.325154      -525.8642
   2   1.0000     -19.322484      -525.7915
   3   1.0000     -19.320511      -525.7378
   4   1.0000     -14.586150      -396.9093
   5   1.0000     -14.585234      -396.8844
   6   1.0000     -14.569780      -396.4639
   7   1.0000     -14.546964      -395.8430
   8   1.0000     -10.516289      -286.1628
   9   1.0000     -10.503038      -285.8022
  10   1.0000     -10.478014      -285.1212
  11   1.0000     -10.456551      -284.5372
  12   1.0000     -10.433712      -283.9157
  13   1.0000     -10.410376      -283.2807
  14   1.0000     -10.398424      -282.9555
  15   1.0000     -10.382220      -282.5146
  16   1.0000     -10.369247      -282.1616
  17   1.0000     -10.358426      -281.8671
  18   1.0000      -1.227487       -33.4016
  19   1.0000      -1.220635       -33.2152
  20   1.0000      -1.195271       -32.5250
  21   1.0000      -1.179782       -32.1035
  22   1.0000      -1.125335       -30.6219
  23   1.0000      -1.121269       -30.5113
  24   1.0000      -1.070224       -29.1223
  25   1.0000      -1.056007       -28.7354
  26   1.0000      -0.968523       -26.3548
  27   1.0000      -0.956532       -26.0286
  28   1.0000      -0.855625       -23.2827
  29   1.0000      -0.847944       -23.0737
  30   1.0000      -0.814582       -22.1659
  31   1.0000      -0.810745       -22.0615
  32   1.0000      -0.794553       -21.6209
  33   1.0000      -0.781103       -21.2549
  34   1.0000      -0.696484       -18.9523
  35   1.0000      -0.694107       -18.8876
  36   1.0000      -0.691907       -18.8277
  37   1.0000      -0.690559       -18.7911
  38   1.0000      -0.645152       -17.5555
  39   1.0000      -0.636544       -17.3213
  40   1.0000      -0.628734       -17.1087
  41   1.0000      -0.602399       -16.3921
  42   1.0000      -0.598658       -16.2903
  43   1.0000      -0.589512       -16.0414
  44   1.0000      -0.573289       -15.6000
  45   1.0000      -0.568911       -15.4809
  46   1.0000      -0.564323       -15.3560
  47   1.0000      -0.551733       -15.0134
  48   1.0000      -0.550158       -14.9705
  49   1.0000      -0.545543       -14.8450
  50   1.0000      -0.533788       -14.5251
  51   1.0000      -0.524580       -14.2746
  52   1.0000      -0.516428       -14.0527
  53   1.0000      -0.515004       -14.0140
  54   1.0000      -0.506664       -13.7870
  55   1.0000      -0.497057       -13.5256
  56   1.0000      -0.488791       -13.3007
  57   1.0000      -0.480505       -13.0752
  58   1.0000      -0.421258       -11.4630
  59   1.0000      -0.416623       -11.3369
  60   1.0000      -0.406204       -11.0534
  61   1.0000      -0.397127       -10.8064
  62   1.0000      -0.387003       -10.5309
  63   1.0000      -0.384312       -10.4576
  64   1.0000      -0.377884       -10.2827
  65   1.0000      -0.347469        -9.4551
  66   1.0000      -0.221023        -6.0143
  67   0.0000       0.010811         0.2942
  68   0.0000       0.020231         0.5505
  69   0.0000       0.033085         0.9003
  70   0.0000       0.036769         1.0005
  71   0.0000       0.044146         1.2013

                 SPIN DOWN ORBITALS
  NO   OCC          E(Eh)            E(eV)
   0   1.0000     -19.329832      -525.9915
   1   1.0000     -19.323285      -525.8133
   2   1.0000     -19.322515      -525.7924
   3   1.0000     -19.313295      -525.5415
   4   1.0000     -14.585065      -396.8798
   5   1.0000     -14.581417      -396.7805
   6   1.0000     -14.569794      -396.4643
   7   1.0000     -14.546057      -395.8183
   8   1.0000     -10.516296      -286.1630
   9   1.0000     -10.503327      -285.8100
  10   1.0000     -10.477998      -285.1208
  11   1.0000     -10.456606      -284.5387
  12   1.0000     -10.433520      -283.9105
  13   1.0000     -10.400966      -283.0247
  14   1.0000     -10.388075      -282.6739
  15   1.0000     -10.382243      -282.5152
  16   1.0000     -10.369703      -282.1740
  17   1.0000     -10.358410      -281.8667
  18   1.0000      -1.227224       -33.3945
  19   1.0000      -1.216510       -33.1029
  20   1.0000      -1.195260       -32.5247
  21   1.0000      -1.169219       -31.8161
  22   1.0000      -1.125111       -30.6158
  23   1.0000      -1.110720       -30.2242
  24   1.0000      -1.070131       -29.1197
  25   1.0000      -1.050591       -28.5880
  26   1.0000      -0.957267       -26.0486
  27   1.0000      -0.945823       -25.7372
  28   1.0000      -0.847858       -23.0714
  29   1.0000      -0.843304       -22.9475
  30   1.0000      -0.810724       -22.0609
  31   1.0000      -0.802251       -21.8304
  32   1.0000      -0.794236       -21.6123
  33   1.0000      -0.774808       -21.0836
  34   1.0000      -0.696229       -18.9454
  35   1.0000      -0.692330       -18.8392
  36   1.0000      -0.685550       -18.6548
  37   1.0000      -0.679395       -18.4873
  38   1.0000      -0.644429       -17.5358
  39   1.0000      -0.628336       -17.0979
  40   1.0000      -0.622363       -16.9354
  41   1.0000      -0.598574       -16.2880
  42   1.0000      -0.590947       -16.0805
  43   1.0000      -0.580834       -15.8053
  44   1.0000      -0.568922       -15.4811
  45   1.0000      -0.559627       -15.2282
  46   1.0000      -0.557917       -15.1817
  47   1.0000      -0.550874       -14.9900
  48   1.0000      -0.542953       -14.7745
  49   1.0000      -0.538516       -14.6538
  50   1.0000      -0.527022       -14.3410
  51   1.0000      -0.517898       -14.0927
  52   1.0000      -0.515175       -14.0186
  53   1.0000      -0.500623       -13.6227
  54   1.0000      -0.498135       -13.5549
  55   1.0000      -0.493681       -13.4338
  56   1.0000      -0.479569       -13.0497
  57   1.0000      -0.445852       -12.1322
  58   1.0000      -0.420945       -11.4545
  59   1.0000      -0.410906       -11.1813
  60   1.0000      -0.402488       -10.9523
  61   1.0000      -0.387761       -10.5515
  62   1.0000      -0.375881       -10.2282
  63   1.0000      -0.372837       -10.1454
  64   1.0000      -0.347782        -9.4636
  65   0.0000      -0.096569        -2.6278
  66   0.0000       0.010066         0.2739
  67   0.0000       0.020719         0.5638
  68   0.0000       0.029527         0.8035
  69   0.0000       0.035705         0.9716

----------------------------------------------------------------------------------------------------
          SPIN FLIP ABSORPTION SPECTRUM VIA TRANSITION ELECTRIC DIPOLE MOMENTS
----------------------------------------------------------------------------------------------------
     Transition      Energy     Energy  Wavelength fosc(D2)      D2        DX        DY        DZ
                      (eV)      (cm-1)    (nm)                 (au**2)    (au)      (au)      (au)
----------------------------------------------------------------------------------------------------
  1-3A  ->  2-3A    3.590143   28956.5   345.3   0.001197873   0.01362  -0.05639  -0.06024   0.08252

Dispersion correction             ... done (  0.1 sec)

MULLIKEN ATOMIC CHARGES AND SPIN DENSITIES
------------------------------------------
   0 O :   -0.700146    0.013353
   1 O :   -0.652319   -0.000357
   2 O :   -0.629520    0.000377
   3 O :   -0.659421    0.000930
   4 N :   -0.000842    0.016022
   5 N :   -0.031688   -0.005503
   6 N :   -0.023661   -0.008965
   7 N :    0.009234   -0.003052
   8 C :    1.139566    0.044415
   9 C :    0.429566    0.003819
  10 C :   -0.337885    0.094398
  11 C :    0.143756   -0.005352
  12 C :   -1.218223   -0.029684
  13 C :   -1.378711    0.002285
  14 C :    0.217536   -0.127329
  15 C :    0.638556   -0.003011
  16 C :    0.450560    0.005035
  17 C :    0.427243   -0.002258
  18 H :    0.129610   -0.015591
  19 H :    0.146164    0.003800
  20 H :    0.196480    0.012502
  21 H :    0.327341   -0.000426
  22 H :    0.331907    0.005623
  23 H :    0.354491   -0.000068
  24 H :    0.321589   -0.000019
  25 H :    0.206578   -0.000540
  26 H :    0.072770   -0.000061
  27 H :    0.020043   -0.000193
  28 H :    0.041850    0.001224
  29 H :    0.027575   -0.001376
Sum of atomic charges       :   -0.0000000

LOEWDIN ATOMIC CHARGES AND SPIN DENSITIES
-----------------------------------------
   0 O :    0.063389    0.010449
   1 O :    0.105895   -0.000161
   2 O :    0.100648   -0.000288
   3 O :    0.075293   -0.000086
   4 N :    0.290199    0.015616
   5 N :    0.274841   -0.001625
   6 N :    0.315808   -0.006313
   7 N :    0.339899   -0.000364
   8 C :   -0.085792    0.005138
   9 C :   -0.140102    0.000030
  10 C :    0.040379   -0.008868
  11 C :    0.057736   -0.000565
  12 C :    0.200817    0.001296
  13 C :    0.168407    0.000059
  14 C :   -0.422874   -0.007376
  15 C :   -0.400527   -0.000031
  16 C :   -0.491437   -0.002708
  17 C :   -0.478022   -0.000320
  18 H :   -0.015402   -0.005834
  19 H :    0.032351   -0.000115
  20 H :   -0.003171    0.000832
  21 H :   -0.000532   -0.000399
  22 H :    0.015480    0.000742
  23 H :    0.007539    0.000027
  24 H :   -0.001919   -0.000029
  25 H :   -0.004841    0.000014
  26 H :   -0.007182    0.001689
  27 H :   -0.021992   -0.000101
  28 H :   -0.002227   -0.000678
  29 H :   -0.012664   -0.000029

  Mayer bond orders larger than 0.100000
B(  0-O , 14-C ) :   1.2369 B(  1-O , 15-C ) :   1.4246 B(  2-O , 16-C ) :   1.5615
B(  3-O , 17-C ) :   1.5449 B(  4-N , 10-C ) :   0.9006 B(  4-N , 16-C ) :   0.9325
B(  4-N , 26-H ) :   1.0959 B(  5-N , 11-C ) :   0.9734 B(  5-N , 17-C ) :   1.0421
B(  5-N , 27-H ) :   1.1356 B(  6-N , 14-C ) :   0.9123 B(  6-N , 16-C ) :   0.9427
B(  6-N , 28-H ) :   1.0940 B(  7-N , 15-C ) :   0.9837 B(  7-N , 17-C ) :   0.9394
B(  7-N , 29-H ) :   1.1206 B(  8-C , 10-C ) :   0.4835 B(  8-C , 12-C ) :   0.4303
B(  8-C , 14-C ) :   0.9060 B(  8-C , 18-H ) :  -0.1277 B(  8-C , 21-H ) :  -0.1000
B(  9-C , 11-C ) :   1.1997 B(  9-C , 13-C ) :   0.3508 B(  9-C , 15-C ) :   0.8704
B(  9-C , 24-H ) :  -0.1055 B(  9-C , 25-H ) :  -0.1137 B( 10-C , 14-C ) :  -0.1102
B( 10-C , 18-H ) :   1.1802 B( 11-C , 13-C ) :  -0.1708 B( 11-C , 19-H ) :   1.0899
B( 12-C , 20-H ) :   0.9990 B( 12-C , 21-H ) :   0.9807 B( 12-C , 22-H ) :   0.8924
B( 13-C , 23-H ) :   0.9108 B( 13-C , 24-H ) :   1.0443 B( 13-C , 25-H ) :   1.0095

Dispersion correction           -0.057668783
FINAL SINGLE POINT ENERGY      -908.784531163928

DIPOLE MOMENT
-------------

Method             : TDA/CIS
Type of density    : Electron Density
Level              : Relaxed density
State              :   2
Multiplicity       :   3
Irrep              :   0
Energy             :     0.0000000000000000 Eh
Relativity type    :
Basis              : AO
                                X                 Y                 Z
Electronic contribution:     -2.605349375     -10.343366305      -5.892630139
Nuclear contribution   :      1.713322623      11.459316926       8.421268354
                        -----------------------------------------
Total Dipole Moment    :     -0.892026752       1.115950621       2.528638215
                        -----------------------------------------
Magnitude (a.u.)       :      2.904318980
Magnitude (Debye)      :      7.382192174

Rotational constants in cm-1:             0.017834             0.015404             0.012112
Rotational constants in MHz :           534.644693           461.811438           363.094437

                             ****ORCA TERMINATED NORMALLY****
TOTAL RUN TIME: 0 days 0 hours 5 minutes 5 seconds 127 msec
