                         Program Version 6.0.0  -   RELEASE  -
|  1> ! Engrad def2-TZVPPD wB97M-D3BJ
|  2> %pal nprocs 8 end%pal nprocs 32 end
|  3> %tddft Nroots 2 Iroot 2
|  4> sf true
|  5> end
|  6> *xyz 0 3
|  7> O   0.96927518 0.78423805 -0.33075483
|  8> C   0.23363343 0.13130615 0.594485
|  9> C   -0.83487325 -0.73685855 0.05581971
| 10> H   -0.25235971 0.82597737 1.31981003
| 11> H   0.7868181 -0.46511718 1.25659056
| 12> H   -1.18098326 -1.67608296 0.46804137
| 13> H   -1.28073112 -0.50317191 -0.94473482
| 14> *
| 15>
| 16>                          ****END OF INPUT****

CARTESIAN COORDINATES (ANGSTROEM)
---------------------------------
  O      0.969275    0.784238   -0.330755
  C      0.233633    0.131306    0.594485
  C     -0.834873   -0.736859    0.055820
  H     -0.252360    0.825977    1.319810
  H      0.786818   -0.465117    1.256591
  H     -1.180983   -1.676083    0.468041
  H     -1.280731   -0.503172   -0.944735

 Total Charge           Charge          ....    0
 Multiplicity           Mult            ....    3
 Number of Electrons    NEL             ....   24
 Basis Dimension        Dim             ....  182

ORBITAL ENERGIES
----------------
                 SPIN UP ORBITALS
  NO   OCC          E(Eh)            E(eV)
   0   1.0000     -19.394232      -527.7439
   1   1.0000     -10.410642      -283.2880
   2   1.0000     -10.365448      -282.0582
   3   1.0000      -1.178368       -32.0650
   4   1.0000      -0.881230       -23.9795
   5   1.0000      -0.738217       -20.0879
   6   1.0000      -0.614658       -16.7257
   7   1.0000      -0.598298       -16.2805
   8   1.0000      -0.561852       -15.2888
   9   1.0000      -0.502687       -13.6788
  10   1.0000      -0.450345       -12.2545
  11   1.0000      -0.417816       -11.3693
  12   1.0000      -0.315782        -8.5929
  13   0.0000       0.040230         1.0947
  14   0.0000       0.060031         1.6335
  15   0.0000       0.080218         2.1829
  16   0.0000       0.084683         2.3043
  17   0.0000       0.109100         2.9688

                 SPIN DOWN ORBITALS
  NO   OCC          E(Eh)            E(eV)
   0   1.0000     -19.371118      -527.1149
   1   1.0000     -10.412037      -283.3259
   2   1.0000     -10.352090      -281.6947
   3   1.0000      -1.126081       -30.6422
   4   1.0000      -0.849896       -23.1268
   5   1.0000      -0.710311       -19.3285
   6   1.0000      -0.586331       -15.9549
   7   1.0000      -0.550944       -14.9920
   8   1.0000      -0.537531       -14.6270
   9   1.0000      -0.485388       -13.2081
  10   1.0000      -0.388582       -10.5739
  11   0.0000      -0.061729        -1.6797
  12   0.0000       0.005973         0.1625
  13   0.0000       0.039375         1.0715
  14   0.0000       0.059993         1.6325
  15   0.0000       0.080248         2.1836

----------------------------------------------------------------------------------------------------
          SPIN FLIP ABSORPTION SPECTRUM VIA TRANSITION ELECTRIC DIPOLE MOMENTS
----------------------------------------------------------------------------------------------------
     Transition      Energy     Energy  Wavelength fosc(D2)      D2        DX        DY        DZ
                      (eV)      (cm-1)    (nm)                 (au**2)    (au)      (au)      (au)
----------------------------------------------------------------------------------------------------
  1-3A  ->  2-3A    0.355464    2867.0  3488.0   0.000662950   0.07612   0.16511   0.21900   0.03006

Dispersion correction             ... done (  0.1 sec)

MULLIKEN ATOMIC CHARGES AND SPIN DENSITIES
------------------------------------------
   0 O :   -0.333652    0.534010
   1 C :   -0.073940    0.024799
   2 C :   -0.328502   -0.417510
   3 H :    0.197531   -0.004261
   4 H :    0.213658   -0.048500
   5 H :    0.164897   -0.041376
   6 H :    0.160009   -0.047162
Sum of atomic charges       :    0.0000000

LOEWDIN ATOMIC CHARGES AND SPIN DENSITIES
-----------------------------------------
   0 O :    0.086138    0.498343
   1 C :   -0.289765   -0.030154
   2 C :    0.282215   -0.356694
   3 H :    0.051657    0.012408
   4 H :   -0.021214   -0.024741
   5 H :   -0.071601   -0.051643
   6 H :   -0.037429   -0.047520

  Mayer bond orders larger than 0.100000
B(  0-O ,  1-C ) :   0.8795 B(  0-O ,  2-C ) :   0.1133 B(  1-C ,  2-C ) :   0.8762
B(  1-C ,  3-H ) :   0.9245 B(  1-C ,  4-H ) :   0.9825 B(  2-C ,  5-H ) :   1.0184
B(  2-C ,  6-H ) :   1.0031

Dispersion correction           -0.005512318
FINAL SINGLE POINT ENERGY      -153.746035153757

DIPOLE MOMENT
-------------

Method             : TDA/CIS
Type of density    : Electron Density
Level              : Relaxed density
State              :   2
Multiplicity       :   3
Irrep              :   0
Energy             :     0.0000000000000000 Eh
Relativity type    :
Basis              : AO
                                X                 Y                 Z
Electronic contribution:      1.944181429       1.672347686      -0.990875739
Nuclear contribution   :     -2.336259371      -1.988639715       1.568561630
                        -----------------------------------------
Total Dipole Moment    :     -0.392077942      -0.316292029       0.577685890
                        -----------------------------------------
Magnitude (a.u.)       :      0.766476841
Magnitude (Debye)      :      1.948229302

Rotational constants in cm-1:             1.512003             0.352473             0.304184
Rotational constants in MHz :         45328.719966         10566.860050          9119.208261

                             ****ORCA TERMINATED NORMALLY****
TOTAL RUN TIME: 0 days 0 hours 0 minutes 17 seconds 453 msec
