                         Program Version 6.0.0  -   RELEASE  -
|  1> ! Engrad def2-TZVPPD wB97M-D3BJ
|  2> %pal nprocs 8 end%pal nprocs 64 end
|  3>  %tddft nroots 2 Iroot 2
|  4> sf true
|  5> end
|  6> *xyz 0 3
|  7> O   2.52896902172922 1.20445469101394 -0.48926007499864
|  8> O   -0.64431791043253 0.83958772073713 -2.29167050394663
|  9> O   0.55262488048401 -2.74049468363431 -1.55763855528608
| 10> O   -2.42115829780018 -1.60697914880547 1.09991537876027
| 11> N   0.66408918540917 -2.13957311774477 0.63502065949345
| 12> N   -2.01731064649215 0.60779942668566 1.43878171233501
| 13> N   1.65899167654224 -0.83007056231605 -0.9797831628494
| 14> N   -1.60333355003349 -0.33883096035582 -0.6137321417722
| 15> C   1.53892398680629 -0.01894103386665 1.28418507882171
| 16> C   -0.93969515101448 1.94802809024345 -0.21163562191368
| 17> C   0.91457237047389 -1.1673973169989 1.57425723995716
| 18> C   -1.46179821707931 1.79407798211688 1.00972996517538
| 19> C   1.81816392299367 1.05637064578928 2.28288441652479
| 20> C   -0.28304748344292 3.20085803812594 -0.69289689606123
| 21> C   1.9659308312673 0.20392239463826 -0.097509387644
| 22> C   -1.03173230012357 0.82268842917071 -1.14498454862222
| 23> C   0.93254315352904 -1.96824116796617 -0.70569571126271
| 24> C   -2.0475867306131 -0.53382822951449 0.67248053984069
| 25> H   0.56096276779027 -1.39490998844297 2.56856550543381
| 26> H   -1.45591068682676 2.58821172315103 1.7408292492437
| 27> H   1.36891065329702 1.99531412887581 1.96277915815618
| 28> H   1.42407848894113 0.78890831663651 3.26095336075899
| 29> H   2.88789671919839 1.23539898509855 2.37262745019916
| 30> H   -0.76815984881418 3.56586625246227 -1.59571065755708
| 31> H   -0.32399942775371 3.97524643945824 0.0698580660828
| 32> H   0.75863073141465 3.00269542329503 -0.93897907528086
| 33> H   0.02851616021651 -2.88914415867745 0.8487144572881
| 34> H   -2.34999433329072 0.50355416124393 2.37982518975416
| 35> H   1.81695413074823 -0.64192226841024 -1.95823721758489
| 36> H   -1.62011409712398 -1.14765021200934 -1.21907387304577
| 37> *
| 38>
| 39>                          ****END OF INPUT****

CARTESIAN COORDINATES (ANGSTROEM)
---------------------------------
  O      2.528969    1.204455   -0.489260
  O     -0.644318    0.839588   -2.291671
  O      0.552625   -2.740495   -1.557639
  O     -2.421158   -1.606979    1.099915
  N      0.664089   -2.139573    0.635021
  N     -2.017311    0.607799    1.438782
  N      1.658992   -0.830071   -0.979783
  N     -1.603334   -0.338831   -0.613732
  C      1.538924   -0.018941    1.284185
  C     -0.939695    1.948028   -0.211636
  C      0.914572   -1.167397    1.574257
  C     -1.461798    1.794078    1.009730
  C      1.818164    1.056371    2.282884
  C     -0.283047    3.200858   -0.692897
  C      1.965931    0.203922   -0.097509
  C     -1.031732    0.822688   -1.144985
  C      0.932543   -1.968241   -0.705696
  C     -2.047587   -0.533828    0.672481
  H      0.560963   -1.394910    2.568566
  H     -1.455911    2.588212    1.740829
  H      1.368911    1.995314    1.962779
  H      1.424078    0.788908    3.260953
  H      2.887897    1.235399    2.372627
  H     -0.768160    3.565866   -1.595711
  H     -0.323999    3.975246    0.069858
  H      0.758631    3.002695   -0.938979
  H      0.028516   -2.889144    0.848714
  H     -2.349994    0.503554    2.379825
  H      1.816954   -0.641922   -1.958237
  H     -1.620114   -1.147650   -1.219074

 Total Charge           Charge          ....    0
 Multiplicity           Mult            ....    3
 Number of Electrons    NEL             ....  132
 Basis Dimension        Dim             ....  882

ORBITAL ENERGIES
----------------
                 SPIN UP ORBITALS
  NO   OCC          E(Eh)            E(eV)
   0   1.0000     -19.331928      -526.0485
   1   1.0000     -19.327712      -525.9338
   2   1.0000     -19.322904      -525.8029
   3   1.0000     -19.317951      -525.6682
   4   1.0000     -14.592167      -397.0730
   5   1.0000     -14.584181      -396.8557
   6   1.0000     -14.570698      -396.4889
   7   1.0000     -14.548265      -395.8784
   8   1.0000     -10.514578      -286.1162
   9   1.0000     -10.508818      -285.9595
  10   1.0000     -10.478531      -285.1353
  11   1.0000     -10.455684      -284.5136
  12   1.0000     -10.431814      -283.8641
  13   1.0000     -10.407817      -283.2111
  14   1.0000     -10.395659      -282.8803
  15   1.0000     -10.380180      -282.4591
  16   1.0000     -10.371457      -282.2217
  17   1.0000     -10.349076      -281.6127
  18   1.0000      -1.228193       -33.4208
  19   1.0000      -1.223872       -33.3033
  20   1.0000      -1.193592       -32.4793
  21   1.0000      -1.188490       -32.3405
  22   1.0000      -1.124288       -30.5934
  23   1.0000      -1.123057       -30.5599
  24   1.0000      -1.070224       -29.1223
  25   1.0000      -1.059463       -28.8295
  26   1.0000      -0.974924       -26.5290
  27   1.0000      -0.956119       -26.0173
  28   1.0000      -0.857757       -23.3408
  29   1.0000      -0.845963       -23.0198
  30   1.0000      -0.810381       -22.0516
  31   1.0000      -0.808401       -21.9977
  32   1.0000      -0.794423       -21.6174
  33   1.0000      -0.787766       -21.4362
  34   1.0000      -0.700124       -19.0513
  35   1.0000      -0.695253       -18.9188
  36   1.0000      -0.691589       -18.8191
  37   1.0000      -0.690307       -18.7842
  38   1.0000      -0.644876       -17.5480
  39   1.0000      -0.639248       -17.3948
  40   1.0000      -0.627866       -17.0851
  41   1.0000      -0.600737       -16.3469
  42   1.0000      -0.597237       -16.2517
  43   1.0000      -0.592910       -16.1339
  44   1.0000      -0.572734       -15.5849
  45   1.0000      -0.568688       -15.4748
  46   1.0000      -0.567645       -15.4464
  47   1.0000      -0.554690       -15.0939
  48   1.0000      -0.549671       -14.9573
  49   1.0000      -0.548960       -14.9380
  50   1.0000      -0.531008       -14.4495
  51   1.0000      -0.522030       -14.2052
  52   1.0000      -0.516533       -14.0556
  53   1.0000      -0.514123       -13.9900
  54   1.0000      -0.509949       -13.8764
  55   1.0000      -0.497477       -13.5370
  56   1.0000      -0.493313       -13.4237
  57   1.0000      -0.477348       -12.9893
  58   1.0000      -0.420830       -11.4514
  59   1.0000      -0.418751       -11.3948
  60   1.0000      -0.405076       -11.0227
  61   1.0000      -0.402861       -10.9624
  62   1.0000      -0.389073       -10.5872
  63   1.0000      -0.385570       -10.4919
  64   1.0000      -0.385054       -10.4779
  65   1.0000      -0.347667        -9.4605
  66   1.0000      -0.207820        -5.6551
  67   0.0000       0.011848         0.3224
  68   0.0000       0.020319         0.5529
  69   0.0000       0.033266         0.9052
  70   0.0000       0.039168         1.0658
  71   0.0000       0.042437         1.1548

                 SPIN DOWN ORBITALS
  NO   OCC          E(Eh)            E(eV)
   0   1.0000     -19.329976      -525.9954
   1   1.0000     -19.327685      -525.9330
   2   1.0000     -19.322936      -525.8038
   3   1.0000     -19.311654      -525.4968
   4   1.0000     -14.586814      -396.9274
   5   1.0000     -14.583981      -396.8503
   6   1.0000     -14.570695      -396.4888
   7   1.0000     -14.547342      -395.8533
   8   1.0000     -10.514587      -286.1165
   9   1.0000     -10.509219      -285.9704
  10   1.0000     -10.478521      -285.1351
  11   1.0000     -10.455261      -284.5021
  12   1.0000     -10.431686      -283.8606
  13   1.0000     -10.398366      -282.9539
  14   1.0000     -10.385459      -282.6027
  15   1.0000     -10.380197      -282.4595
  16   1.0000     -10.371935      -282.2347
  17   1.0000     -10.349048      -281.6119
  18   1.0000      -1.227222       -33.3944
  19   1.0000      -1.220331       -33.2069
  20   1.0000      -1.193515       -32.4772
  21   1.0000      -1.179165       -32.0867
  22   1.0000      -1.122854       -30.5544
  23   1.0000      -1.113130       -30.2898
  24   1.0000      -1.070120       -29.1195
  25   1.0000      -1.053836       -28.6763
  26   1.0000      -0.956464       -26.0267
  27   1.0000      -0.950582       -25.8667
  28   1.0000      -0.847058       -23.0496
  29   1.0000      -0.845350       -23.0031
  30   1.0000      -0.809835       -22.0367
  31   1.0000      -0.797528       -21.7018
  32   1.0000      -0.794222       -21.6119
  33   1.0000      -0.780910       -21.2496
  34   1.0000      -0.695107       -18.9148
  35   1.0000      -0.691576       -18.8187
  36   1.0000      -0.688271       -18.7288
  37   1.0000      -0.682042       -18.5593
  38   1.0000      -0.642849       -17.4928
  39   1.0000      -0.630782       -17.1644
  40   1.0000      -0.621780       -16.9195
  41   1.0000      -0.597275       -16.2527
  42   1.0000      -0.589726       -16.0473
  43   1.0000      -0.584576       -15.9071
  44   1.0000      -0.567613       -15.4455
  45   1.0000      -0.562802       -15.3146
  46   1.0000      -0.556121       -15.1328
  47   1.0000      -0.549709       -14.9583
  48   1.0000      -0.544713       -14.8224
  49   1.0000      -0.542973       -14.7751
  50   1.0000      -0.522471       -14.2172
  51   1.0000      -0.515919       -14.0389
  52   1.0000      -0.513684       -13.9780
  53   1.0000      -0.505725       -13.7615
  54   1.0000      -0.501191       -13.6381
  55   1.0000      -0.495436       -13.4815
  56   1.0000      -0.477688       -12.9985
  57   1.0000      -0.444831       -12.1045
  58   1.0000      -0.419843       -11.4245
  59   1.0000      -0.414352       -11.2751
  60   1.0000      -0.404267       -11.0007
  61   1.0000      -0.386988       -10.5305
  62   1.0000      -0.379124       -10.3165
  63   1.0000      -0.376765       -10.2523
  64   1.0000      -0.346552        -9.4302
  65   0.0000      -0.106612        -2.9011
  66   0.0000       0.010996         0.2992
  67   0.0000       0.021298         0.5795
  68   0.0000       0.031085         0.8459
  69   0.0000       0.037397         1.0176

----------------------------------------------------------------------------------------------------
          SPIN FLIP ABSORPTION SPECTRUM VIA TRANSITION ELECTRIC DIPOLE MOMENTS
----------------------------------------------------------------------------------------------------
     Transition      Energy     Energy  Wavelength fosc(D2)      D2        DX        DY        DZ
                      (eV)      (cm-1)    (nm)                 (au**2)    (au)      (au)      (au)
----------------------------------------------------------------------------------------------------
  1-3A  ->  2-3A    4.284522   34557.0   289.4   0.001649738   0.01572  -0.05303  -0.08689   0.07318

Dispersion correction             ... done (  0.1 sec)

MULLIKEN ATOMIC CHARGES AND SPIN DENSITIES
------------------------------------------
   0 O :   -0.696054    0.007882
   1 O :   -0.656294   -0.000149
   2 O :   -0.611605    0.004736
   3 O :   -0.667580    0.000496
   4 N :    0.054447    0.036527
   5 N :    0.009580   -0.002781
   6 N :   -0.000206   -0.013034
   7 N :    0.044909   -0.001739
   8 C :    1.244183    0.103911
   9 C :    0.695009    0.005071
  10 C :   -0.327139   -0.003997
  11 C :   -0.073763   -0.001720
  12 C :   -1.356396   -0.011544
  13 C :   -1.424472    0.002074
  14 C :    0.161762   -0.116029
  15 C :    0.538674   -0.001190
  16 C :    0.361346    0.001323
  17 C :    0.422331   -0.008831
  18 H :    0.097939   -0.017364
  19 H :    0.146897   -0.000221
  20 H :    0.242730    0.010373
  21 H :    0.343770   -0.001847
  22 H :    0.353722    0.007874
  23 H :    0.355331    0.000041
  24 H :    0.333401    0.000425
  25 H :    0.221746   -0.001145
  26 H :    0.081152   -0.002002
  27 H :    0.024532    0.001159
  28 H :    0.041978    0.002428
  29 H :    0.038069   -0.000723
Sum of atomic charges       :   -0.0000000

LOEWDIN ATOMIC CHARGES AND SPIN DENSITIES
-----------------------------------------
   0 O :    0.069970    0.005718
   1 O :    0.103864    0.000054
   2 O :    0.109296    0.003497
   3 O :    0.070079   -0.000284
   4 N :    0.314973    0.024484
   5 N :    0.280158   -0.001190
   6 N :    0.316337   -0.007951
   7 N :    0.343988   -0.000207
   8 C :   -0.098540    0.007077
   9 C :   -0.135840   -0.000107
  10 C :    0.002255   -0.016134
  11 C :    0.048230   -0.000687
  12 C :    0.209382    0.001919
  13 C :    0.183851    0.000063
  14 C :   -0.435506   -0.008871
  15 C :   -0.391277    0.000039
  16 C :   -0.477194   -0.002584
  17 C :   -0.490063   -0.000356
  18 H :    0.005125   -0.007084
  19 H :    0.035939   -0.000154
  20 H :   -0.002118    0.000904
  21 H :   -0.005063   -0.000480
  22 H :    0.013699    0.001043
  23 H :    0.000934    0.000014
  24 H :   -0.006357   -0.000017
  25 H :   -0.012725   -0.000012
  26 H :   -0.009896    0.002361
  27 H :   -0.021233   -0.000148
  28 H :   -0.010266   -0.000878
  29 H :   -0.012004   -0.000027

  Mayer bond orders larger than 0.100000
B(  0-O , 14-C ) :   1.2819 B(  1-O , 15-C ) :   1.4352 B(  2-O , 16-C ) :   1.5785
B(  3-O , 17-C ) :   1.5336 B(  4-N , 10-C ) :   0.8705 B(  4-N , 16-C ) :   0.9516
B(  4-N , 26-H ) :   1.0803 B(  5-N , 11-C ) :   0.9455 B(  5-N , 17-C ) :   1.0415
B(  5-N , 27-H ) :   1.1309 B(  6-N , 14-C ) :   0.8759 B(  6-N , 16-C ) :   0.9135
B(  6-N , 28-H ) :   1.1021 B(  7-N , 15-C ) :   0.9934 B(  7-N , 16-C ) :   0.1111
B(  7-N , 17-C ) :   0.9316 B(  7-N , 29-H ) :   1.1162 B(  8-C , 10-C ) :   0.4622
B(  8-C , 12-C ) :   0.3495 B(  8-C , 14-C ) :   0.9027 B(  8-C , 18-H ) :  -0.1470
B(  8-C , 21-H ) :  -0.1053 B(  9-C , 11-C ) :   1.2008 B(  9-C , 13-C ) :   0.3584
B(  9-C , 15-C ) :   0.8080 B(  9-C , 25-H ) :  -0.1060 B( 10-C , 18-H ) :   1.2345
B( 11-C , 13-C ) :  -0.1879 B( 11-C , 19-H ) :   1.1276 B( 12-C , 20-H ) :   0.9804
B( 12-C , 21-H ) :   0.9902 B( 12-C , 22-H ) :   0.9044 B( 13-C , 23-H ) :   0.9079
B( 13-C , 24-H ) :   1.0137 B( 13-C , 25-H ) :   1.0126

Dispersion correction           -0.058613092
FINAL SINGLE POINT ENERGY      -908.771680400406

DIPOLE MOMENT
-------------

Method             : TDA/CIS
Type of density    : Electron Density
Level              : Relaxed density
State              :   2
Multiplicity       :   3
Irrep              :   0
Energy             :     0.0000000000000000 Eh
Relativity type    :
Basis              : AO
                                X                 Y                 Z
Electronic contribution:     -2.689003095      -9.928450812      -5.815314138
Nuclear contribution   :      2.117608703      10.767055787       8.312776556
                        -----------------------------------------
Total Dipole Moment    :     -0.571394392       0.838604975       2.497462418
                        -----------------------------------------
Magnitude (a.u.)       :      2.695750060
Magnitude (Debye)      :      6.852052110

Rotational constants in cm-1:             0.017183             0.015846             0.013522
Rotational constants in MHz :           515.136613           475.063891           405.383749

                             ****ORCA TERMINATED NORMALLY****
TOTAL RUN TIME: 0 days 0 hours 5 minutes 54 seconds 827 msec
