                         Program Version 6.0.0  -   RELEASE  -
|  1> ! EnGrad wB97M-D3BJ def2-TZVPPD
|  2> %pal nprocs 8 end%pal nprocs 16 end
|  3> %tddft
|  4>  sf true
|  5>  nroots 2 Iroot 1 end
|  6> *xyz 0 3
|  7> O   0.77803827248574 1.38803100794509 0.01304203520861
|  8> C   0.5167201532581 0.2368997277273 0.22202109674445
|  9> C   -0.45149679852923 -0.80731388131183 -0.24440745853827
| 10> H   1.16194809887751 -0.25698771299197 0.99167270018446
| 11> H   0.1405104232545 -1.6432131233611 -0.61499015911679
| 12> H   -1.15657362259247 -0.47984026827891 -1.00538642414591
| 13> H   -0.98694652675414 -1.15597574972858 0.63804820966343
| 14> *
| 15>
| 16>                          ****END OF INPUT****

CARTESIAN COORDINATES (ANGSTROEM)
---------------------------------
  O      0.778038    1.388031    0.013042
  C      0.516720    0.236900    0.222021
  C     -0.451497   -0.807314   -0.244407
  H      1.161948   -0.256988    0.991673
  H      0.140510   -1.643213   -0.614990
  H     -1.156574   -0.479840   -1.005386
  H     -0.986947   -1.155976    0.638048

 Total Charge           Charge          ....    0
 Multiplicity           Mult            ....    3
 Number of Electrons    NEL             ....   24
 Basis Dimension        Dim             ....  182

ORBITAL ENERGIES
----------------
                 SPIN UP ORBITALS
  NO   OCC          E(Eh)            E(eV)
   0   1.0000     -19.405310      -528.0453
   1   1.0000     -10.381048      -282.4827
   2   1.0000     -10.371205      -282.2148
   3   1.0000      -1.242119       -33.7998
   4   1.0000      -0.889307       -24.1993
   5   1.0000      -0.715291       -19.4640
   6   1.0000      -0.628606       -17.1052
   7   1.0000      -0.589536       -16.0421
   8   1.0000      -0.580303       -15.7908
   9   1.0000      -0.517541       -14.0830
  10   1.0000      -0.517040       -14.0694
  11   1.0000      -0.423083       -11.5127
  12   1.0000      -0.217007        -5.9051
  13   0.0000       0.037593         1.0230
  14   0.0000       0.059699         1.6245
  15   0.0000       0.077516         2.1093
  16   0.0000       0.087364         2.3773
  17   0.0000       0.106068         2.8863

                 SPIN DOWN ORBITALS
  NO   OCC          E(Eh)            E(eV)
   0   1.0000     -19.378323      -527.3110
   1   1.0000     -10.370792      -282.2036
   2   1.0000     -10.369283      -282.1625
   3   1.0000      -1.186403       -32.2837
   4   1.0000      -0.870313       -23.6824
   5   1.0000      -0.669292       -18.2124
   6   1.0000      -0.584926       -15.9166
   7   1.0000      -0.542134       -14.7522
   8   1.0000      -0.535658       -14.5760
   9   1.0000      -0.497192       -13.5293
  10   1.0000      -0.471429       -12.8282
  11   0.0000      -0.081344        -2.2135
  12   0.0000       0.038769         1.0550
  13   0.0000       0.059364         1.6154
  14   0.0000       0.077072         2.0972
  15   0.0000       0.084924         2.3109

----------------------------------------------------------------------------------------------------
          SPIN FLIP ABSORPTION SPECTRUM VIA TRANSITION ELECTRIC DIPOLE MOMENTS
----------------------------------------------------------------------------------------------------
     Transition      Energy     Energy  Wavelength fosc(D2)      D2        DX        DY        DZ
                      (eV)      (cm-1)    (nm)                 (au**2)    (au)      (au)      (au)
----------------------------------------------------------------------------------------------------
  1-3A  ->  2-3A    4.609143   37175.3   269.0   0.000355213   0.00315  -0.03599   0.01553   0.04012

Dispersion correction             ... done (  0.0 sec)

MULLIKEN ATOMIC CHARGES AND SPIN DENSITIES
------------------------------------------
   0 O :   -0.503732    0.053774
   1 C :    0.211126   -0.169539
   2 C :   -0.697426    0.040660
   3 H :    0.265480    0.074845
   4 H :    0.245412   -0.002625
   5 H :    0.235227    0.005407
   6 H :    0.243914   -0.002522
Sum of atomic charges       :    0.0000000

LOEWDIN ATOMIC CHARGES AND SPIN DENSITIES
-----------------------------------------
   0 O :    0.053099    0.020828
   1 C :   -0.241229   -0.015095
   2 C :    0.179772   -0.002053
   3 H :    0.027129   -0.002829
   4 H :   -0.006002   -0.001241
   5 H :   -0.006934    0.001619
   6 H :   -0.005836   -0.001228

  Mayer bond orders larger than 0.100000
B(  0-O ,  1-C ) :   1.7925 B(  1-C ,  2-C ) :   0.7444 B(  1-C ,  3-H ) :   0.9497
B(  2-C ,  4-H ) :   0.9851 B(  2-C ,  5-H ) :   0.9690 B(  2-C ,  6-H ) :   0.9853

Dispersion correction           -0.005502779
FINAL SINGLE POINT ENERGY      -153.917163442540

DIPOLE MOMENT
-------------

Method             : TDA/CIS
Type of density    : Electron Density
Level              : Relaxed density
State              :   1
Multiplicity       :   3
Irrep              :   0
Energy             :     0.0000000000000000 Eh
Relativity type    :
Basis              : AO
                                X                 Y                 Z
Electronic contribution:      1.410297351       3.061950839       0.083552701
Nuclear contribution   :     -1.836612660      -4.305315774       0.013304362
                        -----------------------------------------
Total Dipole Moment    :     -0.426315309      -1.243364935       0.096857062
                        -----------------------------------------
Magnitude (a.u.)       :      1.317984217
Magnitude (Debye)      :      3.350049646

Rotational constants in cm-1:             2.366747             0.308461             0.287329
Rotational constants in MHz :         70953.304605          9247.426644          8613.898596

                             ****ORCA TERMINATED NORMALLY****
TOTAL RUN TIME: 0 days 0 hours 0 minutes 16 seconds 380 msec
