                         Program Version 6.0.0  -   RELEASE  -
|  1> ! Engrad def2-TZVPPD wB97M-D3BJ
|  2> %pal nprocs 8 end%pal nprocs 64 end
|  3> %tddft Nroots 2 Iroot 2
|  4> sf true
|  5> end
|  6> *xyz 0 3
|  7> O   4.06130493 0.11764557 0.38035568
|  8> O   -1.73502091 1.51559448 -2.35756629
|  9> O   1.09494669 -3.00764397 -1.08136167
| 10> O   -3.6373544 -1.31509754 0.51336815
| 11> N   0.32386103 -1.27546679 0.1113594
| 12> N   -2.00897742 -0.00680606 1.29751709
| 13> N   2.61832785 -1.4827333 -0.27419534
| 14> N   -2.43408996 -0.10221067 -0.98779311
| 15> C   1.79851027 0.38231542 1.03617463
| 16> C   -0.87154207 1.54888823 -0.14751617
| 17> C   0.43854612 -0.25915337 1.11878349
| 18> C   -0.76732253 0.72696004 1.10060129
| 19> C   2.12568079 1.64407605 1.74778033
| 20> C   -0.59052839 2.98155961 -0.15827719
| 21> C   2.91871292 -0.28235021 0.37275606
| 22> C   -1.68381399 1.02791224 -1.24120131
| 23> C   1.33274444 -2.01243383 -0.45508675
| 24> C   -2.74440811 -0.53689759 0.28967765
| 25> H   0.35979417 -0.71485536 2.14919926
| 26> H   -0.6307232 1.39374424 1.9324647
| 27> H   3.19697648 1.69711607 1.91046001
| 28> H   1.93672745 2.50437431 1.10845981
| 29> H   1.56399187 1.8537581 2.66682657
| 30> H   -1.20316791 3.5385004 0.60172586
| 31> H   0.40550498 3.2600253 0.11853558
| 32> H   -0.8445839 3.38722092 -1.14371092
| 33> H   -0.5523685 -1.71753153 0.01183807
| 34> H   -2.09430552 -0.47269481 2.19247969
| 35> H   3.38613269 -1.92995075 -0.74468252
| 36> H   -2.98754724 -0.47055982 -1.7361484
| 37> *
| 38>
| 39>                          ****END OF INPUT****

CARTESIAN COORDINATES (ANGSTROEM)
---------------------------------
  O      4.061305    0.117646    0.380356
  O     -1.735021    1.515594   -2.357566
  O      1.094947   -3.007644   -1.081362
  O     -3.637354   -1.315098    0.513368
  N      0.323861   -1.275467    0.111359
  N     -2.008977   -0.006806    1.297517
  N      2.618328   -1.482733   -0.274195
  N     -2.434090   -0.102211   -0.987793
  C      1.798510    0.382315    1.036175
  C     -0.871542    1.548888   -0.147516
  C      0.438546   -0.259153    1.118783
  C     -0.767323    0.726960    1.100601
  C      2.125681    1.644076    1.747780
  C     -0.590528    2.981560   -0.158277
  C      2.918713   -0.282350    0.372756
  C     -1.683814    1.027912   -1.241201
  C      1.332744   -2.012434   -0.455087
  C     -2.744408   -0.536898    0.289678
  H      0.359794   -0.714855    2.149199
  H     -0.630723    1.393744    1.932465
  H      3.196976    1.697116    1.910460
  H      1.936727    2.504374    1.108460
  H      1.563992    1.853758    2.666827
  H     -1.203168    3.538500    0.601726
  H      0.405505    3.260025    0.118536
  H     -0.844584    3.387221   -1.143711
  H     -0.552369   -1.717532    0.011838
  H     -2.094306   -0.472695    2.192480
  H      3.386133   -1.929951   -0.744683
  H     -2.987547   -0.470560   -1.736148

 Total Charge           Charge          ....    0
 Multiplicity           Mult            ....    3
 Number of Electrons    NEL             ....  132
 Basis Dimension        Dim             ....  882

ORBITAL ENERGIES
----------------
                 SPIN UP ORBITALS
  NO   OCC          E(Eh)            E(eV)
   0   1.0000     -19.336706      -526.1785
   1   1.0000     -19.336319      -526.1680
   2   1.0000     -19.322086      -525.7807
   3   1.0000     -19.319824      -525.7191
   4   1.0000     -14.568968      -396.4418
   5   1.0000     -14.567391      -396.3989
   6   1.0000     -14.563561      -396.2946
   7   1.0000     -14.555253      -396.0686
   8   1.0000     -10.508387      -285.9477
   9   1.0000     -10.506078      -285.8849
  10   1.0000     -10.485303      -285.3196
  11   1.0000     -10.484061      -285.2858
  12   1.0000     -10.451849      -284.4093
  13   1.0000     -10.448417      -284.3159
  14   1.0000     -10.425264      -283.6859
  15   1.0000     -10.422762      -283.6178
  16   1.0000     -10.377101      -282.3753
  17   1.0000     -10.376138      -282.3491
  18   1.0000      -1.229368       -33.4528
  19   1.0000      -1.222663       -33.2704
  20   1.0000      -1.204069       -32.7644
  21   1.0000      -1.202097       -32.7107
  22   1.0000      -1.124673       -30.6039
  23   1.0000      -1.101337       -29.9689
  24   1.0000      -1.073244       -29.2044
  25   1.0000      -1.059510       -28.8307
  26   1.0000      -0.985461       -26.8158
  27   1.0000      -0.961255       -26.1571
  28   1.0000      -0.899103       -24.4658
  29   1.0000      -0.845339       -23.0028
  30   1.0000      -0.832800       -22.6616
  31   1.0000      -0.803943       -21.8764
  32   1.0000      -0.789626       -21.4868
  33   1.0000      -0.785170       -21.3656
  34   1.0000      -0.709011       -19.2932
  35   1.0000      -0.701522       -19.0894
  36   1.0000      -0.695235       -18.9183
  37   1.0000      -0.686912       -18.6918
  38   1.0000      -0.653478       -17.7820
  39   1.0000      -0.643186       -17.5020
  40   1.0000      -0.629873       -17.1397
  41   1.0000      -0.608840       -16.5674
  42   1.0000      -0.603238       -16.4149
  43   1.0000      -0.588373       -16.0104
  44   1.0000      -0.578676       -15.7466
  45   1.0000      -0.574388       -15.6299
  46   1.0000      -0.573469       -15.6049
  47   1.0000      -0.566196       -15.4070
  48   1.0000      -0.561892       -15.2898
  49   1.0000      -0.561133       -15.2692
  50   1.0000      -0.557118       -15.1600
  51   1.0000      -0.545094       -14.8328
  52   1.0000      -0.537435       -14.6244
  53   1.0000      -0.528956       -14.3936
  54   1.0000      -0.518571       -14.1110
  55   1.0000      -0.510654       -13.8956
  56   1.0000      -0.494113       -13.4455
  57   1.0000      -0.426260       -11.5991
  58   1.0000      -0.423216       -11.5163
  59   1.0000      -0.413289       -11.2462
  60   1.0000      -0.408218       -11.1082
  61   1.0000      -0.401124       -10.9152
  62   1.0000      -0.395087       -10.7509
  63   1.0000      -0.393132       -10.6977
  64   1.0000      -0.384324       -10.4580
  65   1.0000      -0.347464        -9.4550
  66   1.0000      -0.340155        -9.2561
  67   0.0000       0.007864         0.2140
  68   0.0000       0.027989         0.7616
  69   0.0000       0.031875         0.8674
  70   0.0000       0.033895         0.9223
  71   0.0000       0.053335         1.4513

                 SPIN DOWN ORBITALS
  NO   OCC          E(Eh)            E(eV)
   0   1.0000     -19.332810      -526.0725
   1   1.0000     -19.332074      -526.0525
   2   1.0000     -19.321972      -525.7776
   3   1.0000     -19.319793      -525.7183
   4   1.0000     -14.568526      -396.4297
   5   1.0000     -14.567088      -396.3906
   6   1.0000     -14.562917      -396.2771
   7   1.0000     -14.555213      -396.0675
   8   1.0000     -10.508419      -285.9486
   9   1.0000     -10.506114      -285.8859
  10   1.0000     -10.486252      -285.3454
  11   1.0000     -10.485149      -285.3154
  12   1.0000     -10.451733      -284.4061
  13   1.0000     -10.448435      -284.3164
  14   1.0000     -10.413844      -283.3751
  15   1.0000     -10.411081      -283.2999
  16   1.0000     -10.377679      -282.3910
  17   1.0000     -10.376729      -282.3651
  18   1.0000      -1.228010       -33.4159
  19   1.0000      -1.220887       -33.2220
  20   1.0000      -1.199886       -32.6506
  21   1.0000      -1.197120       -32.5753
  22   1.0000      -1.122339       -30.5404
  23   1.0000      -1.099361       -29.9151
  24   1.0000      -1.071507       -29.1572
  25   1.0000      -1.058057       -28.7912
  26   1.0000      -0.972583       -26.4653
  27   1.0000      -0.943916       -25.6853
  28   1.0000      -0.893699       -24.3188
  29   1.0000      -0.840234       -22.8639
  30   1.0000      -0.823901       -22.4195
  31   1.0000      -0.799639       -21.7593
  32   1.0000      -0.787559       -21.4306
  33   1.0000      -0.783849       -21.3296
  34   1.0000      -0.704460       -19.1693
  35   1.0000      -0.695856       -18.9352
  36   1.0000      -0.687617       -18.7110
  37   1.0000      -0.680595       -18.5199
  38   1.0000      -0.647248       -17.6125
  39   1.0000      -0.632631       -17.2148
  40   1.0000      -0.626869       -17.0580
  41   1.0000      -0.602249       -16.3880
  42   1.0000      -0.598103       -16.2752
  43   1.0000      -0.583083       -15.8665
  44   1.0000      -0.573390       -15.6027
  45   1.0000      -0.569444       -15.4954
  46   1.0000      -0.564488       -15.3605
  47   1.0000      -0.561223       -15.2717
  48   1.0000      -0.556505       -15.1433
  49   1.0000      -0.553035       -15.0488
  50   1.0000      -0.545814       -14.8523
  51   1.0000      -0.535663       -14.5761
  52   1.0000      -0.529760       -14.4155
  53   1.0000      -0.518985       -14.1223
  54   1.0000      -0.510929       -13.9031
  55   1.0000      -0.504416       -13.7259
  56   1.0000      -0.489052       -13.3078
  57   1.0000      -0.422554       -11.4983
  58   1.0000      -0.419573       -11.4172
  59   1.0000      -0.405906       -11.0453
  60   1.0000      -0.395481       -10.7616
  61   1.0000      -0.394653       -10.7390
  62   1.0000      -0.390979       -10.6391
  63   1.0000      -0.389127       -10.5887
  64   1.0000      -0.378728       -10.3057
  65   0.0000      -0.064218        -1.7475
  66   0.0000      -0.056021        -1.5244
  67   0.0000       0.007723         0.2101
  68   0.0000       0.027588         0.7507
  69   0.0000       0.031285         0.8513

----------------------------------------------------------------------------------------------------
          SPIN FLIP ABSORPTION SPECTRUM VIA TRANSITION ELECTRIC DIPOLE MOMENTS
----------------------------------------------------------------------------------------------------
     Transition      Energy     Energy  Wavelength fosc(D2)      D2        DX        DY        DZ
                      (eV)      (cm-1)    (nm)                 (au**2)    (au)      (au)      (au)
----------------------------------------------------------------------------------------------------
  1-3A  ->  2-3A    0.050176     404.7  24709.8   0.000000067   0.00005  -0.00359   0.00445  -0.00467

Dispersion correction             ... done (  0.1 sec)

MULLIKEN ATOMIC CHARGES AND SPIN DENSITIES
------------------------------------------
   0 O :   -0.642929    0.140917
   1 O :   -0.675416   -0.154464
   2 O :   -0.639962    0.001273
   3 O :   -0.646093   -0.002911
   4 N :   -0.116033    0.000069
   5 N :   -0.315443   -0.021768
   6 N :   -0.039338    0.027946
   7 N :    0.033382   -0.018354
   8 C :    0.042529    0.447953
   9 C :    1.060680    0.160962
  10 C :    0.415308    0.023297
  11 C :    0.368241   -0.348560
  12 C :   -1.693041   -0.011816
  13 C :   -1.367677   -0.000758
  14 C :    0.789923    0.164806
  15 C :   -0.274302   -0.530115
  16 C :    0.406999   -0.005469
  17 C :    0.413958    0.027141
  18 H :    0.408041    0.042951
  19 H :    0.548101    0.017438
  20 H :    0.344093    0.013231
  21 H :    0.258506    0.040442
  22 H :    0.306196    0.006942
  23 H :    0.346561   -0.002350
  24 H :    0.218757    0.020105
  25 H :    0.330902   -0.025547
  26 H :   -0.043461   -0.017722
  27 H :    0.088476    0.002536
  28 H :    0.041204   -0.002759
  29 H :    0.031836    0.004584
Sum of atomic charges       :   -0.0000000

LOEWDIN ATOMIC CHARGES AND SPIN DENSITIES
-----------------------------------------
   0 O :    0.095723    0.124153
   1 O :    0.082453   -0.141144
   2 O :    0.104612    0.000871
   3 O :    0.094562   -0.003279
   4 N :    0.292360   -0.002548
   5 N :    0.278853   -0.012847
   6 N :    0.328839    0.024820
   7 N :    0.329749   -0.013183
   8 C :    0.005307    0.504032
   9 C :    0.019811   -0.487643
  10 C :   -0.121498    0.041750
  11 C :   -0.118831   -0.042297
  12 C :    0.189558    0.074975
  13 C :    0.187988   -0.085446
  14 C :   -0.393541    0.084151
  15 C :   -0.409131   -0.084144
  16 C :   -0.464655    0.000169
  17 C :   -0.515091   -0.000617
  18 H :    0.079538    0.026061
  19 H :    0.035436   -0.001656
  20 H :   -0.006307    0.004699
  21 H :   -0.017293    0.027251
  22 H :    0.011066    0.008261
  23 H :    0.046571   -0.030694
  24 H :   -0.034815   -0.016792
  25 H :    0.007743    0.001026
  26 H :   -0.064035   -0.000321
  27 H :   -0.016219   -0.000587
  28 H :   -0.017439    0.002202
  29 H :   -0.011315   -0.001222

  Mayer bond orders larger than 0.100000
B(  0-O ,  8-C ) :   0.1286 B(  0-O , 14-C ) :   1.2918 B(  1-O , 15-C ) :   1.3468
B(  2-O , 16-C ) :   1.5895 B(  3-O , 17-C ) :   1.5922 B(  4-N , 10-C ) :   0.5123
B(  4-N , 11-C ) :   0.1461 B(  4-N , 16-C ) :   1.1104 B(  4-N , 26-H ) :   1.1488
B(  5-N ,  9-C ) :   0.1534 B(  5-N , 10-C ) :   0.1249 B(  5-N , 17-C ) :   1.1585
B(  5-N , 27-H ) :   1.0662 B(  6-N , 14-C ) :   0.9982 B(  6-N , 16-C ) :   0.9189
B(  6-N , 28-H ) :   1.1306 B(  7-N , 15-C ) :   1.0072 B(  7-N , 17-C ) :   0.9565
B(  7-N , 29-H ) :   1.1011 B(  8-C ,  9-C ) :   0.1452 B(  8-C , 10-C ) :   0.4222
B(  8-C , 12-C ) :   0.4797 B(  8-C , 14-C ) :   0.6449 B(  8-C , 22-H ) :  -0.1509
B(  9-C , 10-C ) :   0.2126 B(  9-C , 11-C ) :   0.1565 B(  9-C , 13-C ) :   0.4720
B(  9-C , 15-C ) :   0.2678 B(  9-C , 19-H ) :  -0.1290 B(  9-C , 25-H ) :  -0.1143
B( 10-C , 11-C ) :   0.5806 B( 10-C , 12-C ) :  -0.3182 B( 10-C , 14-C ) :   0.2743
B( 10-C , 18-H ) :   0.8534 B( 11-C , 13-C ) :  -0.2559 B( 11-C , 17-C ) :  -0.2400
B( 11-C , 19-H ) :   0.8106 B( 12-C , 14-C ) :  -0.3820 B( 12-C , 20-H ) :   1.0015
B( 12-C , 21-H ) :   0.8975 B( 12-C , 22-H ) :   1.0502 B( 13-C , 23-H ) :   0.8477
B( 13-C , 24-H ) :   1.0104 B( 13-C , 25-H ) :   0.9790 B( 15-C , 17-C ) :  -0.1132

Dispersion correction           -0.056549265
FINAL SINGLE POINT ENERGY      -908.795884491295

DIPOLE MOMENT
-------------

Method             : TDA/CIS
Type of density    : Electron Density
Level              : Relaxed density
State              :   2
Multiplicity       :   3
Irrep              :   0
Energy             :     0.0000000000000000 Eh
Relativity type    :
Basis              : AO
                                X                 Y                 Z
Electronic contribution:     -2.123910049     -10.300820011      -5.724114170
Nuclear contribution   :      2.297279650      11.873459552       7.819007100
                        -----------------------------------------
Total Dipole Moment    :      0.173369601       1.572639541       2.094892930
                        -----------------------------------------
Magnitude (a.u.)       :      2.625229235
Magnitude (Debye)      :      6.672802418

Rotational constants in cm-1:             0.020648             0.011373             0.009493
Rotational constants in MHz :           619.018623           340.954083           284.585019

                             ****ORCA TERMINATED NORMALLY****
TOTAL RUN TIME: 0 days 0 hours 4 minutes 21 seconds 750 msec
