                         Program Version 6.0.0  -   RELEASE  -
|  1> ! Engrad def2-TZVPPD wB97M-D3BJ
|  2> %pal nprocs 8 end%pal nprocs 64 end
|  3> %tddft
|  4>  Iroot 2 Nroots 3
|  5> sf true
|  6> end
|  7> *xyz 0 3
|  8> O   1.19716545 0.81402946 0.40626954
|  9> C   0.02449814 0.25694882 0.26944047
| 10> C   0.02414627 -0.99210809 -0.51718844
| 11> H   -0.56649931 1.15214245 -0.1985188
| 12> H   -0.42470752 0.10729872 1.2741391
| 13> H   -0.73209393 -1.62136781 -0.13139377
| 14> H   0.77142494 -1.06861494 -1.24908003
| 15> *
| 16>
| 17>                          ****END OF INPUT****

CARTESIAN COORDINATES (ANGSTROEM)
---------------------------------
  O      1.197165    0.814029    0.406270
  C      0.024498    0.256949    0.269440
  C      0.024146   -0.992108   -0.517188
  H     -0.566499    1.152142   -0.198519
  H     -0.424708    0.107299    1.274139
  H     -0.732094   -1.621368   -0.131394
  H      0.771425   -1.068615   -1.249080

 Total Charge           Charge          ....    0
 Multiplicity           Mult            ....    3
 Number of Electrons    NEL             ....   24
 Basis Dimension        Dim             ....  182

ORBITAL ENERGIES
----------------
                 SPIN UP ORBITALS
  NO   OCC          E(Eh)            E(eV)
   0   1.0000     -19.377615      -527.2917
   1   1.0000     -10.412502      -283.3386
   2   1.0000     -10.363578      -282.0073
   3   1.0000      -1.189972       -32.3808
   4   1.0000      -0.878859       -23.9150
   5   1.0000      -0.728495       -19.8234
   6   1.0000      -0.625375       -17.0173
   7   1.0000      -0.600725       -16.3466
   8   1.0000      -0.554051       -15.0765
   9   1.0000      -0.531081       -14.4515
  10   1.0000      -0.428409       -11.6576
  11   1.0000      -0.402441       -10.9510
  12   1.0000      -0.323264        -8.7965
  13   0.0000       0.041008         1.1159
  14   0.0000       0.061153         1.6640
  15   0.0000       0.076835         2.0908
  16   0.0000       0.084932         2.3111
  17   0.0000       0.111905         3.0451

                 SPIN DOWN ORBITALS
  NO   OCC          E(Eh)            E(eV)
   0   1.0000     -19.355182      -526.6813
   1   1.0000     -10.414004      -283.3795
   2   1.0000     -10.350310      -281.6463
   3   1.0000      -1.142294       -31.0834
   4   1.0000      -0.844714       -22.9858
   5   1.0000      -0.700583       -19.0638
   6   1.0000      -0.598717       -16.2919
   7   1.0000      -0.546359       -14.8672
   8   1.0000      -0.536557       -14.6005
   9   1.0000      -0.509019       -13.8511
  10   1.0000      -0.373639       -10.1672
  11   0.0000      -0.049270        -1.3407
  12   0.0000      -0.003119        -0.0849
  13   0.0000       0.040807         1.1104
  14   0.0000       0.060841         1.6556
  15   0.0000       0.076619         2.0849

----------------------------------------------------------------------------------------------------
          SPIN FLIP ABSORPTION SPECTRUM VIA TRANSITION ELECTRIC DIPOLE MOMENTS
----------------------------------------------------------------------------------------------------
     Transition      Energy     Energy  Wavelength fosc(D2)      D2        DX        DY        DZ
                      (eV)      (cm-1)    (nm)                 (au**2)    (au)      (au)      (au)
----------------------------------------------------------------------------------------------------
  1-3A  ->  2-3A    0.236247    1905.5  5248.1   0.000665045   0.11490  -0.11688  -0.31660  -0.03172
  1-3A  ->  3-3A    0.755956    6097.2  1640.1   0.006634858   0.35824  -0.45636  -0.31801  -0.22102

Dispersion correction             ... done (  0.2 sec)

MULLIKEN ATOMIC CHARGES AND SPIN DENSITIES
------------------------------------------
   0 O :   -0.356701    0.294180
   1 C :    0.007942    0.005883
   2 C :   -0.385107   -0.163037
   3 H :    0.181642    0.019379
   4 H :    0.190777   -0.076647
   5 H :    0.157017   -0.033194
   6 H :    0.204431   -0.046564
Sum of atomic charges       :   -0.0000000

LOEWDIN ATOMIC CHARGES AND SPIN DENSITIES
-----------------------------------------
   0 O :    0.061242    0.276029
   1 C :   -0.351573   -0.034855
   2 C :    0.333688   -0.156856
   3 H :    0.079826    0.014997
   4 H :    0.027462   -0.045081
   5 H :   -0.074990   -0.024023
   6 H :   -0.075653   -0.030210

  Mayer bond orders larger than 0.100000
B(  0-O ,  1-C ) :   0.8844 B(  0-O ,  2-C ) :   0.1401 B(  1-C ,  2-C ) :   0.7960
B(  1-C ,  3-H ) :   0.9356 B(  1-C ,  4-H ) :   0.9700 B(  2-C ,  5-H ) :   1.0343
B(  2-C ,  6-H ) :   0.9889

Dispersion correction           -0.005604593
FINAL SINGLE POINT ENERGY      -153.739923621953

DIPOLE MOMENT
-------------

Method             : TDA/CIS
Type of density    : Electron Density
Level              : Relaxed density
State              :   2
Multiplicity       :   3
Irrep              :   0
Energy             :     0.0000000000000000 Eh
Relativity type    :
Basis              : AO
                                X                 Y                 Z
Electronic contribution:      1.769260473       1.238579841       0.424351748
Nuclear contribution   :     -2.481271326      -1.565389707      -0.555114355
                        -----------------------------------------
Total Dipole Moment    :     -0.712010854      -0.326809866      -0.130762607
                        -----------------------------------------
Magnitude (a.u.)       :      0.794268849
Magnitude (Debye)      :      2.018870971

Rotational constants in cm-1:             1.509384             0.370975             0.321315
Rotational constants in MHz :         45250.188077         11121.563803          9632.777187

                             ****ORCA TERMINATED NORMALLY****
TOTAL RUN TIME: 0 days 0 hours 0 minutes 25 seconds 973 msec
