                         Program Version 6.0.0  -   RELEASE  -
|  1> ! EnGrad wB97M-D3BJ def2-TZVPPD
|  2> %pal nprocs 8 end%pal nprocs 16 end
|  3> %tddft
|  4>  sf true
|  5>  nroots 2 Iroot 2 end
|  6> *xyz 0 3
|  7> O   0.02305801874064 0.79655143259603 -4.93905807e-05
|  8> C   0.71816743055364 -0.42447490506261 0.00014264636055
|  9> C   -0.72860828152463 -0.46160977400654 -0.0001542135153
| 10> H   1.25567025786177 -0.65459199522709 0.91338575039332
| 11> H   1.25538148843309 -0.65492845481669 -0.91322778541706
| 12> H   -1.26090394370672 -0.65961022073898 -0.91969457002318
| 13> H   -1.26056497035779 -0.65973608274412 0.91959756278237
| 14> *
| 15>
| 16>                          ****END OF INPUT****

CARTESIAN COORDINATES (ANGSTROEM)
---------------------------------
  O      0.023058    0.796551   -0.000049
  C      0.718167   -0.424475    0.000143
  C     -0.728608   -0.461610   -0.000154
  H      1.255670   -0.654592    0.913386
  H      1.255381   -0.654928   -0.913228
  H     -1.260904   -0.659610   -0.919695
  H     -1.260565   -0.659736    0.919598

 Total Charge           Charge          ....    0
 Multiplicity           Mult            ....    3
 Number of Electrons    NEL             ....   24
 Basis Dimension        Dim             ....  182

ORBITAL ENERGIES
----------------
                 SPIN UP ORBITALS
  NO   OCC          E(Eh)            E(eV)
   0   1.0000     -19.501927      -530.6744
   1   1.0000     -10.439360      -284.0694
   2   1.0000     -10.407218      -283.1948
   3   1.0000      -1.327852       -36.1327
   4   1.0000      -0.877564       -23.8797
   5   1.0000      -0.804888       -21.9021
   6   1.0000      -0.710832       -19.3427
   7   1.0000      -0.672940       -18.3116
   8   1.0000      -0.596434       -16.2298
   9   1.0000      -0.527858       -14.3637
  10   1.0000      -0.518057       -14.0971
  11   1.0000      -0.486554       -13.2398
  12   1.0000      -0.123560        -3.3622
  13   0.0000       0.032355         0.8804
  14   0.0000       0.055820         1.5189
  15   0.0000       0.067394         1.8339
  16   0.0000       0.085619         2.3298
  17   0.0000       0.101755         2.7689

                 SPIN DOWN ORBITALS
  NO   OCC          E(Eh)            E(eV)
   0   1.0000     -19.470111      -529.8086
   1   1.0000     -10.438976      -284.0590
   2   1.0000     -10.402327      -283.0617
   3   1.0000      -1.263121       -34.3713
   4   1.0000      -0.845717       -23.0131
   5   1.0000      -0.788482       -21.4557
   6   1.0000      -0.651744       -17.7349
   7   1.0000      -0.642953       -17.4956
   8   1.0000      -0.561768       -15.2865
   9   1.0000      -0.505722       -13.7614
  10   1.0000      -0.465678       -12.6718
  11   0.0000      -0.140584        -3.8255
  12   0.0000       0.033390         0.9086
  13   0.0000       0.054671         1.4877
  14   0.0000       0.064578         1.7573
  15   0.0000       0.072411         1.9704

----------------------------------------------------------------------------------------------------
          SPIN FLIP ABSORPTION SPECTRUM VIA TRANSITION ELECTRIC DIPOLE MOMENTS
----------------------------------------------------------------------------------------------------
     Transition      Energy     Energy  Wavelength fosc(D2)      D2        DX        DY        DZ
                      (eV)      (cm-1)    (nm)                 (au**2)    (au)      (au)      (au)
----------------------------------------------------------------------------------------------------
  1-3A  ->  2-3A    6.863797   55360.3   180.6   0.003475072   0.02067   0.00001   0.00037  -0.14375

Dispersion correction             ... done (  0.0 sec)

MULLIKEN ATOMIC CHARGES AND SPIN DENSITIES
------------------------------------------
   0 O :    0.837392    1.116056
   1 C :   -1.731772   -1.769555
   2 C :   -2.148187   -1.818511
   3 H :    0.628158    0.492503
   4 H :    0.626828    0.491447
   5 H :    0.892263    0.742456
   6 H :    0.895319    0.745605
Sum of atomic charges       :    0.0000000

LOEWDIN ATOMIC CHARGES AND SPIN DENSITIES
-----------------------------------------
   0 O :    0.385199    0.592844
   1 C :   -0.175481   -0.228291
   2 C :   -0.175589   -0.174436
   3 H :    0.005636   -0.046469
   4 H :    0.005825   -0.046201
   5 H :   -0.022694   -0.048561
   6 H :   -0.022897   -0.048886

  Mayer bond orders larger than 0.100000
B(  0-O ,  1-C ) :  -0.8733 B(  0-O ,  2-C ) :  -1.6065 B(  0-O ,  3-H ) :   0.4863
B(  0-O ,  4-H ) :   0.4852 B(  0-O ,  5-H ) :   0.7946 B(  0-O ,  6-H ) :   0.7969
B(  1-C ,  2-C ) :   9.8062 B(  1-C ,  3-H ) :  -0.1118 B(  1-C ,  4-H ) :  -0.1083
B(  1-C ,  5-H ) :  -2.9803 B(  1-C ,  6-H ) :  -2.9900 B(  2-C ,  3-H ) :  -2.4633
B(  2-C ,  4-H ) :  -2.4570 B(  2-C ,  5-H ) :  -1.4821 B(  2-C ,  6-H ) :  -1.4927
B(  3-H ,  4-H ) :   0.3333 B(  3-H ,  5-H ) :   0.7598 B(  3-H ,  6-H ) :   0.8625
B(  4-H ,  5-H ) :   0.8580 B(  4-H ,  6-H ) :   0.7600 B(  5-H ,  6-H ) :   0.8001

Dispersion correction           -0.005231111
FINAL SINGLE POINT ENERGY      -153.624522537781

DIPOLE MOMENT
-------------

Method             : TDA/CIS
Type of density    : Electron Density
Level              : Relaxed density
State              :   2
Multiplicity       :   3
Irrep              :   0
Energy             :     0.0000000000000000 Eh
Relativity type    :
Basis              : AO
                                X                 Y                 Z
Electronic contribution:      0.350767224       3.070242795      -0.004807651
Nuclear contribution   :     -0.029358697      -2.407640114       0.000130665
                        -----------------------------------------
Total Dipole Moment    :      0.321408526       0.662602681      -0.004676986
                        -----------------------------------------
Magnitude (a.u.)       :      0.736456128
Magnitude (Debye)      :      1.871922713

Rotational constants in cm-1:             0.851121             0.747998             0.473927
Rotational constants in MHz :         25515.970168         22424.420184         14207.967978

                             ****ORCA TERMINATED NORMALLY****
TOTAL RUN TIME: 0 days 0 hours 0 minutes 21 seconds 559 msec
