                         Program Version 6.0.0  -   RELEASE  -
|  1> ! Opt wB97M-D3BJ def2-TZVPPD
|  2> %pal nprocs 8 end %pal nprocs 64 end
|  3> %geom
|  4> Constraints
|  5>     {A 2 1 0 117.27272727272727 C }
|  6> end
|  7> MaxIter 500
|  8> end
|  9> *xyz 0 1
| 10> O   -0.0007 0.8141 0.0
| 11> C   0.7509 -0.4065 0.0
| 12> C   -0.7502 -0.4076 0.0
| 13> H   1.2625 -0.6786 0.9136
| 14> H   1.2625 -0.6787 -0.9136
| 15> H   -1.2614 -0.6806 -0.9136
| 16> H   -1.2614 -0.6805 0.9136
| 17> *
| 18>
| 19>                          ****END OF INPUT****
 Total Charge           Charge          ....    0
 Multiplicity           Mult            ....    1
 Number of Electrons    NEL             ....   24
Dispersion correction           -0.005783494
FINAL SINGLE POINT ENERGY      -153.637539865247
Dispersion correction             ... done (  0.1 sec)
Dispersion correction           -0.005669994
FINAL SINGLE POINT ENERGY      -153.713621584912
Dispersion correction             ... done (  0.1 sec)
Dispersion correction           -0.005598237
FINAL SINGLE POINT ENERGY      -153.734827423723
Dispersion correction             ... done (  0.1 sec)
FINAL SINGLE POINT ENERGY      -153.746319461988
FINAL SINGLE POINT ENERGY      -153.752020508208
FINAL SINGLE POINT ENERGY      -153.754306284323
FINAL SINGLE POINT ENERGY      -153.755568656409
FINAL SINGLE POINT ENERGY      -153.758255564269
FINAL SINGLE POINT ENERGY      -153.761799311962
FINAL SINGLE POINT ENERGY      -153.765319427101
FINAL SINGLE POINT ENERGY      -153.929377456766
FINAL SINGLE POINT ENERGY      -153.929401735813
FINAL SINGLE POINT ENERGY      -153.929421433090
FINAL SINGLE POINT ENERGY      -153.929436017749
FINAL SINGLE POINT ENERGY      -153.929444382931
FINAL SINGLE POINT ENERGY      -153.929447408982
FINAL SINGLE POINT ENERGY      -153.929450474779
Dispersion correction             ... done (  0.1 sec)
Dispersion correction           -0.005551355
FINAL SINGLE POINT ENERGY      -153.929452546465
Dispersion correction             ... done (  0.1 sec)
Dispersion correction           -0.005550875
FINAL SINGLE POINT ENERGY      -153.929453504345
Dispersion correction             ... done (  0.1 sec)
                    ***********************HURRAY********************

CARTESIAN COORDINATES (ANGSTROEM)
---------------------------------
  O      0.494985    1.305429    0.095621
  C      0.593973    0.166566   -0.287762
  C     -0.434154   -0.819543    0.204140
  H      0.048546   -1.642932    0.733135
  H      1.394550   -0.162939   -0.969772
  H     -0.971400   -1.261626   -0.636702
  H     -1.124300   -0.303356    0.861341

 Multiplicity           Mult            ....    1
 Number of Electrons    NEL             ....   24
 Basis Dimension        Dim             ....  182

ORBITAL ENERGIES
----------------

  NO   OCC          E(Eh)            E(eV)
   0   2.0000     -19.337534      -526.2010
   1   2.0000     -10.443174      -284.1732
   2   2.0000     -10.353122      -281.7228
   3   2.0000      -1.186780       -32.2939
   4   2.0000      -0.875723       -23.8296
   5   2.0000      -0.707298       -19.2466
   6   2.0000      -0.598759       -16.2931
   7   2.0000      -0.557037       -15.1577
   8   2.0000      -0.548383       -14.9223
   9   2.0000      -0.507322       -13.8049
  10   2.0000      -0.472817       -12.8660
  11   2.0000      -0.367855       -10.0098
  12   0.0000       0.038870         1.0577
  13   0.0000       0.051884         1.4118
  14   0.0000       0.059016         1.6059
  15   0.0000       0.084424         2.2973
  16   0.0000       0.086929         2.3655

MULLIKEN ATOMIC CHARGES
-----------------------
   0 O :   -0.473420
   1 C :    0.242098
   2 C :   -0.692586
   3 H :    0.220586
   4 H :    0.243782
   5 H :    0.220023
   6 H :    0.239516
Sum of atomic charges:   -0.0000000

LOEWDIN ATOMIC CHARGES
----------------------
   0 O :    0.056623
   1 C :   -0.206166
   2 C :    0.165235
   3 H :   -0.014101
   4 H :    0.023254
   5 H :   -0.013903
   6 H :   -0.010943

  Mayer bond orders larger than 0.100000
B(  0-O ,  1-C ) :   1.7718 B(  1-C ,  2-C ) :   0.7749 B(  1-C ,  4-H ) :   0.9817
B(  2-C ,  3-H ) :   0.9941 B(  2-C ,  5-H ) :   0.9934 B(  2-C ,  6-H ) :   0.9589

Dispersion correction           -0.005550799
FINAL SINGLE POINT ENERGY      -153.929453664257

DIPOLE MOMENT
-------------

Method             : SCF
Type of density    : Electron Density
Multiplicity       :   1
Irrep              :   0
Energy             :  -153.9239028655580910 Eh
Relativity type    :
Basis              : AO
                                X                 Y                 Z
Electronic contribution:      1.332825204       2.906150697      -0.193491833
Nuclear contribution   :     -1.390115767      -3.967992863      -0.053744795
                        -----------------------------------------
Total Dipole Moment    :     -0.057290563      -1.061842166      -0.247236628
                        -----------------------------------------
Magnitude (a.u.)       :      1.091749488
Magnitude (Debye)      :      2.775006664

Rotational constants in cm-1:             1.727020             0.360529             0.315494
Rotational constants in MHz :         51774.755020         10808.385233          9458.265370

                             ****ORCA TERMINATED NORMALLY****
TOTAL RUN TIME: 0 days 0 hours 10 minutes 34 seconds 472 msec
