                         Program Version 6.0.0  -   RELEASE  -
|  1> ! EnGrad wB97M-D3BJ def2-TZVPPD
|  2> %pal nprocs 8 end%pal nprocs 16 end
|  3> %tddft
|  4>  sf true
|  5>  nroots 2 Iroot 1 end
|  6> *xyz 0 3
|  7> O   -0.04203479493523 0.76375715440419 -2.733868223e-05
|  8> C   0.75659663608506 -0.4679688496896 -9.00781978e-06
|  9> C   -0.73582949820762 -0.40291744410073 2.413574909e-05
| 10> H   1.27915537430958 -0.65357544463866 0.92589621879157
| 11> H   1.2791461706141 -0.6537322636894 -0.92589028708251
| 12> H   -1.26738591649997 -0.65197621816911 -0.91408769204524
| 13> H   -1.26744797136592 -0.65198693411669 0.91409397108909
| 14> *
| 15>
| 16>                          ****END OF INPUT****

CARTESIAN COORDINATES (ANGSTROEM)
---------------------------------
  O     -0.042035    0.763757   -0.000027
  C      0.756597   -0.467969   -0.000009
  C     -0.735829   -0.402917    0.000024
  H      1.279155   -0.653575    0.925896
  H      1.279146   -0.653732   -0.925890
  H     -1.267386   -0.651976   -0.914088
  H     -1.267448   -0.651987    0.914094

 Total Charge           Charge          ....    0
 Multiplicity           Mult            ....    3
 Number of Electrons    NEL             ....   24
 Basis Dimension        Dim             ....  182

ORBITAL ENERGIES
----------------
                 SPIN UP ORBITALS
  NO   OCC          E(Eh)            E(eV)
   0   1.0000     -19.497791      -530.5619
   1   1.0000     -10.436691      -283.9968
   2   1.0000     -10.398880      -282.9679
   3   1.0000      -1.335653       -36.3450
   4   1.0000      -0.861747       -23.4493
   5   1.0000      -0.809557       -22.0292
   6   1.0000      -0.711933       -19.3727
   7   1.0000      -0.669934       -18.2298
   8   1.0000      -0.603379       -16.4188
   9   1.0000      -0.523816       -14.2538
  10   1.0000      -0.513538       -13.9741
  11   1.0000      -0.466900       -12.7050
  12   1.0000      -0.121718        -3.3121
  13   0.0000       0.032254         0.8777
  14   0.0000       0.057516         1.5651
  15   0.0000       0.067478         1.8362
  16   0.0000       0.082787         2.2527
  17   0.0000       0.105752         2.8777

                 SPIN DOWN ORBITALS
  NO   OCC          E(Eh)            E(eV)
   0   1.0000     -19.467014      -529.7244
   1   1.0000     -10.436111      -283.9810
   2   1.0000     -10.393146      -282.8119
   3   1.0000      -1.274987       -34.6942
   4   1.0000      -0.829645       -22.5758
   5   1.0000      -0.790149       -21.5010
   6   1.0000      -0.649689       -17.6789
   7   1.0000      -0.641735       -17.4625
   8   1.0000      -0.565919       -15.3994
   9   1.0000      -0.503928       -13.7126
  10   1.0000      -0.442799       -12.0492
  11   0.0000      -0.140993        -3.8366
  12   0.0000       0.031309         0.8520
  13   0.0000       0.057119         1.5543
  14   0.0000       0.064264         1.7487
  15   0.0000       0.070906         1.9295

----------------------------------------------------------------------------------------------------
          SPIN FLIP ABSORPTION SPECTRUM VIA TRANSITION ELECTRIC DIPOLE MOMENTS
----------------------------------------------------------------------------------------------------
     Transition      Energy     Energy  Wavelength fosc(D2)      D2        DX        DY        DZ
                      (eV)      (cm-1)    (nm)                 (au**2)    (au)      (au)      (au)
----------------------------------------------------------------------------------------------------
  1-3A  ->  2-3A    6.899806   55650.7   179.7   0.006665853   0.03943   0.00000   0.00050  -0.19858

Dispersion correction             ... done (  0.0 sec)

MULLIKEN ATOMIC CHARGES AND SPIN DENSITIES
------------------------------------------
   0 O :   -0.357137    0.070147
   1 C :   -0.388579   -0.077409
   2 C :   -0.133176   -0.046395
   3 H :    0.260282    0.011790
   4 H :    0.260278    0.011750
   5 H :    0.179166    0.015065
   6 H :    0.179167    0.015052
Sum of atomic charges       :    0.0000000

LOEWDIN ATOMIC CHARGES AND SPIN DENSITIES
-----------------------------------------
   0 O :   -0.094004    0.062489
   1 C :    0.097556   -0.037813
   2 C :   -0.066330   -0.004836
   3 H :    0.016631   -0.013366
   4 H :    0.016642   -0.013367
   5 H :    0.014753    0.003449
   6 H :    0.014752    0.003444

  Mayer bond orders larger than 0.100000
B(  0-O ,  1-C ) :   0.9711 B(  0-O ,  2-C ) :   0.8605 B(  1-C ,  2-C ) :   0.7197
B(  1-C ,  3-H ) :   0.9911 B(  1-C ,  4-H ) :   0.9911 B(  2-C ,  5-H ) :   1.0063
B(  2-C ,  6-H ) :   1.0064

Dispersion correction           -0.005208379
FINAL SINGLE POINT ENERGY      -153.874927757342

DIPOLE MOMENT
-------------

Method             : TDA/CIS
Type of density    : Electron Density
Level              : Relaxed density
State              :   1
Multiplicity       :   3
Irrep              :   0
Energy             :     0.0000000000000000 Eh
Relativity type    :
Basis              : AO
                                X                 Y                 Z
Electronic contribution:      0.115291624       0.848073738      -0.000003915
Nuclear contribution   :      0.055554727      -2.363874525       0.000031866
                        -----------------------------------------
Total Dipole Moment    :      0.170846351      -1.515800787       0.000027951
                        -----------------------------------------
Magnitude (a.u.)       :      1.525398473
Magnitude (Debye)      :      3.877254788

Rotational constants in cm-1:             0.901480             0.711895             0.474137
Rotational constants in MHz :         27025.687216         21342.061488         14214.255722

                             ****ORCA TERMINATED NORMALLY****
TOTAL RUN TIME: 0 days 0 hours 0 minutes 21 seconds 867 msec
