                         Program Version 6.0.0  -   RELEASE  -
|  1> ! Engrad def2-TZVPPD wB97M-D3BJ
|  2> %pal nprocs 8 end%pal nprocs 32 end
|  3>  %tddft nroots 2 Iroot 2
|  4> sf true
|  5> end
|  6> *xyz 0 3
|  7> O   4.15947966347198 -0.24698804904599 1.11866703745885
|  8> O   -2.17571653968849 1.90738473628395 -2.09095008180084
|  9> O   1.33384067974895 -2.86814268440992 -1.19126686157506
| 10> O   -3.61250921271715 -1.57682721911638 0.38736319222327
| 11> N   0.45434311680657 -0.99209567463598 -0.22988491473281
| 12> N   -1.93955694204518 -0.3095901348108 1.24820948742417
| 13> N   2.60579102985525 -1.69932197850404 0.29461141806296
| 14> N   -2.66198421370947 0.01875487733862 -0.929458013267
| 15> C   1.89320305207161 0.44037757381934 1.05961969580098
| 16> C   -1.11619677175023 1.61111609709092 -0.00475057917029
| 17> C   0.50612939805982 -0.20856463989022 0.99712478254774
| 18> C   -0.85029737265726 0.63597307068922 1.10719885223393
| 19> C   2.13830782574336 1.83759961135945 1.32460751255623
| 20> C   -0.56909150664641 2.96243654836363 0.02733768890999
| 21> C   2.99728196587261 -0.49249069625002 0.85899732505063
| 22> C   -1.99426955792682 1.23538038833298 -1.09196107835851
| 23> C   1.430003928987 -1.92743442164722 -0.44157447303717
| 24> C   -2.80107987250312 -0.68847926557514 0.2578499652192
| 25> H   0.48645948503748 -0.92522673917553 1.84084659100372
| 26> H   -0.76522358305757 1.2044619877732 2.03773437762491
| 27> H   3.16997378203368 2.00775524485391 1.61845868932943
| 28> H   1.93680974495619 2.46015914517767 0.42020886699929
| 29> H   1.43266807926715 2.24417381273261 2.05850952175655
| 30> H   -0.53746708738374 3.36787637593161 1.04159160062041
| 31> H   0.48974536181737 2.99345215476538 -0.31532291879545
| 32> H   -1.12055803007041 3.61882531007638 -0.63908783587153
| 33> H   -0.44665517044427 -1.26696163099104 -0.58648934664084
| 34> H   -2.01092035797679 -0.86031797528213 2.08485655855982
| 35> H   3.34884562106492 -2.34932332881798 0.08819956597627
| 36> H   -3.32875651621708 -0.2189624964365 -1.64664662610882
| 37> *
| 38>
| 39>                          ****END OF INPUT****

CARTESIAN COORDINATES (ANGSTROEM)
---------------------------------
  O      4.159480   -0.246988    1.118667
  O     -2.175717    1.907385   -2.090950
  O      1.333841   -2.868143   -1.191267
  O     -3.612509   -1.576827    0.387363
  N      0.454343   -0.992096   -0.229885
  N     -1.939557   -0.309590    1.248209
  N      2.605791   -1.699322    0.294611
  N     -2.661984    0.018755   -0.929458
  C      1.893203    0.440378    1.059620
  C     -1.116197    1.611116   -0.004751
  C      0.506129   -0.208565    0.997125
  C     -0.850297    0.635973    1.107199
  C      2.138308    1.837600    1.324608
  C     -0.569092    2.962437    0.027338
  C      2.997282   -0.492491    0.858997
  C     -1.994270    1.235380   -1.091961
  C      1.430004   -1.927434   -0.441574
  C     -2.801080   -0.688479    0.257850
  H      0.486459   -0.925227    1.840847
  H     -0.765224    1.204462    2.037734
  H      3.169974    2.007755    1.618459
  H      1.936810    2.460159    0.420209
  H      1.432668    2.244174    2.058510
  H     -0.537467    3.367876    1.041592
  H      0.489745    2.993452   -0.315323
  H     -1.120558    3.618825   -0.639088
  H     -0.446655   -1.266962   -0.586489
  H     -2.010920   -0.860318    2.084857
  H      3.348846   -2.349323    0.088200
  H     -3.328757   -0.218962   -1.646647

 Total Charge           Charge          ....    0
 Multiplicity           Mult            ....    3
 Number of Electrons    NEL             ....  132
 Basis Dimension        Dim             ....  882

ORBITAL ENERGIES
----------------
                 SPIN UP ORBITALS
  NO   OCC          E(Eh)            E(eV)
   0   1.0000     -19.343203      -526.3553
   1   1.0000     -19.337313      -526.1950
   2   1.0000     -19.326119      -525.8904
   3   1.0000     -19.321205      -525.7567
   4   1.0000     -14.570853      -396.4931
   5   1.0000     -14.570789      -396.4913
   6   1.0000     -14.562592      -396.2683
   7   1.0000     -14.558211      -396.1491
   8   1.0000     -10.513406      -286.0843
   9   1.0000     -10.504180      -285.8333
  10   1.0000     -10.489706      -285.4394
  11   1.0000     -10.482792      -285.2513
  12   1.0000     -10.460460      -284.6436
  13   1.0000     -10.450907      -284.3836
  14   1.0000     -10.428707      -283.7796
  15   1.0000     -10.419698      -283.5344
  16   1.0000     -10.380574      -282.4698
  17   1.0000     -10.379014      -282.4273
  18   1.0000      -1.228023       -33.4162
  19   1.0000      -1.220496       -33.2114
  20   1.0000      -1.205366       -32.7997
  21   1.0000      -1.199313       -32.6350
  22   1.0000      -1.124919       -30.6106
  23   1.0000      -1.104213       -30.0472
  24   1.0000      -1.072449       -29.1828
  25   1.0000      -1.057876       -28.7863
  26   1.0000      -0.986022       -26.8310
  27   1.0000      -0.964676       -26.2502
  28   1.0000      -0.898244       -24.4425
  29   1.0000      -0.848345       -23.0846
  30   1.0000      -0.838189       -22.8083
  31   1.0000      -0.797946       -21.7132
  32   1.0000      -0.793214       -21.5845
  33   1.0000      -0.783695       -21.3254
  34   1.0000      -0.707293       -19.2464
  35   1.0000      -0.700918       -19.0729
  36   1.0000      -0.696819       -18.9614
  37   1.0000      -0.677807       -18.4441
  38   1.0000      -0.649350       -17.6697
  39   1.0000      -0.640387       -17.4258
  40   1.0000      -0.630388       -17.1537
  41   1.0000      -0.610705       -16.6181
  42   1.0000      -0.604601       -16.4520
  43   1.0000      -0.588999       -16.0275
  44   1.0000      -0.585117       -15.9218
  45   1.0000      -0.576802       -15.6956
  46   1.0000      -0.573064       -15.5939
  47   1.0000      -0.569685       -15.5019
  48   1.0000      -0.567352       -15.4384
  49   1.0000      -0.561348       -15.2751
  50   1.0000      -0.555262       -15.1094
  51   1.0000      -0.546410       -14.8686
  52   1.0000      -0.543864       -14.7993
  53   1.0000      -0.524863       -14.2823
  54   1.0000      -0.516275       -14.0486
  55   1.0000      -0.515280       -14.0215
  56   1.0000      -0.497422       -13.5355
  57   1.0000      -0.428993       -11.6735
  58   1.0000      -0.427810       -11.6413
  59   1.0000      -0.413946       -11.2640
  60   1.0000      -0.408346       -11.1117
  61   1.0000      -0.402516       -10.9530
  62   1.0000      -0.399620       -10.8742
  63   1.0000      -0.391271       -10.6470
  64   1.0000      -0.385070       -10.4783
  65   1.0000      -0.349726        -9.5165
  66   1.0000      -0.338212        -9.2032
  67   0.0000       0.006580         0.1791
  68   0.0000       0.027832         0.7574
  69   0.0000       0.032233         0.8771
  70   0.0000       0.032903         0.8953
  71   0.0000       0.053815         1.4644

                 SPIN DOWN ORBITALS
  NO   OCC          E(Eh)            E(eV)
   0   1.0000     -19.338752      -526.2342
   1   1.0000     -19.333022      -526.0783
   2   1.0000     -19.326018      -525.8877
   3   1.0000     -19.321057      -525.7527
   4   1.0000     -14.570708      -396.4891
   5   1.0000     -14.570298      -396.4780
   6   1.0000     -14.562273      -396.2596
   7   1.0000     -14.557565      -396.1315
   8   1.0000     -10.513440      -286.0852
   9   1.0000     -10.504206      -285.8340
  10   1.0000     -10.490759      -285.4681
  11   1.0000     -10.483768      -285.2778
  12   1.0000     -10.461217      -284.6642
  13   1.0000     -10.450416      -284.3703
  14   1.0000     -10.417444      -283.4731
  15   1.0000     -10.408172      -283.2208
  16   1.0000     -10.381158      -282.4857
  17   1.0000     -10.379605      -282.4434
  18   1.0000      -1.226261       -33.3683
  19   1.0000      -1.218580       -33.1592
  20   1.0000      -1.200353       -32.6633
  21   1.0000      -1.194508       -32.5042
  22   1.0000      -1.122742       -30.5514
  23   1.0000      -1.101907       -29.9844
  24   1.0000      -1.070834       -29.1389
  25   1.0000      -1.056365       -28.7452
  26   1.0000      -0.972502       -26.4631
  27   1.0000      -0.947035       -25.7701
  28   1.0000      -0.894336       -24.3361
  29   1.0000      -0.843040       -22.9403
  30   1.0000      -0.828585       -22.5470
  31   1.0000      -0.795125       -21.6364
  32   1.0000      -0.789770       -21.4907
  33   1.0000      -0.782196       -21.2846
  34   1.0000      -0.702503       -19.1161
  35   1.0000      -0.694426       -18.8963
  36   1.0000      -0.691041       -18.8042
  37   1.0000      -0.670266       -18.2389
  38   1.0000      -0.642504       -17.4834
  39   1.0000      -0.630334       -17.1523
  40   1.0000      -0.626743       -17.0545
  41   1.0000      -0.604638       -16.4530
  42   1.0000      -0.599251       -16.3064
  43   1.0000      -0.583550       -15.8792
  44   1.0000      -0.578494       -15.7416
  45   1.0000      -0.569657       -15.5012
  46   1.0000      -0.567195       -15.4342
  47   1.0000      -0.562953       -15.3187
  48   1.0000      -0.561168       -15.2702
  49   1.0000      -0.553839       -15.0707
  50   1.0000      -0.545446       -14.8423
  51   1.0000      -0.539771       -14.6879
  52   1.0000      -0.533159       -14.5080
  53   1.0000      -0.515459       -14.0264
  54   1.0000      -0.510348       -13.8873
  55   1.0000      -0.505553       -13.7568
  56   1.0000      -0.492180       -13.3929
  57   1.0000      -0.425347       -11.5743
  58   1.0000      -0.423363       -11.5203
  59   1.0000      -0.401548       -10.9267
  60   1.0000      -0.400033       -10.8854
  61   1.0000      -0.396708       -10.7950
  62   1.0000      -0.395071       -10.7504
  63   1.0000      -0.386106       -10.5065
  64   1.0000      -0.382266       -10.4020
  65   0.0000      -0.068540        -1.8651
  66   0.0000      -0.052562        -1.4303
  67   0.0000       0.006046         0.1645
  68   0.0000       0.027558         0.7499
  69   0.0000       0.032204         0.8763

----------------------------------------------------------------------------------------------------
          SPIN FLIP ABSORPTION SPECTRUM VIA TRANSITION ELECTRIC DIPOLE MOMENTS
----------------------------------------------------------------------------------------------------
     Transition      Energy     Energy  Wavelength fosc(D2)      D2        DX        DY        DZ
                      (eV)      (cm-1)    (nm)                 (au**2)    (au)      (au)      (au)
----------------------------------------------------------------------------------------------------
  1-3A  ->  2-3A    0.030807     248.5  40245.6   0.000000686   0.00091  -0.02587   0.00987  -0.01191

Dispersion correction             ... done (  0.1 sec)

MULLIKEN ATOMIC CHARGES AND SPIN DENSITIES
------------------------------------------
   0 O :   -0.647721   -0.149272
   1 O :   -0.650686    0.153442
   2 O :   -0.629419   -0.003145
   3 O :   -0.644493    0.003346
   4 N :   -0.243999   -0.047270
   5 N :   -0.197800    0.015531
   6 N :   -0.034218   -0.017928
   7 N :   -0.010492    0.020011
   8 C :    1.294933    0.269787
   9 C :    0.258456    0.409334
  10 C :    0.079598   -0.331724
  11 C :    0.293483    0.045781
  12 C :   -1.403497   -0.084479
  13 C :   -1.437512    0.014172
  14 C :   -0.048949   -0.377286
  15 C :    0.516806    0.127175
  16 C :    0.283765    0.007394
  17 C :    0.409131   -0.001280
  18 H :    0.317852   -0.082338
  19 H :    0.505162   -0.000880
  20 H :    0.300019   -0.019709
  21 H :    0.198220   -0.033834
  22 H :    0.311150    0.020852
  23 H :    0.321441    0.004050
  24 H :    0.198067    0.034035
  25 H :    0.340958    0.016221
  26 H :    0.151133    0.004532
  27 H :    0.042991    0.000117
  28 H :    0.088075    0.004885
  29 H :    0.037544   -0.001519
Sum of atomic charges       :    0.0000000

LOEWDIN ATOMIC CHARGES AND SPIN DENSITIES
-----------------------------------------
   0 O :    0.081851   -0.134751
   1 O :    0.102829    0.135378
   2 O :    0.098069   -0.005070
   3 O :    0.092455    0.003411
   4 N :    0.278714   -0.015462
   5 N :    0.273136    0.004298
   6 N :    0.318831   -0.012708
   7 N :    0.317913    0.018271
   8 C :    0.021446   -0.465928
   9 C :   -0.013975    0.470709
  10 C :   -0.084830   -0.023767
  11 C :   -0.090832    0.056308
  12 C :    0.173271   -0.085521
  13 C :    0.179496    0.075985
  14 C :   -0.426059   -0.083520
  15 C :   -0.389984    0.077688
  16 C :   -0.472002   -0.001855
  17 C :   -0.497875    0.000900
  18 H :    0.059159   -0.016095
  19 H :    0.048901    0.007890
  20 H :    0.006923   -0.001792
  21 H :    0.002650   -0.030132
  22 H :    0.007367   -0.013356
  23 H :    0.008938    0.010508
  24 H :   -0.003851    0.026739
  25 H :    0.003496    0.003111
  26 H :   -0.045832   -0.001689
  27 H :   -0.025064    0.000009
  28 H :   -0.014379   -0.001080
  29 H :   -0.010761    0.001521

  Mayer bond orders larger than 0.100000
B(  0-O ,  8-C ) :   0.1312 B(  0-O , 14-C ) :   1.3366 B(  1-O , 15-C ) :   1.3426
B(  2-O , 16-C ) :   1.6020 B(  3-O , 17-C ) :   1.6014 B(  4-N ,  8-C ) :   0.2406
B(  4-N , 10-C ) :   0.1332 B(  4-N , 11-C ) :   0.1769 B(  4-N , 16-C ) :   1.1854
B(  4-N , 26-H ) :   0.9760 B(  5-N ,  9-C ) :   0.1044 B(  5-N , 10-C ) :   0.2072
B(  5-N , 11-C ) :   0.2445 B(  5-N , 17-C ) :   1.0843 B(  5-N , 27-H ) :   1.1283
B(  6-N , 14-C ) :   0.9742 B(  6-N , 16-C ) :   0.9465 B(  6-N , 28-H ) :   1.0540
B(  7-N , 15-C ) :   1.0287 B(  7-N , 17-C ) :   1.0006 B(  7-N , 29-H ) :   1.0973
B(  8-C , 10-C ) :  -0.2976 B(  8-C , 11-C ) :   0.2003 B(  8-C , 12-C ) :   0.1382
B(  8-C , 14-C ) :   0.4855 B(  8-C , 20-H ) :  -0.1116 B(  8-C , 22-H ) :  -0.1052
B(  9-C , 10-C ) :   0.2650 B(  9-C , 13-C ) :   0.2792 B(  9-C , 15-C ) :   0.6618
B(  9-C , 19-H ) :  -0.2059 B(  9-C , 23-H ) :  -0.1277 B( 10-C , 11-C ) :   0.6804
B( 10-C , 12-C ) :   0.1398 B( 10-C , 14-C ) :   0.2654 B( 10-C , 16-C ) :  -0.1124
B( 10-C , 18-H ) :   0.7786 B( 11-C , 13-C ) :  -0.2674 B( 11-C , 17-C ) :  -0.1562
B( 11-C , 19-H ) :   0.8501 B( 12-C , 14-C ) :  -0.1001 B( 12-C , 20-H ) :   1.0641
B( 12-C , 21-H ) :   0.8644 B( 12-C , 22-H ) :   0.9588 B( 13-C , 23-H ) :   1.0357
B( 13-C , 24-H ) :   0.9462 B( 13-C , 25-H ) :   0.9128

Dispersion correction           -0.056743548
FINAL SINGLE POINT ENERGY      -908.792746293710

DIPOLE MOMENT
-------------

Method             : TDA/CIS
Type of density    : Electron Density
Level              : Relaxed density
State              :   2
Multiplicity       :   3
Irrep              :   0
Energy             :     0.0000000000000000 Eh
Relativity type    :
Basis              : AO
                                X                 Y                 Z
Electronic contribution:     -2.856423090     -10.132110645      -4.198877933
Nuclear contribution   :      2.658058962      11.864792987       5.946458200
                        -----------------------------------------
Total Dipole Moment    :     -0.198364128       1.732682341       1.747580267
                        -----------------------------------------
Magnitude (a.u.)       :      2.468921468
Magnitude (Debye)      :      6.275499649

Rotational constants in cm-1:             0.021481             0.010712             0.008708
Rotational constants in MHz :           643.983955           321.125879           261.065024

                             ****ORCA TERMINATED NORMALLY****
TOTAL RUN TIME: 0 days 0 hours 5 minutes 16 seconds 169 msec
