                         Program Version 6.0.0  -   RELEASE  -
|  1> ! Engrad wB97M-D3BJ def2-TZVPPD
|  2> %pal nprocs 8 end%pal nprocs 16 end
|  3> %tddft nroots 2 Iroot 1
|  4>  sf true
|  5> end
|  6> *xyz 0 3
|  7> O   0.11068045559005 0.83180748516437 -5.221968425e-05
|  8> C   0.7246205549766 -0.40756928117441 7.913066306e-05
|  9> C   -0.70567434645252 -0.46886098801581 -0.00011545578122
| 10> H   1.26326479691296 -0.66867721500333 0.90751642920446
| 11> H   1.26314790418541 -0.66891716333076 -0.90738962796967
| 12> H   -1.24207571605442 -0.62340737468044 -0.92306163759046
| 13> H   -1.24183360519461 -0.62325066652055 0.92302338115808
| 14> *
| 15>
| 16>                          ****END OF INPUT****

CARTESIAN COORDINATES (ANGSTROEM)
---------------------------------
  O      0.110680    0.831807   -0.000052
  C      0.724621   -0.407569    0.000079
  C     -0.705674   -0.468861   -0.000115
  H      1.263265   -0.668677    0.907516
  H      1.263148   -0.668917   -0.907390
  H     -1.242076   -0.623407   -0.923062
  H     -1.241834   -0.623251    0.923023

 Total Charge           Charge          ....    0
 Multiplicity           Mult            ....    3
 Number of Electrons    NEL             ....   24
 Basis Dimension        Dim             ....  182

ORBITAL ENERGIES
----------------
                 SPIN UP ORBITALS
  NO   OCC          E(Eh)            E(eV)
   0   1.0000     -19.472498      -529.8736
   1   1.0000     -10.425203      -283.6842
   2   1.0000     -10.369915      -282.1797
   3   1.0000      -1.297521       -35.3073
   4   1.0000      -0.865707       -23.5571
   5   1.0000      -0.782052       -21.2807
   6   1.0000      -0.690010       -18.7761
   7   1.0000      -0.652640       -17.7592
   8   1.0000      -0.574800       -15.6411
   9   1.0000      -0.509334       -13.8597
  10   1.0000      -0.500833       -13.6284
  11   1.0000      -0.474693       -12.9171
  12   1.0000      -0.145126        -3.9491
  13   0.0000       0.036319         0.9883
  14   0.0000       0.060567         1.6481
  15   0.0000       0.070196         1.9101
  16   0.0000       0.087223         2.3735
  17   0.0000       0.109008         2.9663

                 SPIN DOWN ORBITALS
  NO   OCC          E(Eh)            E(eV)
   0   1.0000     -19.439759      -528.9827
   1   1.0000     -10.425328      -283.6876
   2   1.0000     -10.361856      -281.9604
   3   1.0000      -1.231044       -33.4984
   4   1.0000      -0.832259       -22.6469
   5   1.0000      -0.763684       -20.7809
   6   1.0000      -0.634128       -17.2555
   7   1.0000      -0.620726       -16.8908
   8   1.0000      -0.536279       -14.5929
   9   1.0000      -0.486177       -13.2295
  10   1.0000      -0.444664       -12.0999
  11   0.0000      -0.119471        -3.2510
  12   0.0000       0.032966         0.8971
  13   0.0000       0.056717         1.5434
  14   0.0000       0.064345         1.7509
  15   0.0000       0.064817         1.7638

----------------------------------------------------------------------------------------------------
          SPIN FLIP ABSORPTION SPECTRUM VIA TRANSITION ELECTRIC DIPOLE MOMENTS
----------------------------------------------------------------------------------------------------
     Transition      Energy     Energy  Wavelength fosc(D2)      D2        DX        DY        DZ
                      (eV)      (cm-1)    (nm)                 (au**2)    (au)      (au)      (au)
----------------------------------------------------------------------------------------------------
  1-3A  ->  2-3A    6.441720   51956.0   192.5   0.007232739   0.04583  -0.00012  -0.00006   0.21408

Dispersion correction             ... done (  0.0 sec)

MULLIKEN ATOMIC CHARGES AND SPIN DENSITIES
------------------------------------------
   0 O :   -0.370848    0.067477
   1 C :   -0.100507   -0.110416
   2 C :   -0.474193    0.041400
   3 H :    0.187625    0.019461
   4 H :    0.187519    0.019528
   5 H :    0.285243   -0.018743
   6 H :    0.285160   -0.018707
Sum of atomic charges       :    0.0000000

LOEWDIN ATOMIC CHARGES AND SPIN DENSITIES
-----------------------------------------
   0 O :   -0.071491    0.042985
   1 C :   -0.108185   -0.009085
   2 C :    0.109160   -0.024078
   3 H :    0.020959    0.003474
   4 H :    0.020963    0.003474
   5 H :    0.014301   -0.008386
   6 H :    0.014293   -0.008385

  Mayer bond orders larger than 0.100000
B(  0-O ,  1-C ) :   0.8229 B(  0-O ,  2-C ) :   0.8806 B(  1-C ,  2-C ) :   0.6894
B(  1-C ,  3-H ) :   1.0218 B(  1-C ,  4-H ) :   1.0219 B(  2-C ,  5-H ) :   0.9246
B(  2-C ,  6-H ) :   0.9247

Dispersion correction           -0.005236167
FINAL SINGLE POINT ENERGY      -153.868809458741

DIPOLE MOMENT
-------------

Method             : TDA/CIS
Type of density    : Electron Density
Level              : Relaxed density
State              :   1
Multiplicity       :   3
Irrep              :   0
Energy             :     0.0000000000000000 Eh
Relativity type    :
Basis              : AO
                                X                 Y                 Z
Electronic contribution:     -0.072690536       1.128299821      -0.000173564
Nuclear contribution   :     -0.133053227      -2.427265253       0.000183429
                        -----------------------------------------
Total Dipole Moment    :     -0.205743763      -1.298965432       0.000009864
                        -----------------------------------------
Magnitude (a.u.)       :      1.315158428
Magnitude (Debye)      :      3.342867062

Rotational constants in cm-1:             0.861843             0.723474             0.466901
Rotational constants in MHz :         25837.415735         21689.197900         13997.325180

                             ****ORCA TERMINATED NORMALLY****
TOTAL RUN TIME: 0 days 0 hours 0 minutes 20 seconds 417 msec
