                         Program Version 6.0.0  -   RELEASE  -
|  1> ! Opt wB97M-D3BJ def2-TZVPPD
|  2> %pal nprocs 8 end %pal nprocs 64 end
|  3> %geom
|  4> Constraints
|  5>     {A 2 1 0 119.4915254237288 C }
|  6> end
|  7> MaxIter 200
|  8> end
|  9> *xyz 0 1
| 10> O   1.4556634460208402 0.8417289073534674 0.0
| 11> C   0.7509 -0.4065 0.0
| 12> C   -0.7502 -0.4076 0.0
| 13> H   1.2625 -0.6786 0.9136
| 14> H   1.2625 -0.6787 -0.9136
| 15> H   -1.2614 -0.6806 -0.9136
| 16> H   -1.2614 -0.6805 0.9136
| 17> *
| 18>
| 19>                          ****END OF INPUT****
 Total Charge           Charge          ....    0
 Multiplicity           Mult            ....    1
 Number of Electrons    NEL             ....   24
Dispersion correction           -0.005394596
FINAL SINGLE POINT ENERGY      -153.693779492431
Dispersion correction             ... done (  0.1 sec)
Dispersion correction           -0.005444003
FINAL SINGLE POINT ENERGY      -153.709527069066
Dispersion correction             ... done (  0.1 sec)
Dispersion correction           -0.005512099
FINAL SINGLE POINT ENERGY      -153.728190608140
Dispersion correction             ... done (  0.1 sec)
FINAL SINGLE POINT ENERGY      -153.734235234456
FINAL SINGLE POINT ENERGY      -153.739081477242
FINAL SINGLE POINT ENERGY      -153.744630693990
FINAL SINGLE POINT ENERGY      -153.747968759861
FINAL SINGLE POINT ENERGY      -153.755034361049
FINAL SINGLE POINT ENERGY      -153.763256876268
FINAL SINGLE POINT ENERGY      -153.771855796300
FINAL SINGLE POINT ENERGY      -153.930553884474
FINAL SINGLE POINT ENERGY      -153.930603291395
FINAL SINGLE POINT ENERGY      -153.930664343449
FINAL SINGLE POINT ENERGY      -153.930725667432
FINAL SINGLE POINT ENERGY      -153.930762918375
FINAL SINGLE POINT ENERGY      -153.930774094961
FINAL SINGLE POINT ENERGY      -153.930777740861
Dispersion correction             ... done (  0.1 sec)
Dispersion correction           -0.005547011
FINAL SINGLE POINT ENERGY      -153.930778230376
Dispersion correction             ... done (  0.1 sec)
Dispersion correction           -0.005547085
FINAL SINGLE POINT ENERGY      -153.930778385876
Dispersion correction             ... done (  0.1 sec)
                    ***********************HURRAY********************

CARTESIAN COORDINATES (ANGSTROEM)
---------------------------------
  O      1.093703    1.166011   -0.059294
  C      0.896098    0.032783    0.297435
  C     -0.307457   -0.706827   -0.218943
  H      1.575509   -0.484116    0.996744
  H      0.003766   -1.613645   -0.739851
  H     -0.864361   -0.060880   -0.888696
  H     -0.938694   -1.024097    0.612605

 Multiplicity           Mult            ....    1
 Number of Electrons    NEL             ....   24
 Basis Dimension        Dim             ....  182

ORBITAL ENERGIES
----------------

  NO   OCC          E(Eh)            E(eV)
   0   2.0000     -19.337988      -526.2134
   1   2.0000     -10.442975      -284.1678
   2   2.0000     -10.354227      -281.7528
   3   2.0000      -1.187203       -32.3054
   4   2.0000      -0.878299       -23.8997
   5   2.0000      -0.705856       -19.2073
   6   2.0000      -0.598693       -16.2913
   7   2.0000      -0.558175       -15.1887
   8   2.0000      -0.550077       -14.9684
   9   2.0000      -0.507536       -13.8108
  10   2.0000      -0.473790       -12.8925
  11   2.0000      -0.368326       -10.0227
  12   0.0000       0.038551         1.0490
  13   0.0000       0.052779         1.4362
  14   0.0000       0.059089         1.6079
  15   0.0000       0.084117         2.2889
  16   0.0000       0.086728         2.3600

MULLIKEN ATOMIC CHARGES
-----------------------
   0 O :   -0.474145
   1 C :    0.239394
   2 C :   -0.693203
   3 H :    0.243914
   4 H :    0.221607
   5 H :    0.240899
   6 H :    0.221534
Sum of atomic charges:   -0.0000000

LOEWDIN ATOMIC CHARGES
----------------------
   0 O :    0.060595
   1 C :   -0.214000
   2 C :    0.166230
   3 H :    0.023373
   4 H :   -0.013077
   5 H :   -0.010059
   6 H :   -0.013063

  Mayer bond orders larger than 0.100000
B(  0-O ,  1-C ) :   1.7710 B(  1-C ,  2-C ) :   0.7696 B(  1-C ,  3-H ) :   0.9823
B(  2-C ,  4-H ) :   0.9939 B(  2-C ,  5-H ) :   0.9579 B(  2-C ,  6-H ) :   0.9939

Dispersion correction           -0.005547010
FINAL SINGLE POINT ENERGY      -153.930778397854

DIPOLE MOMENT
-------------

Method             : SCF
Type of density    : Electron Density
Multiplicity       :   1
Irrep              :   0
Energy             :  -153.9252313880400607 Eh
Relativity type    :
Basis              : AO
                                X                 Y                 Z
Electronic contribution:      1.944541047       2.567057797       0.235443175
Nuclear contribution   :     -2.275608659      -3.597386099      -0.016730441
                        -----------------------------------------
Total Dipole Moment    :     -0.331067612      -1.030328302       0.218712734
                        -----------------------------------------
Magnitude (a.u.)       :      1.104091225
Magnitude (Debye)      :      2.806376868

Rotational constants in cm-1:             1.782004             0.354317             0.312478
Rotational constants in MHz :         53423.144353         10622.160284          9367.843812

                             ****ORCA TERMINATED NORMALLY****
TOTAL RUN TIME: 0 days 0 hours 9 minutes 27 seconds 392 msec
