                         Program Version 6.0.0  -   RELEASE  -
|  1> ! Engrad def2-TZVPPD wB97M-D3BJ
|  2> %pal nprocs 8 end%pal nprocs 32 end
|  3> %tddft Nroots 2 Iroot 1
|  4> sf true
|  5> end
|  6> *xyz 0 3
|  7> O   2.84834102 1.26864783 -0.50752794
|  8> O   -0.49119208 0.50742963 -1.97696308
|  9> O   1.3264121 -2.86046592 -1.64335578
| 10> O   -3.03835042 -1.48403626 1.19621181
| 11> N   0.66546166 -1.95086753 0.33792837
| 12> N   -2.21495711 0.60509219 1.60360989
| 13> N   2.08900858 -0.79682206 -1.04381376
| 14> N   -1.86650657 -0.39689655 -0.4343396
| 15> C   1.27155783 0.28477842 0.95301838
| 16> C   -0.74157493 1.67741482 0.07151904
| 17> C   0.66003693 -0.91409429 1.22840073
| 18> C   -1.46925966 1.6882934 1.19827584
| 19> C   1.46988487 1.30932358 2.01764019
| 20> C   -0.00356253 2.87721356 -0.42827072
| 21> C   2.11633219 0.33586341 -0.22858228
| 22> C   -0.98202454 0.58636183 -0.87553233
| 23> C   1.35579079 -1.93964245 -0.85684966
| 24> C   -2.42181985 -0.50652364 0.82007568
| 25> H   0.13920205 -1.07689063 2.14292123
| 26> H   -1.44123395 2.51283831 1.88872845
| 27> H   1.36088338 2.31866878 1.63993562
| 28> H   0.77450672 1.16238783 2.84008398
| 29> H   2.48916749 1.23928261 2.41375711
| 30> H   -0.44404867 3.21271038 -1.35501254
| 31> H   -0.05485235 3.68985572 0.30218802
| 32> H   1.0450856 2.66589405 -0.63111681
| 33> H   0.13250123 -2.77940735 0.5275994
| 34> H   -2.68491234 0.59855631 2.49045441
| 35> H   2.6097488 -0.73465756 -1.90389203
| 36> H   -2.00539314 -1.18441671 -1.0454899
| 37> *
| 38>
| 39>                          ****END OF INPUT****

CARTESIAN COORDINATES (ANGSTROEM)
---------------------------------
  O      2.848341    1.268648   -0.507528
  O     -0.491192    0.507430   -1.976963
  O      1.326412   -2.860466   -1.643356
  O     -3.038350   -1.484036    1.196212
  N      0.665462   -1.950868    0.337928
  N     -2.214957    0.605092    1.603610
  N      2.089009   -0.796822   -1.043814
  N     -1.866507   -0.396897   -0.434340
  C      1.271558    0.284778    0.953018
  C     -0.741575    1.677415    0.071519
  C      0.660037   -0.914094    1.228401
  C     -1.469260    1.688293    1.198276
  C      1.469885    1.309324    2.017640
  C     -0.003563    2.877214   -0.428271
  C      2.116332    0.335863   -0.228582
  C     -0.982025    0.586362   -0.875532
  C      1.355791   -1.939642   -0.856850
  C     -2.421820   -0.506524    0.820076
  H      0.139202   -1.076891    2.142921
  H     -1.441234    2.512838    1.888728
  H      1.360883    2.318669    1.639936
  H      0.774507    1.162388    2.840084
  H      2.489167    1.239283    2.413757
  H     -0.444049    3.212710   -1.355013
  H     -0.054852    3.689856    0.302188
  H      1.045086    2.665894   -0.631117
  H      0.132501   -2.779407    0.527599
  H     -2.684912    0.598556    2.490454
  H      2.609749   -0.734658   -1.903892
  H     -2.005393   -1.184417   -1.045490

 Total Charge           Charge          ....    0
 Multiplicity           Mult            ....    3
 Number of Electrons    NEL             ....  132
 Basis Dimension        Dim             ....  882

ORBITAL ENERGIES
----------------
                 SPIN UP ORBITALS
  NO   OCC          E(Eh)            E(eV)
   0   1.0000     -19.332049      -526.0518
   1   1.0000     -19.327292      -525.9223
   2   1.0000     -19.324838      -525.8556
   3   1.0000     -19.318864      -525.6930
   4   1.0000     -14.589568      -397.0023
   5   1.0000     -14.586597      -396.9215
   6   1.0000     -14.572949      -396.5501
   7   1.0000     -14.547523      -395.8582
   8   1.0000     -10.518063      -286.2110
   9   1.0000     -10.503900      -285.8257
  10   1.0000     -10.483015      -285.2574
  11   1.0000     -10.459138      -284.6076
  12   1.0000     -10.438387      -284.0430
  13   1.0000     -10.406450      -283.1739
  14   1.0000     -10.395011      -282.8626
  15   1.0000     -10.389149      -282.7031
  16   1.0000     -10.367495      -282.1139
  17   1.0000     -10.352784      -281.7136
  18   1.0000      -1.230664       -33.4881
  19   1.0000      -1.219772       -33.1917
  20   1.0000      -1.199435       -32.6383
  21   1.0000      -1.186550       -32.2877
  22   1.0000      -1.128998       -30.7216
  23   1.0000      -1.120361       -30.4866
  24   1.0000      -1.074978       -29.2516
  25   1.0000      -1.057857       -28.7858
  26   1.0000      -0.977107       -26.5884
  27   1.0000      -0.958171       -26.0731
  28   1.0000      -0.855014       -23.2661
  29   1.0000      -0.852349       -23.1936
  30   1.0000      -0.816715       -22.2239
  31   1.0000      -0.810431       -22.0529
  32   1.0000      -0.798323       -21.7235
  33   1.0000      -0.786104       -21.3910
  34   1.0000      -0.701893       -19.0995
  35   1.0000      -0.699932       -19.0461
  36   1.0000      -0.694862       -18.9082
  37   1.0000      -0.690238       -18.7823
  38   1.0000      -0.649011       -17.6605
  39   1.0000      -0.644725       -17.5438
  40   1.0000      -0.631438       -17.1823
  41   1.0000      -0.604004       -16.4358
  42   1.0000      -0.602475       -16.3942
  43   1.0000      -0.591123       -16.0853
  44   1.0000      -0.579518       -15.7695
  45   1.0000      -0.570478       -15.5235
  46   1.0000      -0.563889       -15.3442
  47   1.0000      -0.555948       -15.1281
  48   1.0000      -0.551972       -15.0199
  49   1.0000      -0.539926       -14.6921
  50   1.0000      -0.530700       -14.4411
  51   1.0000      -0.526986       -14.3400
  52   1.0000      -0.521510       -14.1910
  53   1.0000      -0.514264       -13.9938
  54   1.0000      -0.509022       -13.8512
  55   1.0000      -0.500634       -13.6229
  56   1.0000      -0.485785       -13.2189
  57   1.0000      -0.482983       -13.1426
  58   1.0000      -0.423716       -11.5299
  59   1.0000      -0.414350       -11.2750
  60   1.0000      -0.409562       -11.1447
  61   1.0000      -0.394720       -10.7409
  62   1.0000      -0.394236       -10.7277
  63   1.0000      -0.387945       -10.5565
  64   1.0000      -0.382207       -10.4004
  65   1.0000      -0.344120        -9.3640
  66   1.0000      -0.212326        -5.7777
  67   0.0000       0.008849         0.2408
  68   0.0000       0.016482         0.4485
  69   0.0000       0.029567         0.8046
  70   0.0000       0.037147         1.0108
  71   0.0000       0.040549         1.1034

                 SPIN DOWN ORBITALS
  NO   OCC          E(Eh)            E(eV)
   0   1.0000     -19.331777      -526.0444
   1   1.0000     -19.327556      -525.9295
   2   1.0000     -19.322858      -525.8017
   3   1.0000     -19.313347      -525.5429
   4   1.0000     -14.588795      -396.9813
   5   1.0000     -14.581986      -396.7960
   6   1.0000     -14.572993      -396.5513
   7   1.0000     -14.546744      -395.8370
   8   1.0000     -10.518062      -286.2110
   9   1.0000     -10.504236      -285.8348
  10   1.0000     -10.482882      -285.2537
  11   1.0000     -10.458934      -284.6021
  12   1.0000     -10.436300      -283.9862
  13   1.0000     -10.397082      -282.9190
  14   1.0000     -10.389608      -282.7156
  15   1.0000     -10.384574      -282.5786
  16   1.0000     -10.367949      -282.1262
  17   1.0000     -10.352712      -281.7116
  18   1.0000      -1.230121       -33.4733
  19   1.0000      -1.215498       -33.0754
  20   1.0000      -1.199548       -32.6414
  21   1.0000      -1.178403       -32.0660
  22   1.0000      -1.127496       -30.6807
  23   1.0000      -1.110216       -30.2105
  24   1.0000      -1.074529       -29.2394
  25   1.0000      -1.052868       -28.6500
  26   1.0000      -0.968306       -26.3489
  27   1.0000      -0.943853       -25.6835
  28   1.0000      -0.851020       -23.1574
  29   1.0000      -0.844090       -22.9689
  30   1.0000      -0.815169       -22.1819
  31   1.0000      -0.801129       -21.7998
  32   1.0000      -0.796432       -21.6720
  33   1.0000      -0.779900       -21.2221
  34   1.0000      -0.700610       -19.0646
  35   1.0000      -0.698025       -18.9942
  36   1.0000      -0.686198       -18.6724
  37   1.0000      -0.681507       -18.5447
  38   1.0000      -0.647337       -17.6149
  39   1.0000      -0.634183       -17.2570
  40   1.0000      -0.624341       -16.9892
  41   1.0000      -0.601929       -16.3793
  42   1.0000      -0.593543       -16.1511
  43   1.0000      -0.582939       -15.8626
  44   1.0000      -0.571010       -15.5380
  45   1.0000      -0.566739       -15.4218
  46   1.0000      -0.558444       -15.1960
  47   1.0000      -0.554495       -15.0886
  48   1.0000      -0.545248       -14.8369
  49   1.0000      -0.536368       -14.5953
  50   1.0000      -0.524223       -14.2648
  51   1.0000      -0.519726       -14.1425
  52   1.0000      -0.514925       -14.0118
  53   1.0000      -0.507782       -13.8175
  54   1.0000      -0.499238       -13.5849
  55   1.0000      -0.495549       -13.4846
  56   1.0000      -0.477052       -12.9813
  57   1.0000      -0.445778       -12.1302
  58   1.0000      -0.423065       -11.5122
  59   1.0000      -0.409945       -11.1552
  60   1.0000      -0.404329       -11.0023
  61   1.0000      -0.391801       -10.6615
  62   1.0000      -0.378581       -10.3017
  63   1.0000      -0.375379       -10.2146
  64   1.0000      -0.349956        -9.5228
  65   0.0000      -0.100562        -2.7364
  66   0.0000       0.008633         0.2349
  67   0.0000       0.022084         0.6009
  68   0.0000       0.026923         0.7326
  69   0.0000       0.033575         0.9136

----------------------------------------------------------------------------------------------------
          SPIN FLIP ABSORPTION SPECTRUM VIA TRANSITION ELECTRIC DIPOLE MOMENTS
----------------------------------------------------------------------------------------------------
     Transition      Energy     Energy  Wavelength fosc(D2)      D2        DX        DY        DZ
                      (eV)      (cm-1)    (nm)                 (au**2)    (au)      (au)      (au)
----------------------------------------------------------------------------------------------------
  1-3A  ->  2-3A    3.728566   30072.9   332.5   0.000632545   0.00692   0.02494   0.05406  -0.05813

Dispersion correction             ... done (  0.1 sec)

MULLIKEN ATOMIC CHARGES AND SPIN DENSITIES
------------------------------------------
   0 O :   -0.705718    0.025082
   1 O :   -0.652511    0.000716
   2 O :   -0.657365    0.007391
   3 O :   -0.673321    0.001368
   4 N :   -0.025400    0.047013
   5 N :    0.012413    0.003363
   6 N :    0.012542    0.000609
   7 N :   -0.028900    0.000640
   8 C :    1.161308    0.298865
   9 C :    0.410626    0.014891
  10 C :   -0.399778   -0.226659
  11 C :    0.209374   -0.001120
  12 C :   -1.540005   -0.021123
  13 C :   -1.506956    0.011589
  14 C :    0.241871   -0.173184
  15 C :    0.548511   -0.024393
  16 C :    0.515237    0.014016
  17 C :    0.457252   -0.001238
  18 H :    0.338439    0.018239
  19 H :    0.207189   -0.002593
  20 H :    0.262633   -0.004341
  21 H :    0.334187    0.004660
  22 H :    0.406641    0.008651
  23 H :    0.383035    0.000084
  24 H :    0.344853    0.001103
  25 H :    0.230523   -0.003349
  26 H :    0.029441   -0.000876
  27 H :    0.021601   -0.000398
  28 H :    0.025934    0.002495
  29 H :    0.036346   -0.001503
Sum of atomic charges       :   -0.0000000

LOEWDIN ATOMIC CHARGES AND SPIN DENSITIES
-----------------------------------------
   0 O :    0.075424    0.022254
   1 O :    0.113668    0.000321
   2 O :    0.091836    0.006081
   3 O :    0.073572    0.001157
   4 N :    0.296585    0.021109
   5 N :    0.286535    0.003887
   6 N :    0.344614   -0.001058
   7 N :    0.337490   -0.000885
   8 C :   -0.152736   -0.037381
   9 C :   -0.168500   -0.000328
  10 C :    0.069370   -0.027106
  11 C :    0.037461    0.008480
  12 C :    0.172748   -0.003932
  13 C :    0.187980   -0.000035
  14 C :   -0.406207    0.007087
  15 C :   -0.402830   -0.001449
  16 C :   -0.469531    0.000381
  17 C :   -0.490095    0.000312
  18 H :    0.027486   -0.001730
  19 H :    0.037112    0.001119
  20 H :   -0.018306   -0.000383
  21 H :   -0.003601    0.000382
  22 H :    0.015373   -0.000805
  23 H :    0.000833   -0.000020
  24 H :    0.004612    0.000008
  25 H :   -0.022156    0.000138
  26 H :   -0.013065    0.002048
  27 H :   -0.018656    0.000249
  28 H :   -0.001467    0.000156
  29 H :   -0.005550   -0.000057

  Mayer bond orders larger than 0.100000
B(  0-O , 14-C ) :   1.3701 B(  1-O , 15-C ) :   1.4358 B(  2-O , 16-C ) :   1.5641
B(  3-O , 17-C ) :   1.5502 B(  4-N , 10-C ) :   0.9050 B(  4-N , 16-C ) :   0.9974
B(  4-N , 26-H ) :   1.1451 B(  5-N , 11-C ) :   0.9659 B(  5-N , 17-C ) :   1.0432
B(  5-N , 27-H ) :   1.1343 B(  6-N , 14-C ) :   1.0677 B(  6-N , 16-C ) :   0.9917
B(  6-N , 28-H ) :   1.0994 B(  7-N , 15-C ) :   1.0105 B(  7-N , 17-C ) :   0.9615
B(  7-N , 29-H ) :   1.0931 B(  8-C ,  9-C ) :   0.1387 B(  8-C , 10-C ) :   0.9326
B(  8-C , 12-C ) :   0.2390 B(  8-C , 14-C ) :   0.6021 B(  8-C , 15-C ) :  -0.1789
B(  8-C , 18-H ) :  -0.1236 B(  8-C , 20-H ) :  -0.1363 B(  8-C , 21-H ) :  -0.1044
B(  9-C , 11-C ) :   0.9857 B(  9-C , 13-C ) :   0.5443 B(  9-C , 15-C ) :   0.6582
B(  9-C , 24-H ) :  -0.1175 B( 10-C , 12-C ) :  -0.1156 B( 10-C , 18-H ) :   1.0677
B( 11-C , 13-C ) :  -0.2433 B( 11-C , 19-H ) :   1.0986 B( 12-C , 20-H ) :   1.0349
B( 12-C , 21-H ) :   1.0498 B( 12-C , 22-H ) :   0.8021 B( 13-C , 23-H ) :   0.8295
B( 13-C , 24-H ) :   1.0564 B( 13-C , 25-H ) :   0.9709

Dispersion correction           -0.061695516
FINAL SINGLE POINT ENERGY      -908.906337266734

DIPOLE MOMENT
-------------

Method             : TDA/CIS
Type of density    : Electron Density
Level              : Relaxed density
State              :   1
Multiplicity       :   3
Irrep              :   0
Energy             :     0.0000000000000000 Eh
Relativity type    :
Basis              : AO
                                X                 Y                 Z
Electronic contribution:     -2.261054548      -9.984653822      -5.715922903
Nuclear contribution   :      1.410795222      10.858563072       7.982949698
                        -----------------------------------------
Total Dipole Moment    :     -0.850259326       0.873909250       2.267026795
                        -----------------------------------------
Magnitude (a.u.)       :      2.574115147
Magnitude (Debye)      :      6.542880733

Rotational constants in cm-1:             0.019627             0.015252             0.011888
Rotational constants in MHz :           588.407824           457.240728           356.407459

                             ****ORCA TERMINATED NORMALLY****
TOTAL RUN TIME: 0 days 0 hours 6 minutes 50 seconds 668 msec
