                         Program Version 6.0.0  -   RELEASE  -
|  1> ! Engrad def2-TZVPPD wB97M-D3BJ
|  2> %pal nprocs 8 end%pal nprocs 64 end
|  3>  %tddft nroots 2 Iroot 1
|  4> sf true
|  5> end
|  6> *xyz 0 3
|  7> O   3.12337495643686 0.51330335833155 -0.886249345843
|  8> O   -0.48586073622016 1.3924902587012 -2.30873518179894
|  9> O   0.41620037315636 -3.06832948552586 -0.50234316073261
| 10> O   -3.11200198445753 -1.64043188067527 -0.29221372282425
| 11> N   0.30426886196855 -1.49829811734919 1.13079846411055
| 12> N   -2.13422297578343 -0.06836089405897 1.03233909431467
| 13> N   1.57184401545295 -1.13680668962589 -0.79103162929346
| 14> N   -1.49172516268799 -0.31018051409782 -1.18793162793091
| 15> C   1.6396588342537 0.53157972134555 0.94233069283678
| 16> C   -0.68191424517048 1.58023807821192 0.04756031420119
| 17> C   0.37671578787624 -0.12521248473174 1.5730173070579
| 18> C   -0.95467803253268 0.71689886156854 1.27177532522822
| 19> C   2.36460697492905 1.57438113342902 1.68867047926256
| 20> C   -0.63241902723336 3.05027345264469 0.13056095501935
| 21> C   2.18755968267381 0.00436791856254 -0.30076922744344
| 22> C   -0.85032314903363 0.92472731971439 -1.25095770976622
| 23> C   0.72701479661088 -1.97776360289232 -0.08237381584969
| 24> C   -2.30905266984151 -0.75190883271347 -0.14668878128826
| 25> H   0.51377612714986 -0.14956994035703 2.6573114073163
| 26> H   -1.14177478047129 1.363402955809 2.12616220053039
| 27> H   3.18003119113204 1.97031991288222 1.09238920710122
| 28> H   1.70082739958199 2.39192806449738 1.98463296122799
| 29> H   2.7677757990134 1.15734409297148 2.6179597353941
| 30> H   -1.610481926976 3.44224905892258 0.43271858355931
| 31> H   0.08083929287975 3.37896063516507 0.89079050075391
| 32> H   -0.36661906664661 3.47730452129067 -0.83130213912156
| 33> H   -0.33814916446183 -2.12219037662125 1.58743866294016
| 34> H   -2.69570235331927 -0.40675953915545 1.79350532917329
| 35> H   1.93839500715118 -1.51395569793485 -1.6494360089758
| 36> H   -1.63536382543084 -0.78500128830873 -2.06532886915973
| 37> *
| 38>
| 39>                          ****END OF INPUT****

CARTESIAN COORDINATES (ANGSTROEM)
---------------------------------
  O      3.123375    0.513303   -0.886249
  O     -0.485861    1.392490   -2.308735
  O      0.416200   -3.068329   -0.502343
  O     -3.112002   -1.640432   -0.292214
  N      0.304269   -1.498298    1.130798
  N     -2.134223   -0.068361    1.032339
  N      1.571844   -1.136807   -0.791032
  N     -1.491725   -0.310181   -1.187932
  C      1.639659    0.531580    0.942331
  C     -0.681914    1.580238    0.047560
  C      0.376716   -0.125212    1.573017
  C     -0.954678    0.716899    1.271775
  C      2.364607    1.574381    1.688670
  C     -0.632419    3.050273    0.130561
  C      2.187560    0.004368   -0.300769
  C     -0.850323    0.924727   -1.250958
  C      0.727015   -1.977764   -0.082374
  C     -2.309053   -0.751909   -0.146689
  H      0.513776   -0.149570    2.657311
  H     -1.141775    1.363403    2.126162
  H      3.180031    1.970320    1.092389
  H      1.700827    2.391928    1.984633
  H      2.767776    1.157344    2.617960
  H     -1.610482    3.442249    0.432719
  H      0.080839    3.378961    0.890791
  H     -0.366619    3.477305   -0.831302
  H     -0.338149   -2.122190    1.587439
  H     -2.695702   -0.406760    1.793505
  H      1.938395   -1.513956   -1.649436
  H     -1.635364   -0.785001   -2.065329

 Total Charge           Charge          ....    0
 Multiplicity           Mult            ....    3
 Number of Electrons    NEL             ....  132
 Basis Dimension        Dim             ....  882

ORBITAL ENERGIES
----------------
                 SPIN UP ORBITALS
  NO   OCC          E(Eh)            E(eV)
   0   1.0000     -19.332615      -526.0672
   1   1.0000     -19.330643      -526.0135
   2   1.0000     -19.319884      -525.7208
   3   1.0000     -19.314197      -525.5660
   4   1.0000     -14.563767      -396.3002
   5   1.0000     -14.559043      -396.1717
   6   1.0000     -14.558025      -396.1440
   7   1.0000     -14.556822      -396.1113
   8   1.0000     -10.504045      -285.8296
   9   1.0000     -10.500531      -285.7340
  10   1.0000     -10.478594      -285.1370
  11   1.0000     -10.477826      -285.1161
  12   1.0000     -10.446397      -284.2609
  13   1.0000     -10.444218      -284.2016
  14   1.0000     -10.419609      -283.5320
  15   1.0000     -10.412938      -283.3504
  16   1.0000     -10.373524      -282.2779
  17   1.0000     -10.373155      -282.2679
  18   1.0000      -1.220865       -33.2214
  19   1.0000      -1.214758       -33.0553
  20   1.0000      -1.197292       -32.5800
  21   1.0000      -1.194010       -32.4907
  22   1.0000      -1.117577       -30.4108
  23   1.0000      -1.095244       -29.8031
  24   1.0000      -1.064843       -28.9758
  25   1.0000      -1.054556       -28.6959
  26   1.0000      -0.978598       -26.6290
  27   1.0000      -0.948864       -25.8199
  28   1.0000      -0.888146       -24.1677
  29   1.0000      -0.836087       -22.7511
  30   1.0000      -0.827984       -22.5306
  31   1.0000      -0.801572       -21.8119
  32   1.0000      -0.784866       -21.3573
  33   1.0000      -0.777471       -21.1561
  34   1.0000      -0.698319       -19.0022
  35   1.0000      -0.693602       -18.8739
  36   1.0000      -0.687537       -18.7088
  37   1.0000      -0.662932       -18.0393
  38   1.0000      -0.652765       -17.7626
  39   1.0000      -0.646435       -17.5904
  40   1.0000      -0.616752       -16.7827
  41   1.0000      -0.602732       -16.4012
  42   1.0000      -0.588342       -16.0096
  43   1.0000      -0.582224       -15.8431
  44   1.0000      -0.580665       -15.8007
  45   1.0000      -0.574652       -15.6371
  46   1.0000      -0.565566       -15.3898
  47   1.0000      -0.559578       -15.2269
  48   1.0000      -0.556924       -15.1547
  49   1.0000      -0.551030       -14.9943
  50   1.0000      -0.546680       -14.8759
  51   1.0000      -0.541196       -14.7267
  52   1.0000      -0.532565       -14.4918
  53   1.0000      -0.524814       -14.2809
  54   1.0000      -0.512814       -13.9544
  55   1.0000      -0.506698       -13.7879
  56   1.0000      -0.486655       -13.2425
  57   1.0000      -0.419782       -11.4229
  58   1.0000      -0.415705       -11.3119
  59   1.0000      -0.408079       -11.1044
  60   1.0000      -0.405418       -11.0320
  61   1.0000      -0.396141       -10.7796
  62   1.0000      -0.391805       -10.6616
  63   1.0000      -0.387217       -10.5367
  64   1.0000      -0.382986       -10.4216
  65   1.0000      -0.353230        -9.6119
  66   1.0000      -0.315955        -8.5976
  67   0.0000       0.005802         0.1579
  68   0.0000       0.028458         0.7744
  69   0.0000       0.030588         0.8323
  70   0.0000       0.039187         1.0663
  71   0.0000       0.056813         1.5460

                 SPIN DOWN ORBITALS
  NO   OCC          E(Eh)            E(eV)
   0   1.0000     -19.328529      -525.9560
   1   1.0000     -19.326096      -525.8898
   2   1.0000     -19.319649      -525.7144
   3   1.0000     -19.314069      -525.5625
   4   1.0000     -14.563190      -396.2846
   5   1.0000     -14.558724      -396.1630
   6   1.0000     -14.557637      -396.1335
   7   1.0000     -14.556576      -396.1046
   8   1.0000     -10.504056      -285.8299
   9   1.0000     -10.500548      -285.7344
  10   1.0000     -10.479563      -285.1634
  11   1.0000     -10.478882      -285.1449
  12   1.0000     -10.446312      -284.2586
  13   1.0000     -10.443965      -284.1947
  14   1.0000     -10.407856      -283.2122
  15   1.0000     -10.400944      -283.0241
  16   1.0000     -10.374129      -282.2944
  17   1.0000     -10.373711      -282.2830
  18   1.0000      -1.219176       -33.1755
  19   1.0000      -1.212843       -33.0031
  20   1.0000      -1.192407       -32.4470
  21   1.0000      -1.189032       -32.3552
  22   1.0000      -1.115146       -30.3447
  23   1.0000      -1.093194       -29.7473
  24   1.0000      -1.063189       -28.9309
  25   1.0000      -1.053168       -28.6582
  26   1.0000      -0.963960       -26.2307
  27   1.0000      -0.932105       -25.3639
  28   1.0000      -0.883478       -24.0407
  29   1.0000      -0.831166       -22.6172
  30   1.0000      -0.819131       -22.2897
  31   1.0000      -0.796176       -21.6651
  32   1.0000      -0.783489       -21.3198
  33   1.0000      -0.775911       -21.1136
  34   1.0000      -0.692435       -18.8421
  35   1.0000      -0.686426       -18.6786
  36   1.0000      -0.680886       -18.5278
  37   1.0000      -0.654764       -17.8170
  38   1.0000      -0.644443       -17.5362
  39   1.0000      -0.642012       -17.4700
  40   1.0000      -0.613952       -16.7065
  41   1.0000      -0.598405       -16.2834
  42   1.0000      -0.582152       -15.8412
  43   1.0000      -0.574685       -15.6380
  44   1.0000      -0.571700       -15.5567
  45   1.0000      -0.565847       -15.3975
  46   1.0000      -0.560537       -15.2530
  47   1.0000      -0.553580       -15.0637
  48   1.0000      -0.553422       -15.0594
  49   1.0000      -0.541207       -14.7270
  50   1.0000      -0.539101       -14.6697
  51   1.0000      -0.534389       -14.5415
  52   1.0000      -0.525691       -14.3048
  53   1.0000      -0.514627       -14.0037
  54   1.0000      -0.503815       -13.7095
  55   1.0000      -0.500271       -13.6131
  56   1.0000      -0.481053       -13.0901
  57   1.0000      -0.416067       -11.3218
  58   1.0000      -0.412350       -11.2206
  59   1.0000      -0.402624       -10.9559
  60   1.0000      -0.392752       -10.6873
  61   1.0000      -0.386955       -10.5296
  62   1.0000      -0.384647       -10.4668
  63   1.0000      -0.382285       -10.4025
  64   1.0000      -0.374289       -10.1849
  65   0.0000      -0.072151        -1.9633
  66   0.0000      -0.027112        -0.7378
  67   0.0000       0.005495         0.1495
  68   0.0000       0.028490         0.7753
  69   0.0000       0.030353         0.8260

----------------------------------------------------------------------------------------------------
          SPIN FLIP ABSORPTION SPECTRUM VIA TRANSITION ELECTRIC DIPOLE MOMENTS
----------------------------------------------------------------------------------------------------
     Transition      Energy     Energy  Wavelength fosc(D2)      D2        DX        DY        DZ
                      (eV)      (cm-1)    (nm)                 (au**2)    (au)      (au)      (au)
----------------------------------------------------------------------------------------------------
  1-3A  ->  2-3A    0.499863    4031.7  2480.4   0.000039162   0.00320  -0.04474   0.02630  -0.02247

Dispersion correction             ... done (  0.1 sec)

MULLIKEN ATOMIC CHARGES AND SPIN DENSITIES
------------------------------------------
   0 O :   -0.687642   -0.014616
   1 O :   -0.668874    0.006442
   2 O :   -0.658023   -0.002155
   3 O :   -0.637415   -0.001814
   4 N :   -0.271142    0.015727
   5 N :   -0.297644    0.005559
   6 N :    0.066528   -0.008437
   7 N :    0.061155    0.013611
   8 C :    0.923587    0.740889
   9 C :    0.840170    0.560399
  10 C :   -0.455815   -0.467634
  11 C :    0.448753   -0.236268
  12 C :   -1.192683    0.122311
  13 C :   -1.308544    0.002491
  14 C :    0.024018   -0.518627
  15 C :   -0.234547   -0.368077
  16 C :    0.464802    0.029690
  17 C :    0.366112    0.019084
  18 H :    0.656428    0.013280
  19 H :    0.468228    0.004594
  20 H :    0.289959   -0.014579
  21 H :    0.315891    0.032433
  22 H :    0.355182    0.014161
  23 H :    0.347876    0.007655
  24 H :    0.256304    0.036826
  25 H :    0.333027   -0.005590
  26 H :    0.055479    0.001702
  27 H :    0.077007    0.001171
  28 H :    0.026390    0.008364
  29 H :    0.035430    0.001410
Sum of atomic charges       :   -0.0000000

LOEWDIN ATOMIC CHARGES AND SPIN DENSITIES
-----------------------------------------
   0 O :    0.093054   -0.009468
   1 O :    0.101762    0.002486
   2 O :    0.092944   -0.001153
   3 O :    0.102038   -0.000711
   4 N :    0.272806   -0.000506
   5 N :    0.276040   -0.000156
   6 N :    0.325560   -0.001827
   7 N :    0.328270    0.000093
   8 C :    0.011267   -0.011852
   9 C :   -0.011204    0.031910
  10 C :   -0.085448   -0.000206
  11 C :   -0.104322    0.002268
  12 C :    0.185090   -0.004387
  13 C :    0.190357    0.001830
  14 C :   -0.416508   -0.007908
  15 C :   -0.413540   -0.000169
  16 C :   -0.496228   -0.000008
  17 C :   -0.485023   -0.000003
  18 H :    0.040359    0.000081
  19 H :    0.048491    0.000044
  20 H :   -0.000491    0.000023
  21 H :   -0.008941   -0.000707
  22 H :    0.015085   -0.001079
  23 H :    0.017659    0.001055
  24 H :   -0.011458    0.000574
  25 H :    0.003379   -0.000020
  26 H :   -0.028206   -0.000064
  27 H :   -0.028916   -0.000013
  28 H :   -0.008204   -0.000143
  29 H :   -0.005675    0.000017

  Mayer bond orders larger than 0.100000
B(  0-O , 14-C ) :   1.2969 B(  1-O , 15-C ) :   1.4407 B(  2-O , 16-C ) :   1.5233
B(  3-O , 17-C ) :   1.5457 B(  4-N ,  5-N ) :   0.1048 B(  4-N ,  8-C ) :   0.2562
B(  4-N , 10-C ) :   0.3427 B(  4-N , 11-C ) :  -0.1171 B(  4-N , 16-C ) :   1.0397
B(  4-N , 26-H ) :   1.1004 B(  5-N ,  9-C ) :   0.3125 B(  5-N , 17-C ) :   1.1623
B(  5-N , 27-H ) :   1.0570 B(  6-N , 10-C ) :   0.1076 B(  6-N , 14-C ) :   1.0510
B(  6-N , 16-C ) :   0.9495 B(  6-N , 28-H ) :   1.1125 B(  7-N , 11-C ) :   0.1344
B(  7-N , 15-C ) :   0.9499 B(  7-N , 17-C ) :   0.9621 B(  7-N , 29-H ) :   1.0859
B(  8-C ,  9-C ) :   0.5838 B(  8-C , 10-C ) :   0.1871 B(  8-C , 11-C ) :  -0.2384
B(  8-C , 12-C ) :   0.5769 B(  8-C , 14-C ) :   0.3288 B(  8-C , 20-H ) :  -0.1251
B(  9-C , 11-C ) :   0.2618 B(  9-C , 13-C ) :   0.5094 B(  9-C , 15-C ) :   0.3657
B( 10-C , 11-C ) :   0.8100 B( 10-C , 14-C ) :   0.1215 B( 10-C , 15-C ) :   0.1311
B( 10-C , 16-C ) :  -0.1138 B( 10-C , 18-H ) :   0.5832 B( 11-C , 13-C ) :  -0.1504
B( 11-C , 17-C ) :  -0.2085 B( 11-C , 19-H ) :   0.8923 B( 12-C , 20-H ) :   1.0692
B( 12-C , 21-H ) :   0.8047 B( 12-C , 22-H ) :   0.9161 B( 13-C , 23-H ) :   0.8764
B( 13-C , 24-H ) :   0.9440 B( 13-C , 25-H ) :   0.9861 B( 14-C , 15-C ) :   0.1806
B( 14-C , 16-C ) :  -0.1223 B( 15-C , 17-C ) :  -0.1432

Dispersion correction           -0.059586339
FINAL SINGLE POINT ENERGY      -908.813902284874

DIPOLE MOMENT
-------------

Method             : TDA/CIS
Type of density    : Electron Density
Level              : Relaxed density
State              :   1
Multiplicity       :   3
Irrep              :   0
Energy             :     0.0000000000000000 Eh
Relativity type    :
Basis              : AO
                                X                 Y                 Z
Electronic contribution:     -2.550368438     -10.180407583      -7.285405746
Nuclear contribution   :      2.262196074      11.767471937      10.101380387
                        -----------------------------------------
Total Dipole Moment    :     -0.288172363       1.587064353       2.815974641
                        -----------------------------------------
Magnitude (a.u.)       :      3.245231849
Magnitude (Debye)      :      8.248723823

Rotational constants in cm-1:             0.019318             0.015536             0.012652
Rotational constants in MHz :           579.140409           465.766685           379.307869

                             ****ORCA TERMINATED NORMALLY****
TOTAL RUN TIME: 0 days 0 hours 4 minutes 45 seconds 407 msec
