                         Program Version 6.0.0  -   RELEASE  -
|  1> ! opt def2-TZVPPD wB97M-D3BJ
|  2> %pal nprocs 8 end%pal nprocs 32 end
|  3> %geom Constraints
|  4> {B 9 8 3.4 C}
|  5> {A 8 9 11 34.0 C}
|  6>  end
|  7>  end
|  8> *xyz 0 1
|  9> O   2.98579685529314 0.88758230159078 -0.86184571092411
| 10> O   -0.03983205397054 0.68929041702508 -2.10362336723772
| 11> O   0.93431434349854 -3.13274393337945 -0.68767288184107
| 12> O   -3.75829998830163 -0.84727300865116 -0.0472717177755
| 13> N   0.21184538946282 -1.54604804365365 0.7617588924445
| 14> N   -2.13631993928911 0.03188773433438 1.27350571071531
| 15> N   2.02598672506387 -1.14318467211666 -0.64531219127023
| 16> N   -1.91814233924584 0.03137116037665 -1.04498946748291
| 17> C   1.18097737274226 0.71693507080484 0.70173889017321
| 18> C   -0.20686880480777 1.27024627933494 0.21345042231937
| 19> C   0.41441080275909 -0.34173258966541 1.52336266615173
| 20> C   -0.82922175114212 0.58960593673968 1.44434972027296
| 21> C   1.92822011286806 1.69488653817281 1.5963734975385
| 22> C   -0.37809776891576 2.77134929626422 0.04819649358288
| 23> C   2.1403947470937 0.1972384729179 -0.35038567829864
| 24> C   -0.67361678962426 0.6214190571346 -1.0793014500539
| 25> C   1.04142578622994 -2.02697492875068 -0.21027082435993
| 26> C   -2.68467002550422 -0.30396816036989 0.07167054343891
| 27> H   0.80817443950001 -0.54572267081061 2.51895215321335
| 28> H   -0.83785272399001 1.27240685039143 2.28901317073582
| 29> H   2.31167340578204 2.52284411740894 1.00913016264629
| 30> H   1.28982602448342 2.08257620823614 2.38710022492991
| 31> H   2.77390820759972 1.19140411795486 2.06045858523949
| 32> H   -1.41857211141493 3.00964947214868 -0.16882755561625
| 33> H   -0.09065531563179 3.29799318042223 0.95389844358819
| 34> H   0.23426221611057 3.12492645074476 -0.77764887675592
| 35> H   -0.46772570547622 -2.21560145172536 1.0787081584806
| 36> H   -2.71769301149571 -0.17090724573546 2.06627440900372
| 37> H   2.60065167263658 -1.49057255715425 -1.3966820077142
| 38> H   -2.27169977231386 -0.32388339999036 -1.91951041514436
| 39> *
| 40>
| 41>                          ****END OF INPUT****
 Total Charge           Charge          ....    0
 Multiplicity           Mult            ....    1
 Number of Electrons    NEL             ....  132
Dispersion correction           -0.052246445
FINAL SINGLE POINT ENERGY      -908.471361822904
Dispersion correction             ... done (  0.1 sec)
Dispersion correction           -0.052375540
FINAL SINGLE POINT ENERGY      -908.542529093845
Dispersion correction             ... done (  0.0 sec)
Dispersion correction           -0.052462671
FINAL SINGLE POINT ENERGY      -908.586201925523
Dispersion correction             ... done (  0.0 sec)
FINAL SINGLE POINT ENERGY      -908.624569079158
FINAL SINGLE POINT ENERGY      -908.655041690909
FINAL SINGLE POINT ENERGY      -908.673240071856
FINAL SINGLE POINT ENERGY      -908.682615824013
FINAL SINGLE POINT ENERGY      -908.688886963845
FINAL SINGLE POINT ENERGY      -908.696852839727
FINAL SINGLE POINT ENERGY      -908.703117202493
FINAL SINGLE POINT ENERGY      -908.729175309949
FINAL SINGLE POINT ENERGY      -908.729120471424
FINAL SINGLE POINT ENERGY      -908.729236832112
FINAL SINGLE POINT ENERGY      -908.729213392298
FINAL SINGLE POINT ENERGY      -908.729221174990
FINAL SINGLE POINT ENERGY      -908.729219329202
FINAL SINGLE POINT ENERGY      -908.729223881112
Dispersion correction             ... done (  0.0 sec)
Dispersion correction           -0.056576565
FINAL SINGLE POINT ENERGY      -908.729216156656
Dispersion correction             ... done (  0.0 sec)
Dispersion correction           -0.056574104
FINAL SINGLE POINT ENERGY      -908.729224606140
Dispersion correction             ... done (  0.0 sec)
                    ***********************HURRAY********************

CARTESIAN COORDINATES (ANGSTROEM)
---------------------------------
  O      2.368166   -0.358537   -1.133794
  O     -0.154901    2.865642   -2.220364
  O      0.199497   -3.804297    0.810584
  O     -2.081326   -1.056374   -1.469251
  N      0.400741   -1.893148    2.019719
  N     -1.370074   -0.215298    0.499911
  N      1.080080   -1.967772   -0.202235
  N     -0.757707    0.766708   -1.593254
  C      1.441065    0.109249    0.989940
  C     -0.388435    2.769072   -0.076960
  C      0.590497   -0.478591    2.070173
  C     -0.412288    0.385138    1.317247
  C      2.306104    1.299203    1.234466
  C     -1.656998    3.418076    0.299748
  C      1.681125   -0.716252   -0.204728
  C     -0.447923    2.079232   -1.324678
  C      0.527486   -2.643425    0.881695
  C     -1.450470   -0.212939   -0.879116
  H      0.820746   -0.145695    3.073888
  H     -0.528388    1.399225    1.662550
  H      2.440866    1.869145    0.321779
  H      1.862896    1.951445    1.982723
  H      3.284906    0.975375    1.591896
  H     -2.548370    2.796277    0.171274
  H     -1.633930    3.881557    1.281455
  H     -1.741623    4.222698   -0.444199
  H     -0.034069   -2.369941    2.788758
  H     -1.815407   -1.046347    0.861084
  H      1.230154   -2.536005   -1.020901
  H     -0.759817    0.571578   -2.584809

 Multiplicity           Mult            ....    1
 Number of Electrons    NEL             ....  132
 Basis Dimension        Dim             ....  882

ORBITAL ENERGIES
----------------

  NO   OCC          E(Eh)            E(eV)
   0   2.0000     -19.340000      -526.2682
   1   2.0000     -19.330635      -526.0133
   2   2.0000     -19.329246      -525.9755
   3   2.0000     -19.322155      -525.7826
   4   2.0000     -14.575495      -396.6194
   5   2.0000     -14.572922      -396.5494
   6   2.0000     -14.567421      -396.3997
   7   2.0000     -14.565036      -396.3348
   8   2.0000     -10.518038      -286.2104
   9   2.0000     -10.509012      -285.9647
  10   2.0000     -10.485126      -285.3148
  11   2.0000     -10.483957      -285.2830
  12   2.0000     -10.449842      -284.3546
  13   2.0000     -10.446390      -284.2607
  14   2.0000     -10.420939      -283.5682
  15   2.0000     -10.417820      -283.4833
  16   2.0000     -10.381831      -282.5040
  17   2.0000     -10.359263      -281.8899
  18   2.0000      -1.229345       -33.4522
  19   2.0000      -1.221823       -33.2475
  20   2.0000      -1.204789       -32.7840
  21   2.0000      -1.197512       -32.5860
  22   2.0000      -1.125123       -30.6162
  23   2.0000      -1.096991       -29.8506
  24   2.0000      -1.075390       -29.2629
  25   2.0000      -1.064139       -28.9567
  26   2.0000      -0.984750       -26.7964
  27   2.0000      -0.939520       -25.5657
  28   2.0000      -0.879850       -23.9419
  29   2.0000      -0.826709       -22.4959
  30   2.0000      -0.815135       -22.1809
  31   2.0000      -0.807339       -21.9688
  32   2.0000      -0.790820       -21.5193
  33   2.0000      -0.781580       -21.2679
  34   2.0000      -0.721745       -19.6397
  35   2.0000      -0.699329       -19.0297
  36   2.0000      -0.691505       -18.8168
  37   2.0000      -0.660760       -17.9802
  38   2.0000      -0.640465       -17.4279
  39   2.0000      -0.635237       -17.2857
  40   2.0000      -0.616326       -16.7711
  41   2.0000      -0.602366       -16.3912
  42   2.0000      -0.597804       -16.2671
  43   2.0000      -0.591226       -16.0881
  44   2.0000      -0.578146       -15.7322
  45   2.0000      -0.569316       -15.4919
  46   2.0000      -0.564837       -15.3700
  47   2.0000      -0.561181       -15.2705
  48   2.0000      -0.555915       -15.1272
  49   2.0000      -0.552048       -15.0220
  50   2.0000      -0.545957       -14.8563
  51   2.0000      -0.543972       -14.8022
  52   2.0000      -0.529014       -14.3952
  53   2.0000      -0.511673       -13.9233
  54   2.0000      -0.509563       -13.8659
  55   2.0000      -0.491847       -13.3838
  56   2.0000      -0.435194       -11.8422
  57   2.0000      -0.427879       -11.6432
  58   2.0000      -0.417915       -11.3721
  59   2.0000      -0.407224       -11.0811
  60   2.0000      -0.397883       -10.8270
  61   2.0000      -0.395898       -10.7729
  62   2.0000      -0.392813       -10.6890
  63   2.0000      -0.383996       -10.4491
  64   2.0000      -0.353955        -9.6316
  65   2.0000      -0.343489        -9.3468
  66   0.0000      -0.026278        -0.7151
  67   0.0000       0.007811         0.2125
  68   0.0000       0.015637         0.4255
  69   0.0000       0.029664         0.8072
  70   0.0000       0.036197         0.9850

MULLIKEN ATOMIC CHARGES
-----------------------
   0 O :   -0.665527
   1 O :   -0.630777
   2 O :   -0.645126
   3 O :   -0.642895
   4 N :   -0.233341
   5 N :   -0.138068
   6 N :    0.020248
   7 N :    0.044404
   8 C :    1.140982
   9 C :   -0.105237
  10 C :    0.395121
  11 C :   -0.769055
  12 C :   -1.618421
  13 C :   -1.046671
  14 C :    0.249776
  15 C :    0.861083
  16 C :    0.433087
  17 C :    0.466771
  18 H :    0.315403
  19 H :    0.434288
  20 H :    0.286480
  21 H :    0.320114
  22 H :    0.412282
  23 H :    0.285656
  24 H :    0.284389
  25 H :    0.354873
  26 H :    0.038802
  27 H :    0.101208
  28 H :    0.033292
  29 H :    0.016859
Sum of atomic charges:   -0.0000000

LOEWDIN ATOMIC CHARGES
----------------------
   0 O :    0.106879
   1 O :    0.095905
   2 O :    0.093471
   3 O :    0.101330
   4 N :    0.283039
   5 N :    0.260347
   6 N :    0.337864
   7 N :    0.340263
   8 C :   -0.099245
   9 C :    0.139381
  10 C :   -0.118074
  11 C :    0.046112
  12 C :    0.179405
  13 C :    0.107581
  14 C :   -0.398750
  15 C :   -0.514173
  16 C :   -0.483186
  17 C :   -0.466278
  18 H :    0.055217
  19 H :   -0.009787
  20 H :   -0.005422
  21 H :   -0.002703
  22 H :    0.008444
  23 H :    0.003041
  24 H :   -0.017182
  25 H :    0.020320
  26 H :   -0.026751
  27 H :   -0.025977
  28 H :   -0.005686
  29 H :   -0.005383

  Mayer bond orders larger than 0.100000
B(  0-O ,  8-C ) :  -0.1156 B(  0-O , 14-C ) :   1.5341 B(  1-O ,  9-C ) :   0.2404
B(  1-O , 15-C ) :   1.2190 B(  2-O , 16-C ) :   1.5766 B(  3-O , 17-C ) :   1.4990
B(  4-N ,  8-C ) :   0.1763 B(  4-N , 10-C ) :   0.4397 B(  4-N , 16-C ) :   1.1000
B(  4-N , 26-H ) :   1.1166 B(  5-N , 11-C ) :   0.6476 B(  5-N , 17-C ) :   0.9749
B(  5-N , 19-H ) :  -0.1417 B(  5-N , 27-H ) :   1.0304 B(  6-N , 10-C ) :   0.1568
B(  6-N , 14-C ) :   1.0527 B(  6-N , 16-C ) :   0.9447 B(  6-N , 28-H ) :   1.1076
B(  7-N , 15-C ) :   0.9776 B(  7-N , 17-C ) :   0.9579 B(  7-N , 29-H ) :   1.1151
B(  8-C , 10-C ) :   0.5903 B(  8-C , 11-C ) :   0.5485 B(  8-C , 12-C ) :   0.2520
B(  8-C , 14-C ) :   0.5674 B(  8-C , 18-H ) :  -0.1193 B(  8-C , 19-H ) :  -0.1231
B(  8-C , 20-H ) :  -0.1177 B(  8-C , 21-H ) :  -0.1125 B(  9-C , 13-C ) :   0.6373
B(  9-C , 15-C ) :   0.7403 B( 10-C , 11-C ) :   0.7384 B( 10-C , 12-C ) :  -0.1592
B( 10-C , 14-C ) :  -0.1264 B( 10-C , 16-C ) :  -0.1114 B( 10-C , 18-H ) :   1.0576
B( 11-C , 14-C ) :   0.1548 B( 11-C , 17-C ) :  -0.1068 B( 11-C , 19-H ) :   0.9831
B( 12-C , 20-H ) :   1.0633 B( 12-C , 21-H ) :   1.0257 B( 12-C , 22-H ) :   0.7478
B( 13-C , 23-H ) :   0.9509 B( 13-C , 24-H ) :   1.0479 B( 13-C , 25-H ) :   0.8638

Dispersion correction           -0.056571154
FINAL SINGLE POINT ENERGY      -908.729216409580

DIPOLE MOMENT
-------------

Method             : SCF
Type of density    : Electron Density
Multiplicity       :   1
Irrep              :   0
Energy             :  -908.6726452554939897 Eh
Relativity type    :
Basis              : AO
                                X                 Y                 Z
Electronic contribution:     -0.127728987      -9.865199235      -6.203932865
Nuclear contribution   :     -0.496235262      10.809021866       8.696620043
                        -----------------------------------------
Total Dipole Moment    :     -0.623964248       0.943822632       2.492687178
                        -----------------------------------------
Magnitude (a.u.)       :      2.737448066
Magnitude (Debye)      :      6.958040019

Rotational constants in cm-1:             0.022604             0.012136             0.011086
Rotational constants in MHz :           677.639622           363.818254           332.364250

                             ****ORCA TERMINATED NORMALLY****
TOTAL RUN TIME: 0 days 3 hours 13 minutes 3 seconds 322 msec
