                         Program Version 6.0.0  -   RELEASE  -
|  1> ! Engrad def2-TZVPPD wB97M-D3BJ
|  2> %pal nprocs 8 end%pal nprocs 64 end
|  3> %tddft Nroots 2 Iroot 1
|  4> sf true
|  5> end
|  6> *xyz 0 3
|  7> O   2.40030853 -0.3919062 -1.11330327
|  8> O   0.06979949 2.90660725 -2.00883055
|  9> O   0.18262351 -3.84025316 0.77341565
| 10> O   -2.05081057 -1.00029755 -1.55813236
| 11> N   0.41848967 -1.95430235 2.01742128
| 12> N   -1.37579993 -0.29299889 0.47715815
| 13> N   1.08233326 -1.99713055 -0.20819714
| 14> N   -0.72231712 0.82285659 -1.53677386
| 15> C   1.48918104 0.03926103 1.02442304
| 16> C   -0.48533489 2.86108062 -0.00700194
| 17> C   0.58152743 -0.53243889 2.06756809
| 18> C   -0.46562784 0.29685973 1.34969389
| 19> C   2.30752637 1.26470099 1.27229712
| 20> C   -1.73125018 3.62173338 0.16885977
| 21> C   1.71403251 -0.75351798 -0.1843449
| 22> C   -0.39956146 2.11059171 -1.19904487
| 23> C   0.53003964 -2.68622315 0.86658389
| 24> C   -1.43962617 -0.19805112 -0.90034915
| 25> H   0.79558673 -0.20432451 3.07290673
| 26> H   -0.53307235 1.33925973 1.59224394
| 27> H   2.48521108 1.80198244 0.34934222
| 28> H   1.7999236 1.94064762 1.96603874
| 29> H   3.26943888 0.99461957 1.70895495
| 30> H   -2.38689847 2.92406071 0.70929148
| 31> H   -1.62016179 4.49638852 0.78646201
| 32> H   -2.23805046 3.86349088 -0.76653095
| 33> H   -0.03228816 -2.43398301 2.77011829
| 34> H   -1.78405612 -1.16447876 0.77725203
| 35> H   1.23328025 -2.55032166 -1.0351794
| 36> H   -0.61815336 0.65089577 -2.5233409
| 37> *
| 38>
| 39>                          ****END OF INPUT****

CARTESIAN COORDINATES (ANGSTROEM)
---------------------------------
  O      2.400309   -0.391906   -1.113303
  O      0.069799    2.906607   -2.008831
  O      0.182624   -3.840253    0.773416
  O     -2.050811   -1.000298   -1.558132
  N      0.418490   -1.954302    2.017421
  N     -1.375800   -0.292999    0.477158
  N      1.082333   -1.997131   -0.208197
  N     -0.722317    0.822857   -1.536774
  C      1.489181    0.039261    1.024423
  C     -0.485335    2.861081   -0.007002
  C      0.581527   -0.532439    2.067568
  C     -0.465628    0.296860    1.349694
  C      2.307526    1.264701    1.272297
  C     -1.731250    3.621733    0.168860
  C      1.714033   -0.753518   -0.184345
  C     -0.399561    2.110592   -1.199045
  C      0.530040   -2.686223    0.866584
  C     -1.439626   -0.198051   -0.900349
  H      0.795587   -0.204325    3.072907
  H     -0.533072    1.339260    1.592244
  H      2.485211    1.801982    0.349342
  H      1.799924    1.940648    1.966039
  H      3.269439    0.994620    1.708955
  H     -2.386898    2.924061    0.709291
  H     -1.620162    4.496389    0.786462
  H     -2.238050    3.863491   -0.766531
  H     -0.032288   -2.433983    2.770118
  H     -1.784056   -1.164479    0.777252
  H      1.233280   -2.550322   -1.035179
  H     -0.618153    0.650896   -2.523341

 Total Charge           Charge          ....    0
 Multiplicity           Mult            ....    3
 Number of Electrons    NEL             ....  132
 Basis Dimension        Dim             ....  882

ORBITAL ENERGIES
----------------
                 SPIN UP ORBITALS
  NO   OCC          E(Eh)            E(eV)
   0   1.0000     -19.339710      -526.2603
   1   1.0000     -19.335418      -526.1435
   2   1.0000     -19.325429      -525.8717
   3   1.0000     -19.320439      -525.7359
   4   1.0000     -14.579689      -396.7335
   5   1.0000     -14.576656      -396.6510
   6   1.0000     -14.564505      -396.3203
   7   1.0000     -14.561499      -396.2385
   8   1.0000     -10.521992      -286.3180
   9   1.0000     -10.506661      -285.9008
  10   1.0000     -10.486592      -285.3547
  11   1.0000     -10.481277      -285.2101
  12   1.0000     -10.449878      -284.3556
  13   1.0000     -10.447275      -284.2848
  14   1.0000     -10.411352      -283.3073
  15   1.0000     -10.400527      -283.0127
  16   1.0000     -10.373281      -282.2713
  17   1.0000     -10.365368      -282.0560
  18   1.0000      -1.233309       -33.5600
  19   1.0000      -1.219818       -33.1929
  20   1.0000      -1.210666       -32.9439
  21   1.0000      -1.194249       -32.4972
  22   1.0000      -1.124530       -30.6000
  23   1.0000      -1.098778       -29.8993
  24   1.0000      -1.078295       -29.3419
  25   1.0000      -1.061290       -28.8792
  26   1.0000      -0.979379       -26.6503
  27   1.0000      -0.937585       -25.5130
  28   1.0000      -0.882209       -24.0061
  29   1.0000      -0.828777       -22.5522
  30   1.0000      -0.815889       -22.2015
  31   1.0000      -0.807324       -21.9684
  32   1.0000      -0.793208       -21.5843
  33   1.0000      -0.782830       -21.3019
  34   1.0000      -0.727851       -19.8058
  35   1.0000      -0.698229       -18.9998
  36   1.0000      -0.690861       -18.7993
  37   1.0000      -0.657827       -17.9004
  38   1.0000      -0.644567       -17.5395
  39   1.0000      -0.638738       -17.3809
  40   1.0000      -0.616576       -16.7779
  41   1.0000      -0.610114       -16.6021
  42   1.0000      -0.599915       -16.3245
  43   1.0000      -0.592396       -16.1199
  44   1.0000      -0.578972       -15.7546
  45   1.0000      -0.571849       -15.5608
  46   1.0000      -0.568389       -15.4667
  47   1.0000      -0.558963       -15.2101
  48   1.0000      -0.555735       -15.1223
  49   1.0000      -0.553356       -15.0576
  50   1.0000      -0.549897       -14.9635
  51   1.0000      -0.544123       -14.8063
  52   1.0000      -0.528880       -14.3916
  53   1.0000      -0.514355       -13.9963
  54   1.0000      -0.508661       -13.8414
  55   1.0000      -0.496305       -13.5052
  56   1.0000      -0.448216       -12.1966
  57   1.0000      -0.432877       -11.7792
  58   1.0000      -0.416798       -11.3417
  59   1.0000      -0.414410       -11.2767
  60   1.0000      -0.408364       -11.1122
  61   1.0000      -0.397516       -10.8170
  62   1.0000      -0.395600       -10.7648
  63   1.0000      -0.388466       -10.5707
  64   1.0000      -0.383004       -10.4221
  65   1.0000      -0.338339        -9.2067
  66   1.0000      -0.295492        -8.0408
  67   0.0000      -0.005973        -0.1625
  68   0.0000       0.012902         0.3511
  69   0.0000       0.030557         0.8315
  70   0.0000       0.035177         0.9572
  71   0.0000       0.041009         1.1159

                 SPIN DOWN ORBITALS
  NO   OCC          E(Eh)            E(eV)
   0   1.0000     -19.335427      -526.1437
   1   1.0000     -19.332483      -526.0636
   2   1.0000     -19.325390      -525.8706
   3   1.0000     -19.320433      -525.7357
   4   1.0000     -14.579716      -396.7342
   5   1.0000     -14.576744      -396.6534
   6   1.0000     -14.564434      -396.3184
   7   1.0000     -14.561484      -396.2381
   8   1.0000     -10.522002      -286.3182
   9   1.0000     -10.506663      -285.9008
  10   1.0000     -10.487201      -285.3713
  11   1.0000     -10.481289      -285.2104
  12   1.0000     -10.449742      -284.3519
  13   1.0000     -10.446637      -284.2674
  14   1.0000     -10.411222      -283.3038
  15   1.0000     -10.373634      -282.2809
  16   1.0000     -10.373342      -282.2730
  17   1.0000     -10.365298      -282.0541
  18   1.0000      -1.232266       -33.5317
  19   1.0000      -1.219682       -33.1892
  20   1.0000      -1.199887       -32.6506
  21   1.0000      -1.194182       -32.4953
  22   1.0000      -1.124287       -30.5934
  23   1.0000      -1.098099       -29.8808
  24   1.0000      -1.076610       -29.2960
  25   1.0000      -1.061180       -28.8762
  26   1.0000      -0.978924       -26.6379
  27   1.0000      -0.909193       -24.7404
  28   1.0000      -0.881752       -23.9937
  29   1.0000      -0.827194       -22.5091
  30   1.0000      -0.812517       -22.1097
  31   1.0000      -0.802871       -21.8472
  32   1.0000      -0.786892       -21.4124
  33   1.0000      -0.780350       -21.2344
  34   1.0000      -0.718517       -19.5518
  35   1.0000      -0.696265       -18.9463
  36   1.0000      -0.689402       -18.7596
  37   1.0000      -0.655202       -17.8290
  38   1.0000      -0.641532       -17.4570
  39   1.0000      -0.636117       -17.3096
  40   1.0000      -0.613751       -16.7010
  41   1.0000      -0.598133       -16.2760
  42   1.0000      -0.590813       -16.0768
  43   1.0000      -0.585660       -15.9366
  44   1.0000      -0.573383       -15.6025
  45   1.0000      -0.567110       -15.4319
  46   1.0000      -0.558688       -15.2027
  47   1.0000      -0.555444       -15.1144
  48   1.0000      -0.553064       -15.0496
  49   1.0000      -0.550161       -14.9706
  50   1.0000      -0.539215       -14.6728
  51   1.0000      -0.532841       -14.4994
  52   1.0000      -0.528603       -14.3840
  53   1.0000      -0.513901       -13.9840
  54   1.0000      -0.497626       -13.5411
  55   1.0000      -0.495287       -13.4775
  56   1.0000      -0.435601       -11.8533
  57   1.0000      -0.430008       -11.7011
  58   1.0000      -0.415855       -11.3160
  59   1.0000      -0.402678       -10.9574
  60   1.0000      -0.395146       -10.7525
  61   1.0000      -0.393072       -10.6960
  62   1.0000      -0.387010       -10.5311
  63   1.0000      -0.382969       -10.4211
  64   1.0000      -0.336720        -9.1626
  65   0.0000      -0.060555        -1.6478
  66   0.0000      -0.005982        -0.1628
  67   0.0000       0.013416         0.3651
  68   0.0000       0.030859         0.8397
  69   0.0000       0.034115         0.9283

----------------------------------------------------------------------------------------------------
          SPIN FLIP ABSORPTION SPECTRUM VIA TRANSITION ELECTRIC DIPOLE MOMENTS
----------------------------------------------------------------------------------------------------
     Transition      Energy     Energy  Wavelength fosc(D2)      D2        DX        DY        DZ
                      (eV)      (cm-1)    (nm)                 (au**2)    (au)      (au)      (au)
----------------------------------------------------------------------------------------------------
  1-3A  ->  2-3A    2.247006   18123.3   551.8   0.000641307   0.01165  -0.05545  -0.05044   0.07765

Dispersion correction             ... done (  0.1 sec)

MULLIKEN ATOMIC CHARGES AND SPIN DENSITIES
------------------------------------------
   0 O :   -0.676163   -0.001090
   1 O :   -0.601325   -0.031533
   2 O :   -0.648266   -0.000066
   3 O :   -0.630402   -0.000871
   4 N :   -0.251434   -0.000692
   5 N :   -0.124010    0.006732
   6 N :    0.037013    0.000296
   7 N :   -0.018014   -0.021071
   8 C :    0.790918    0.002662
   9 C :   -0.096541    0.212255
  10 C :    0.531583   -0.006728
  11 C :   -0.719136   -0.047698
  12 C :   -1.496303    0.023114
  13 C :   -0.713333    0.123347
  14 C :    0.317455   -0.002580
  15 C :    0.759380   -0.206465
  16 C :    0.409726    0.000540
  17 C :    0.494564    0.025216
  18 H :    0.348802    0.004137
  19 H :    0.356953   -0.053874
  20 H :    0.273915    0.001351
  21 H :    0.293071   -0.015065
  22 H :    0.400259   -0.005629
  23 H :    0.226294    0.002263
  24 H :    0.223576   -0.016936
  25 H :    0.328030    0.003870
  26 H :    0.044357   -0.000270
  27 H :    0.083454   -0.001674
  28 H :    0.033088    0.000091
  29 H :    0.022489    0.006368
Sum of atomic charges       :   -0.0000000

LOEWDIN ATOMIC CHARGES AND SPIN DENSITIES
-----------------------------------------
   0 O :    0.099274   -0.000137
   1 O :    0.108965   -0.038307
   2 O :    0.090497   -0.000011
   3 O :    0.109245   -0.000785
   4 N :    0.284359   -0.000168
   5 N :    0.260224   -0.000286
   6 N :    0.334858   -0.000107
   7 N :    0.349926    0.000686
   8 C :   -0.081823   -0.000856
   9 C :    0.143182    0.057988
  10 C :   -0.138012   -0.000351
  11 C :    0.080276   -0.002985
  12 C :    0.177128   -0.004649
  13 C :    0.118355    0.002941
  14 C :   -0.406973   -0.000099
  15 C :   -0.520245   -0.007238
  16 C :   -0.488692   -0.000021
  17 C :   -0.457417   -0.000330
  18 H :    0.052117    0.000007
  19 H :   -0.031809   -0.002856
  20 H :   -0.006721   -0.000983
  21 H :   -0.002821   -0.001938
  22 H :    0.003987   -0.000614
  23 H :    0.012928    0.000813
  24 H :   -0.020671    0.000326
  25 H :    0.006759   -0.000086
  26 H :   -0.032378   -0.000016
  27 H :   -0.027858   -0.000061
  28 H :   -0.009785   -0.000010
  29 H :   -0.006876    0.000133

  Mayer bond orders larger than 0.100000
B(  0-O ,  8-C ) :  -0.1013 B(  0-O , 14-C ) :   1.5072 B(  1-O ,  9-C ) :   0.3809
B(  1-O , 15-C ) :   1.0919 B(  2-O , 16-C ) :   1.5827 B(  3-O , 17-C ) :   1.5196
B(  4-N ,  8-C ) :   0.2067 B(  4-N , 10-C ) :   0.3665 B(  4-N , 16-C ) :   1.1003
B(  4-N , 26-H ) :   1.1062 B(  5-N , 11-C ) :   0.6808 B(  5-N , 17-C ) :   0.9710
B(  5-N , 19-H ) :  -0.1267 B(  5-N , 27-H ) :   1.0448 B(  6-N ,  8-C ) :  -0.1086
B(  6-N , 10-C ) :   0.1778 B(  6-N , 14-C ) :   1.0554 B(  6-N , 16-C ) :   0.9535
B(  6-N , 28-H ) :   1.1092 B(  7-N , 15-C ) :   0.9606 B(  7-N , 17-C ) :   0.9545
B(  7-N , 29-H ) :   1.1590 B(  8-C , 10-C ) :   0.4943 B(  8-C , 11-C ) :   0.6365
B(  8-C , 12-C ) :   0.4012 B(  8-C , 14-C ) :   0.6968 B(  8-C , 18-H ) :  -0.1302
B(  8-C , 19-H ) :  -0.1294 B(  8-C , 20-H ) :  -0.1239 B(  9-C , 11-C ) :  -0.1173
B(  9-C , 13-C ) :   0.5372 B(  9-C , 15-C ) :   0.6413 B( 10-C , 11-C ) :   0.7248
B( 10-C , 12-C ) :  -0.1352 B( 10-C , 14-C ) :  -0.1293 B( 10-C , 16-C ) :  -0.1111
B( 10-C , 18-H ) :   1.0566 B( 11-C , 14-C ) :   0.1496 B( 11-C , 17-C ) :  -0.1275
B( 11-C , 19-H ) :   1.0173 B( 12-C , 20-H ) :   1.0554 B( 12-C , 21-H ) :   0.9692
B( 12-C , 22-H ) :   0.7828 B( 13-C , 23-H ) :   0.9095 B( 13-C , 24-H ) :   1.0653
B( 13-C , 25-H ) :   0.9173

Dispersion correction           -0.056339863
FINAL SINGLE POINT ENERGY      -908.706071564330

DIPOLE MOMENT
-------------

Method             : TDA/CIS
Type of density    : Electron Density
Level              : Relaxed density
State              :   1
Multiplicity       :   3
Irrep              :   0
Energy             :     0.0000000000000000 Eh
Relativity type    :
Basis              : AO
                                X                 Y                 Z
Electronic contribution:     -0.063996280      -9.943441420      -6.029694811
Nuclear contribution   :     -0.854591498      10.930618720       8.276424902
                        -----------------------------------------
Total Dipole Moment    :     -0.918587778       0.987177299       2.246730090
                        -----------------------------------------
Magnitude (a.u.)       :      2.620327961
Magnitude (Debye)      :      6.660344371

Rotational constants in cm-1:             0.022695             0.011858             0.010823
Rotational constants in MHz :           680.378287           355.494642           324.463782

                             ****ORCA TERMINATED NORMALLY****
TOTAL RUN TIME: 0 days 0 hours 5 minutes 24 seconds 350 msec
