                         Program Version 6.0.0  -   RELEASE  -
|  1> ! Engrad def2-TZVPPD wB97M-D3BJ
|  2> %pal nprocs 8 end%pal nprocs 64 end
|  3> %tddft
|  4>  Iroot 2 Nroots 3
|  5> sf true
|  6> end
|  7> *xyz 0 3
|  8> O   3.3864878 -0.2446402 -0.0146389
|  9> O   -0.35613001 0.75178781 -2.7443378
| 10> O   -0.23654386 -2.73242328 -0.84064888
| 11> O   -3.52011641 -0.7305289 0.00230844
| 12> N   -0.27613881 -1.36851611 1.03446447
| 13> N   -2.01315463 0.79393105 0.82803611
| 14> N   1.52971771 -1.2980501 -0.4764172
| 15> N   -1.85665634 -0.00229078 -1.3164743
| 16> C   1.60590625 0.12634585 1.37053511
| 17> C   -0.10103357 1.35674422 -0.48812667
| 18> C   0.14146327 -0.10482704 1.57587224
| 19> C   -0.61051521 1.07127137 0.85338712
| 20> C   2.30585649 1.03792562 2.33344434
| 21> C   0.76750307 2.52500288 -0.62768823
| 22> C   2.24594394 -0.47639768 0.28989702
| 23> C   -0.72193898 0.70869151 -1.57109939
| 24> C   0.27907815 -1.84011815 -0.15242089
| 25> C   -2.50995038 -0.09702963 -0.14881251
| 26> H   -0.2271503 -0.03495154 2.64167272
| 27> H   -0.50605885 1.94058051 1.47409333
| 28> H   3.37059594 1.15605698 2.09704739
| 29> H   1.77723922 2.00876575 2.33202362
| 30> H   2.15237958 0.59605428 3.34006076
| 31> H   1.59456057 2.34639529 0.02244854
| 32> H   1.1041133 2.73906206 -1.59846912
| 33> H   0.1265093 3.30251498 -0.2470341
| 34> H   -1.23381225 -1.69309372 1.11823234
| 35> H   -2.47661849 0.67011931 1.66727476
| 36> H   1.95633138 -1.65920454 -1.31631388
| 37> H   -2.30068533 -0.58446984 -2.07986139
| 38> *
| 39>
| 40>                          ****END OF INPUT****

CARTESIAN COORDINATES (ANGSTROEM)
---------------------------------
  O      3.386488   -0.244640   -0.014639
  O     -0.356130    0.751788   -2.744338
  O     -0.236544   -2.732423   -0.840649
  O     -3.520116   -0.730529    0.002308
  N     -0.276139   -1.368516    1.034464
  N     -2.013155    0.793931    0.828036
  N      1.529718   -1.298050   -0.476417
  N     -1.856656   -0.002291   -1.316474
  C      1.605906    0.126346    1.370535
  C     -0.101034    1.356744   -0.488127
  C      0.141463   -0.104827    1.575872
  C     -0.610515    1.071271    0.853387
  C      2.305856    1.037926    2.333444
  C      0.767503    2.525003   -0.627688
  C      2.245944   -0.476398    0.289897
  C     -0.721939    0.708692   -1.571099
  C      0.279078   -1.840118   -0.152421
  C     -2.509950   -0.097030   -0.148813
  H     -0.227150   -0.034952    2.641673
  H     -0.506059    1.940581    1.474093
  H      3.370596    1.156057    2.097047
  H      1.777239    2.008766    2.332024
  H      2.152380    0.596054    3.340061
  H      1.594561    2.346395    0.022449
  H      1.104113    2.739062   -1.598469
  H      0.126509    3.302515   -0.247034
  H     -1.233812   -1.693094    1.118232
  H     -2.476618    0.670119    1.667275
  H      1.956331   -1.659205   -1.316314
  H     -2.300685   -0.584470   -2.079861

 Total Charge           Charge          ....    0
 Multiplicity           Mult            ....    3
 Number of Electrons    NEL             ....  132
 Basis Dimension        Dim             ....  882

ORBITAL ENERGIES
----------------
                 SPIN UP ORBITALS
  NO   OCC          E(Eh)            E(eV)
   0   1.0000     -19.327536      -525.9290
   1   1.0000     -19.327235      -525.9208
   2   1.0000     -19.324816      -525.8550
   3   1.0000     -19.324179      -525.8377
   4   1.0000     -14.566561      -396.3763
   5   1.0000     -14.565731      -396.3537
   6   1.0000     -14.563157      -396.2836
   7   1.0000     -14.553684      -396.0259
   8   1.0000     -10.513182      -286.0782
   9   1.0000     -10.501707      -285.7660
  10   1.0000     -10.473777      -285.0060
  11   1.0000     -10.469523      -284.8902
  12   1.0000     -10.449583      -284.3476
  13   1.0000     -10.435553      -283.9658
  14   1.0000     -10.418592      -283.5043
  15   1.0000     -10.413364      -283.3620
  16   1.0000     -10.386552      -282.6325
  17   1.0000     -10.368798      -282.1493
  18   1.0000      -1.230344       -33.4794
  19   1.0000      -1.224840       -33.3296
  20   1.0000      -1.194835       -32.5131
  21   1.0000      -1.193771       -32.4842
  22   1.0000      -1.128287       -30.7022
  23   1.0000      -1.103017       -30.0146
  24   1.0000      -1.075119       -29.2555
  25   1.0000      -1.061655       -28.8891
  26   1.0000      -0.996000       -27.1025
  27   1.0000      -0.966360       -26.2960
  28   1.0000      -0.890932       -24.2435
  29   1.0000      -0.850659       -23.1476
  30   1.0000      -0.844088       -22.9688
  31   1.0000      -0.808565       -22.0022
  32   1.0000      -0.791501       -21.5378
  33   1.0000      -0.789479       -21.4828
  34   1.0000      -0.707625       -19.2555
  35   1.0000      -0.706322       -19.2200
  36   1.0000      -0.695369       -18.9220
  37   1.0000      -0.677172       -18.4268
  38   1.0000      -0.670974       -18.2581
  39   1.0000      -0.646166       -17.5831
  40   1.0000      -0.619905       -16.8685
  41   1.0000      -0.606401       -16.5010
  42   1.0000      -0.600518       -16.3409
  43   1.0000      -0.589473       -16.0404
  44   1.0000      -0.585377       -15.9289
  45   1.0000      -0.580267       -15.7899
  46   1.0000      -0.565176       -15.3792
  47   1.0000      -0.564644       -15.3647
  48   1.0000      -0.559551       -15.2262
  49   1.0000      -0.558300       -15.1921
  50   1.0000      -0.551247       -15.0002
  51   1.0000      -0.541448       -14.7335
  52   1.0000      -0.534759       -14.5515
  53   1.0000      -0.528032       -14.3685
  54   1.0000      -0.514335       -13.9958
  55   1.0000      -0.512690       -13.9510
  56   1.0000      -0.503456       -13.6997
  57   1.0000      -0.424484       -11.5508
  58   1.0000      -0.417953       -11.3731
  59   1.0000      -0.415640       -11.3101
  60   1.0000      -0.406753       -11.0683
  61   1.0000      -0.402417       -10.9503
  62   1.0000      -0.395392       -10.7592
  63   1.0000      -0.390988       -10.6393
  64   1.0000      -0.385136       -10.4801
  65   1.0000      -0.344648        -9.3784
  66   1.0000      -0.334609        -9.1052
  67   0.0000       0.006830         0.1858
  68   0.0000       0.029557         0.8043
  69   0.0000       0.032546         0.8856
  70   0.0000       0.038062         1.0357
  71   0.0000       0.055211         1.5024

                 SPIN DOWN ORBITALS
  NO   OCC          E(Eh)            E(eV)
   0   1.0000     -19.324715      -525.8522
   1   1.0000     -19.324132      -525.8364
   2   1.0000     -19.322337      -525.7875
   3   1.0000     -19.322233      -525.7847
   4   1.0000     -14.566402      -396.3720
   5   1.0000     -14.564785      -396.3280
   6   1.0000     -14.562702      -396.2713
   7   1.0000     -14.553133      -396.0109
   8   1.0000     -10.513248      -286.0800
   9   1.0000     -10.501756      -285.7673
  10   1.0000     -10.474863      -285.0355
  11   1.0000     -10.470546      -284.9180
  12   1.0000     -10.449243      -284.3384
  13   1.0000     -10.435031      -283.9516
  14   1.0000     -10.407446      -283.2010
  15   1.0000     -10.402289      -283.0607
  16   1.0000     -10.387115      -282.6478
  17   1.0000     -10.369090      -282.1573
  18   1.0000      -1.228519       -33.4297
  19   1.0000      -1.220597       -33.2141
  20   1.0000      -1.191874       -32.4325
  21   1.0000      -1.187850       -32.3230
  22   1.0000      -1.125197       -30.6182
  23   1.0000      -1.100262       -29.9397
  24   1.0000      -1.072500       -29.1842
  25   1.0000      -1.059776       -28.8380
  26   1.0000      -0.982118       -26.7248
  27   1.0000      -0.949666       -25.8417
  28   1.0000      -0.885673       -24.1004
  29   1.0000      -0.844666       -22.9845
  30   1.0000      -0.835161       -22.7259
  31   1.0000      -0.804225       -21.8841
  32   1.0000      -0.789561       -21.4850
  33   1.0000      -0.787789       -21.4368
  34   1.0000      -0.702079       -19.1045
  35   1.0000      -0.700556       -19.0631
  36   1.0000      -0.688393       -18.7321
  37   1.0000      -0.668958       -18.2033
  38   1.0000      -0.659506       -17.9461
  39   1.0000      -0.642943       -17.4954
  40   1.0000      -0.615587       -16.7510
  41   1.0000      -0.601454       -16.3664
  42   1.0000      -0.590936       -16.0802
  43   1.0000      -0.584107       -15.8944
  44   1.0000      -0.576480       -15.6868
  45   1.0000      -0.569913       -15.5081
  46   1.0000      -0.561512       -15.2795
  47   1.0000      -0.558026       -15.1847
  48   1.0000      -0.557049       -15.1581
  49   1.0000      -0.547700       -14.9037
  50   1.0000      -0.546258       -14.8644
  51   1.0000      -0.532578       -14.4922
  52   1.0000      -0.527427       -14.3520
  53   1.0000      -0.520151       -14.1540
  54   1.0000      -0.507553       -13.8112
  55   1.0000      -0.503404       -13.6983
  56   1.0000      -0.496868       -13.5205
  57   1.0000      -0.420521       -11.4429
  58   1.0000      -0.413945       -11.2640
  59   1.0000      -0.405978       -11.0472
  60   1.0000      -0.396749       -10.7961
  61   1.0000      -0.389808       -10.6072
  62   1.0000      -0.386152       -10.5077
  63   1.0000      -0.384362       -10.4590
  64   1.0000      -0.374686       -10.1957
  65   0.0000      -0.061720        -1.6795
  66   0.0000      -0.059805        -1.6274
  67   0.0000       0.006518         0.1774
  68   0.0000       0.029631         0.8063
  69   0.0000       0.032537         0.8854

----------------------------------------------------------------------------------------------------
          SPIN FLIP ABSORPTION SPECTRUM VIA TRANSITION ELECTRIC DIPOLE MOMENTS
----------------------------------------------------------------------------------------------------
     Transition      Energy     Energy  Wavelength fosc(D2)      D2        DX        DY        DZ
                      (eV)      (cm-1)    (nm)                 (au**2)    (au)      (au)      (au)
----------------------------------------------------------------------------------------------------
  1-3A  ->  2-1A    0.023626     190.6  52478.0   0.000002568   0.00444  -0.06083   0.00810  -0.02589
  1-3A  ->  3-3A    1.981839   15984.6   625.6   0.005047320   0.10395  -0.31700  -0.05617  -0.01763

Dispersion correction             ... done (  0.1 sec)

MULLIKEN ATOMIC CHARGES AND SPIN DENSITIES
------------------------------------------
   0 O :   -0.694693    0.088432
   1 O :   -0.725209   -0.088768
   2 O :   -0.665867    0.000938
   3 O :   -0.631642   -0.000583
   4 N :   -0.256837    0.008458
   5 N :   -0.338514   -0.011219
   6 N :    0.044664   -0.004100
   7 N :    0.008765   -0.013182
   8 C :   -0.253123    0.311336
   9 C :    0.914844    0.311336
  10 C :    0.627476   -0.035439
  11 C :    0.339664   -0.264716
  12 C :   -1.340770   -0.000266
  13 C :   -1.472680    0.015509
  14 C :    0.624445    0.000305
  15 C :   -0.156995   -0.379706
  16 C :    0.322055    0.000437
  17 C :    0.317854    0.018115
  18 H :    0.518015    0.004818
  19 H :    0.502087   -0.005790
  20 H :    0.288742    0.003166
  21 H :    0.337022    0.009828
  22 H :    0.391609    0.010799
  23 H :    0.287022    0.019083
  24 H :    0.330752   -0.010812
  25 H :    0.394460    0.009399
  26 H :    0.121932    0.000074
  27 H :    0.055395    0.001938
  28 H :    0.011943   -0.002466
  29 H :    0.097582    0.003077
Sum of atomic charges       :    0.0000000

LOEWDIN ATOMIC CHARGES AND SPIN DENSITIES
-----------------------------------------
   0 O :    0.115019    0.077463
   1 O :    0.083290   -0.079457
   2 O :    0.070719    0.000914
   3 O :    0.104931   -0.000337
   4 N :    0.285634    0.001387
   5 N :    0.310415   -0.000576
   6 N :    0.339333   -0.001018
   7 N :    0.304558   -0.010759
   8 C :   -0.051201    0.231928
   9 C :   -0.026334   -0.212837
  10 C :   -0.103540    0.010530
  11 C :   -0.141160   -0.011947
  12 C :    0.199880    0.030469
  13 C :    0.251082   -0.030115
  14 C :   -0.491401    0.041388
  15 C :   -0.428277   -0.047340
  16 C :   -0.420831   -0.001145
  17 C :   -0.513481   -0.000290
  18 H :    0.088207    0.001707
  19 H :    0.042185   -0.001489
  20 H :    0.007921   -0.000550
  21 H :    0.003428    0.009320
  22 H :    0.017541    0.009506
  23 H :   -0.016658   -0.006237
  24 H :   -0.006629    0.000489
  25 H :    0.017377   -0.010643
  26 H :   -0.031176    0.000241
  27 H :   -0.083458    0.000102
  28 H :    0.008619    0.000137
  29 H :    0.064004   -0.000839

  Mayer bond orders larger than 0.100000
B(  0-O , 14-C ) :   1.3270 B(  1-O , 15-C ) :   1.2828 B(  2-O , 16-C ) :   1.5047
B(  3-O , 17-C ) :   1.5920 B(  4-N ,  8-C ) :   0.2395 B(  4-N , 10-C ) :   0.2717
B(  4-N , 16-C ) :   1.0451 B(  4-N , 26-H ) :   0.9897 B(  5-N ,  9-C ) :   0.3040
B(  5-N , 11-C ) :  -0.1955 B(  5-N , 17-C ) :   1.1447 B(  5-N , 27-H ) :   1.0544
B(  6-N , 10-C ) :   0.1095 B(  6-N , 14-C ) :   1.1112 B(  6-N , 16-C ) :   0.9149
B(  6-N , 28-H ) :   1.1240 B(  7-N , 11-C ) :   0.1368 B(  7-N , 15-C ) :   0.9533
B(  7-N , 17-C ) :   0.9439 B(  7-N , 29-H ) :   1.0513 B(  8-C ,  9-C ) :   0.1968
B(  8-C , 10-C ) :   0.1842 B(  8-C , 11-C ) :   0.2512 B(  8-C , 12-C ) :   0.5718
B(  8-C , 14-C ) :   0.7924 B(  8-C , 16-C ) :   0.1425 B(  8-C , 18-H ) :  -0.1610
B(  8-C , 20-H ) :  -0.1100 B(  9-C , 11-C ) :   0.2445 B(  9-C , 13-C ) :   0.3506
B(  9-C , 15-C ) :   0.5509 B(  9-C , 19-H ) :  -0.1656 B( 10-C , 11-C ) :   0.5901
B( 10-C , 12-C ) :  -0.1273 B( 10-C , 14-C ) :  -0.1268 B( 10-C , 16-C ) :  -0.1926
B( 10-C , 18-H ) :   0.8194 B( 11-C , 13-C ) :  -0.3467 B( 11-C , 15-C ) :  -0.1043
B( 11-C , 17-C ) :  -0.1306 B( 11-C , 19-H ) :   1.0032 B( 11-C , 23-H ) :  -0.1001
B( 12-C , 20-H ) :   1.0513 B( 12-C , 21-H ) :   0.8481 B( 12-C , 22-H ) :   0.8960
B( 13-C , 23-H ) :   0.9847 B( 13-C , 24-H ) :   1.0567 B( 13-C , 25-H ) :   0.8098

Dispersion correction           -0.062510076
FINAL SINGLE POINT ENERGY      -908.779284458050

DIPOLE MOMENT
-------------

Method             : TDA/CIS
Type of density    : Electron Density
Level              : Relaxed density
State              :   2
Multiplicity       :   3
Irrep              :   0
Energy             :     0.0000000000000000 Eh
Relativity type    :
Basis              : AO
                                X                 Y                 Z
Electronic contribution:     -4.841587653      -8.821289551      -6.632740587
Nuclear contribution   :      5.073107520      10.558632372       9.074528771
                        -----------------------------------------
Total Dipole Moment    :      0.231519866       1.737342821       2.441788184
                        -----------------------------------------
Magnitude (a.u.)       :      3.005709744
Magnitude (Debye)      :      7.639907016

Rotational constants in cm-1:             0.022095             0.013960             0.013323
Rotational constants in MHz :           662.393666           418.507026           399.424864

                             ****ORCA TERMINATED NORMALLY****
TOTAL RUN TIME: 0 days 0 hours 5 minutes 4 seconds 252 msec
