                         Program Version 6.0.0  -   RELEASE  -
|  1> ! Opt wB97M-D3BJ def2-TZVPPD
|  2> %pal nprocs 8 end %pal nprocs 64 end
|  3> %geom
|  4> Constraints
|  5>     {A 2 1 0 76.36363636363636 C }
|  6> end
|  7> MaxIter 500
|  8> end
|  9> *xyz 0 1
| 10> O   -0.0007 0.8141 0.0
| 11> C   0.7509 -0.4065 0.0
| 12> C   -0.7502 -0.4076 0.0
| 13> H   1.2625 -0.6786 0.9136
| 14> H   1.2625 -0.6787 -0.9136
| 15> H   -1.2614 -0.6806 -0.9136
| 16> H   -1.2614 -0.6805 0.9136
| 17> *
| 18>
| 19>                          ****END OF INPUT****
 Total Charge           Charge          ....    0
 Multiplicity           Mult            ....    1
 Number of Electrons    NEL             ....   24
Dispersion correction           -0.005299293
FINAL SINGLE POINT ENERGY      -153.852097745062
Dispersion correction             ... done (  0.2 sec)
Dispersion correction           -0.005268405
FINAL SINGLE POINT ENERGY      -153.858540714410
Dispersion correction             ... done (  0.1 sec)
Dispersion correction           -0.005260176
FINAL SINGLE POINT ENERGY      -153.860714701747
Dispersion correction             ... done (  0.2 sec)
FINAL SINGLE POINT ENERGY      -153.861072882980
FINAL SINGLE POINT ENERGY      -153.861186199730
Dispersion correction             ... done (  0.1 sec)
Dispersion correction           -0.005268088
FINAL SINGLE POINT ENERGY      -153.861213404131
Dispersion correction             ... done (  0.2 sec)
Dispersion correction           -0.005269093
FINAL SINGLE POINT ENERGY      -153.861218522667
Dispersion correction             ... done (  0.2 sec)
                    ***********************HURRAY********************

CARTESIAN COORDINATES (ANGSTROEM)
---------------------------------
  O      0.150393    0.885705   -0.000265
  C      0.669496   -0.365854    0.000185
  C     -0.729934   -0.584765   -0.000228
  H      1.224385   -0.649807    0.897121
  H      1.223846   -0.650033   -0.897101
  H     -1.268400   -0.677951   -0.927913
  H     -1.267586   -0.675695    0.928202

 Multiplicity           Mult            ....    1
 Number of Electrons    NEL             ....   24
 Basis Dimension        Dim             ....  182

ORBITAL ENERGIES
----------------

  NO   OCC          E(Eh)            E(eV)
   0   2.0000     -19.345436      -526.4161
   1   2.0000     -10.413107      -283.3550
   2   2.0000     -10.396534      -282.9041
   3   2.0000      -1.170685       -31.8559
   4   2.0000      -0.841263       -22.8919
   5   2.0000      -0.740806       -20.1583
   6   2.0000      -0.627871       -17.0852
   7   2.0000      -0.588311       -16.0088
   8   2.0000      -0.503495       -13.7008
   9   2.0000      -0.497936       -13.5495
  10   2.0000      -0.411534       -11.1984
  11   2.0000      -0.374709       -10.1964
  12   0.0000       0.034965         0.9514
  13   0.0000       0.049875         1.3572
  14   0.0000       0.061278         1.6675
  15   0.0000       0.076922         2.0931
  16   0.0000       0.104582         2.8458

MULLIKEN ATOMIC CHARGES
-----------------------
   0 O :   -0.428537
   1 C :   -0.101234
   2 C :   -0.281669
   3 H :    0.204270
   4 H :    0.204188
   5 H :    0.201386
   6 H :    0.201596
Sum of atomic charges:   -0.0000000

LOEWDIN ATOMIC CHARGES
----------------------
   0 O :   -0.025524
   1 C :   -0.237813
   2 C :    0.217499
   3 H :    0.024106
   4 H :    0.024108
   5 H :   -0.001173
   6 H :   -0.001202

  Mayer bond orders larger than 0.100000
B(  0-O ,  1-C ) :   0.7031 B(  0-O ,  2-C ) :   0.9208 B(  1-C ,  2-C ) :   0.7852
B(  1-C ,  3-H ) :   1.0494 B(  1-C ,  4-H ) :   1.0493 B(  2-C ,  5-H ) :   0.9773
B(  2-C ,  6-H ) :   0.9774

Dispersion correction           -0.005269377
FINAL SINGLE POINT ENERGY      -153.861219986491

DIPOLE MOMENT
-------------

Method             : SCF
Type of density    : Electron Density
Multiplicity       :   1
Irrep              :   0
Energy             :  -153.8559506097297458 Eh
Relativity type    :
Basis              : AO
                                X                 Y                 Z
Electronic contribution:      0.022439851       1.517833931      -0.000514930
Nuclear contribution   :     -0.216235358      -2.482991625       0.000665434
                        -----------------------------------------
Total Dipole Moment    :     -0.193795507      -0.965157694       0.000150505
                        -----------------------------------------
Magnitude (a.u.)       :      0.984421706
Magnitude (Debye)      :      2.502201122

Rotational constants in cm-1:             0.934728             0.622670             0.439112
Rotational constants in MHz :         28022.438000         18667.171833         13164.259825

                             ****ORCA TERMINATED NORMALLY****
TOTAL RUN TIME: 0 days 0 hours 1 minutes 49 seconds 449 msec
