                         Program Version 6.0.0  -   RELEASE  -
|  1> ! Opt wB97M-D3BJ def2-TZVPPD
|  2> %pal nprocs 8 end %pal nprocs 64 end
|  3> %geom
|  4> Constraints
|  5>     {A 2 1 0 72.72727272727272 C }
|  6> end
|  7> MaxIter 500
|  8> end
|  9> *xyz 0 1
| 10> O   -0.0007 0.8141 0.0
| 11> C   0.7509 -0.4065 0.0
| 12> C   -0.7502 -0.4076 0.0
| 13> H   1.2625 -0.6786 0.9136
| 14> H   1.2625 -0.6787 -0.9136
| 15> H   -1.2614 -0.6806 -0.9136
| 16> H   -1.2614 -0.6805 0.9136
| 17> *
| 18>
| 19>                          ****END OF INPUT****
 Total Charge           Charge          ....    0
 Multiplicity           Mult            ....    1
 Number of Electrons    NEL             ....   24
Dispersion correction           -0.005274157
FINAL SINGLE POINT ENERGY      -153.863882395319
Dispersion correction             ... done (  0.2 sec)
Dispersion correction           -0.005248215
FINAL SINGLE POINT ENERGY      -153.868350629111
Dispersion correction             ... done (  0.1 sec)
Dispersion correction           -0.005239366
FINAL SINGLE POINT ENERGY      -153.869733894377
Dispersion correction             ... done (  0.1 sec)
FINAL SINGLE POINT ENERGY      -153.869927835583
FINAL SINGLE POINT ENERGY      -153.870003039512
Dispersion correction             ... done (  0.1 sec)
Dispersion correction           -0.005244477
FINAL SINGLE POINT ENERGY      -153.870015375799
Dispersion correction             ... done (  0.1 sec)
Dispersion correction           -0.005245207
FINAL SINGLE POINT ENERGY      -153.870017613973
Dispersion correction             ... done (  0.2 sec)
                    ***********************HURRAY********************

CARTESIAN COORDINATES (ANGSTROEM)
---------------------------------
  O      0.117521    0.861880   -0.000218
  C      0.679385   -0.379279    0.000088
  C     -0.728719   -0.554248   -0.000103
  H      1.231444   -0.651692    0.900331
  H      1.231181   -0.651806   -0.900320
  H     -1.264515   -0.672283   -0.926772
  H     -1.264097   -0.670973    0.926994

 Multiplicity           Mult            ....    1
 Number of Electrons    NEL             ....   24
 Basis Dimension        Dim             ....  182

ORBITAL ENERGIES
----------------

  NO   OCC          E(Eh)            E(eV)
   0   2.0000     -19.347305      -526.4669
   1   2.0000     -10.408820      -283.2384
   2   2.0000     -10.396646      -282.9071
   3   2.0000      -1.178875       -32.0788
   4   2.0000      -0.833142       -22.6709
   5   2.0000      -0.743589       -20.2341
   6   2.0000      -0.628702       -17.1078
   7   2.0000      -0.590448       -16.0669
   8   2.0000      -0.500011       -13.6060
   9   2.0000      -0.495085       -13.4720
  10   2.0000      -0.418701       -11.3934
  11   2.0000      -0.377885       -10.2828
  12   0.0000       0.039311         1.0697
  13   0.0000       0.056191         1.5290
  14   0.0000       0.063852         1.7375
  15   0.0000       0.077132         2.0989
  16   0.0000       0.108658         2.9567

MULLIKEN ATOMIC CHARGES
-----------------------
   0 O :   -0.413607
   1 C :   -0.112352
   2 C :   -0.258282
   3 H :    0.198177
   4 H :    0.198145
   5 H :    0.193903
   6 H :    0.194015
Sum of atomic charges:    0.0000000

LOEWDIN ATOMIC CHARGES
----------------------
   0 O :   -0.027851
   1 C :   -0.197249
   2 C :    0.177068
   3 H :    0.022966
   4 H :    0.022967
   5 H :    0.001057
   6 H :    0.001041

  Mayer bond orders larger than 0.100000
B(  0-O ,  1-C ) :   0.7282 B(  0-O ,  2-C ) :   0.9019 B(  1-C ,  2-C ) :   0.7976
B(  1-C ,  3-H ) :   1.0451 B(  1-C ,  4-H ) :   1.0451 B(  2-C ,  5-H ) :   0.9851
B(  2-C ,  6-H ) :   0.9851

Dispersion correction           -0.005245365
FINAL SINGLE POINT ENERGY      -153.870018013159

DIPOLE MOMENT
-------------

Method             : SCF
Type of density    : Electron Density
Multiplicity       :   1
Irrep              :   0
Energy             :  -153.8647726476721118 Eh
Relativity type    :
Basis              : AO
                                X                 Y                 Z
Electronic contribution:      0.016341109       1.546985361      -0.000377062
Nuclear contribution   :     -0.164604169      -2.462566458       0.000509457
                        -----------------------------------------
Total Dipole Moment    :     -0.148263060      -0.915581098       0.000132395
                        -----------------------------------------
Magnitude (a.u.)       :      0.927507789
Magnitude (Debye)      :      2.357537443

Rotational constants in cm-1:             0.906120             0.658917             0.450067
Rotational constants in MHz :         27164.781705         19753.823246         13492.661458

                             ****ORCA TERMINATED NORMALLY****
TOTAL RUN TIME: 0 days 0 hours 1 minutes 48 seconds 83 msec
