                         Program Version 6.0.0  -   RELEASE  -
|  1> ! Opt wB97M-D3BJ def2-TZVPPD
|  2> %pal nprocs 8 end %pal nprocs 64 end
|  3> %geom
|  4> Constraints
|  5>     {A 2 1 0 122.54237288135593 C }
|  6> end
|  7> MaxIter 200
|  8> end
|  9> *xyz 0 1
| 10> O   1.5210980388921627 0.802450743780187 0.0
| 11> C   0.7509 -0.4065 0.0
| 12> C   -0.7502 -0.4076 0.0
| 13> H   1.2625 -0.6786 0.9136
| 14> H   1.2625 -0.6787 -0.9136
| 15> H   -1.2614 -0.6806 -0.9136
| 16> H   -1.2614 -0.6805 0.9136
| 17> *
| 18>
| 19>                          ****END OF INPUT****
 Total Charge           Charge          ....    0
 Multiplicity           Mult            ....    1
 Number of Electrons    NEL             ....   24
Dispersion correction           -0.005379244
FINAL SINGLE POINT ENERGY      -153.694335021566
Dispersion correction             ... done (  0.1 sec)
Dispersion correction           -0.005436714
FINAL SINGLE POINT ENERGY      -153.711859517054
Dispersion correction             ... done (  0.1 sec)
Dispersion correction           -0.005503234
FINAL SINGLE POINT ENERGY      -153.724480249783
Dispersion correction             ... done (  0.1 sec)
FINAL SINGLE POINT ENERGY      -153.732112361113
FINAL SINGLE POINT ENERGY      -153.741504793705
FINAL SINGLE POINT ENERGY      -153.758003755698
FINAL SINGLE POINT ENERGY      -153.774770654890
FINAL SINGLE POINT ENERGY      -153.791646437575
FINAL SINGLE POINT ENERGY      -153.810464013046
FINAL SINGLE POINT ENERGY      -153.857750471311
FINAL SINGLE POINT ENERGY      -153.931415851986
FINAL SINGLE POINT ENERGY      -153.931444426908
FINAL SINGLE POINT ENERGY      -153.931498953531
FINAL SINGLE POINT ENERGY      -153.931586675013
FINAL SINGLE POINT ENERGY      -153.931683215479
FINAL SINGLE POINT ENERGY      -153.931757896635
FINAL SINGLE POINT ENERGY      -153.931782101662
Dispersion correction             ... done (  0.1 sec)
Dispersion correction           -0.005539033
FINAL SINGLE POINT ENERGY      -153.931786590030
Dispersion correction             ... done (  0.1 sec)
Dispersion correction           -0.005540104
FINAL SINGLE POINT ENERGY      -153.931787857699
Dispersion correction             ... done (  0.0 sec)
                    ***********************HURRAY********************

CARTESIAN COORDINATES (ANGSTROEM)
---------------------------------
  O      1.253850    1.093803   -0.098417
  C      0.921764    0.001230    0.279365
  C     -0.319199   -0.681956   -0.216715
  H      1.530010   -0.549983    1.020127
  H     -0.054834   -1.636086   -0.674767
  H     -0.831869   -0.049865   -0.934461
  H     -0.975724   -0.907192    0.624867

 Multiplicity           Mult            ....    1
 Number of Electrons    NEL             ....   24
 Basis Dimension        Dim             ....  182

ORBITAL ENERGIES
----------------

  NO   OCC          E(Eh)            E(eV)
   0   2.0000     -19.338739      -526.2338
   1   2.0000     -10.442870      -284.1649
   2   2.0000     -10.355824      -281.7963
   3   2.0000      -1.187775       -32.3210
   4   2.0000      -0.881576       -23.9889
   5   2.0000      -0.704020       -19.1574
   6   2.0000      -0.598490       -16.2858
   7   2.0000      -0.559644       -15.2287
   8   2.0000      -0.552289       -15.0285
   9   2.0000      -0.507914       -13.8211
  10   2.0000      -0.475094       -12.9280
  11   2.0000      -0.368584       -10.0297
  12   0.0000       0.038052         1.0354
  13   0.0000       0.053873         1.4660
  14   0.0000       0.059158         1.6098
  15   0.0000       0.083686         2.2772
  16   0.0000       0.086467         2.3529

MULLIKEN ATOMIC CHARGES
-----------------------
   0 O :   -0.474801
   1 C :    0.237003
   2 C :   -0.695365
   3 H :    0.242883
   4 H :    0.224231
   5 H :    0.241936
   6 H :    0.224113
Sum of atomic charges:    0.0000000

LOEWDIN ATOMIC CHARGES
----------------------
   0 O :    0.065192
   1 C :   -0.223107
   2 C :    0.167558
   3 H :    0.023367
   4 H :   -0.011890
   5 H :   -0.009206
   6 H :   -0.011914

  Mayer bond orders larger than 0.100000
B(  0-O ,  1-C ) :   1.7704 B(  1-C ,  2-C ) :   0.7629 B(  1-C ,  3-H ) :   0.9840
B(  2-C ,  4-H ) :   0.9935 B(  2-C ,  5-H ) :   0.9571 B(  2-C ,  6-H ) :   0.9935

Dispersion correction           -0.005540643
FINAL SINGLE POINT ENERGY      -153.931788025035

DIPOLE MOMENT
-------------

Method             : SCF
Type of density    : Electron Density
Multiplicity       :   1
Irrep              :   0
Energy             :  -153.9262473817739192 Eh
Relativity type    :
Basis              : AO
                                X                 Y                 Z
Electronic contribution:      2.141618514       2.463316349       0.135172905
Nuclear contribution   :     -2.599220626      -3.459042099       0.099321310
                        -----------------------------------------
Total Dipole Moment    :     -0.457602112      -0.995725750       0.234494215
                        -----------------------------------------
Magnitude (a.u.)       :      1.120650257
Magnitude (Debye)      :      2.848466583

Rotational constants in cm-1:             1.860936             0.346059             0.308302
Rotational constants in MHz :         55789.462426         10374.592299          9242.668349

                             ****ORCA TERMINATED NORMALLY****
TOTAL RUN TIME: 0 days 0 hours 7 minutes 32 seconds 431 msec
