                         Program Version 6.0.0  -   RELEASE  -
|  1> ! Engrad def2-TZVPPD wB97M-D3BJ
|  2> %pal nprocs 8 end%pal nprocs 64 end
|  3> %tddft Nroots 2 Iroot 1
|  4> sf true
|  5> end
|  6> *xyz 0 3
|  7> O   2.884504 1.10149799 -0.83775594
|  8> O   -0.55283178 0.9096638 -2.03509247
|  9> O   1.32900018 -3.18735968 -1.18800294
| 10> O   -3.21279599 -1.58546779 0.58629355
| 11> N   0.81545597 -2.04084386 0.70259465
| 12> N   -2.47292853 0.41256351 1.46353018
| 13> N   1.94640366 -1.00438314 -1.02034473
| 14> N   -1.90344043 -0.29124904 -0.69186335
| 15> C   1.84257462 0.17588569 1.07169115
| 16> C   -1.24077732 1.88521889 -0.04368508
| 17> C   1.00662966 -0.89582706 1.49840995
| 18> C   -1.96688313 1.69411655 1.16981465
| 19> C   2.35553733 1.26816385 1.94665725
| 20> C   -0.51417115 3.18379328 -0.13250702
| 21> C   2.26520564 0.23715162 -0.28282087
| 22> C   -1.18222915 0.85271909 -1.02504429
| 23> C   1.39629365 -2.16632484 -0.5723785
| 24> C   -2.6163131 -0.57896458 0.43224563
| 25> H   0.49188519 -0.85735236 2.42059037
| 26> H   -2.02887147 2.39479276 1.98216524
| 27> H   1.64563152 1.98514782 2.55829043
| 28> H   3.03279219 0.79258111 2.67408804
| 29> H   2.99783472 1.99813593 1.4553932
| 30> H   -1.13306966 4.00642495 0.28726611
| 31> H   0.46583294 3.21488554 0.51421827
| 32> H   0.03747771 3.22999531 -1.07748926
| 33> H   0.25449807 -2.84081666 1.01574231
| 34> H   -2.99846531 0.26888758 2.32358175
| 35> H   2.48158793 -0.97655696 -1.86439038
| 36> H   -1.8950436 -1.02308238 -1.33422446
| 37> *
| 38>
| 39>                          ****END OF INPUT****

CARTESIAN COORDINATES (ANGSTROEM)
---------------------------------
  O      2.884504    1.101498   -0.837756
  O     -0.552832    0.909664   -2.035092
  O      1.329000   -3.187360   -1.188003
  O     -3.212796   -1.585468    0.586294
  N      0.815456   -2.040844    0.702595
  N     -2.472929    0.412564    1.463530
  N      1.946404   -1.004383   -1.020345
  N     -1.903440   -0.291249   -0.691863
  C      1.842575    0.175886    1.071691
  C     -1.240777    1.885219   -0.043685
  C      1.006630   -0.895827    1.498410
  C     -1.966883    1.694117    1.169815
  C      2.355537    1.268164    1.946657
  C     -0.514171    3.183793   -0.132507
  C      2.265206    0.237152   -0.282821
  C     -1.182229    0.852719   -1.025044
  C      1.396294   -2.166325   -0.572378
  C     -2.616313   -0.578965    0.432246
  H      0.491885   -0.857352    2.420590
  H     -2.028871    2.394793    1.982165
  H      1.645632    1.985148    2.558290
  H      3.032792    0.792581    2.674088
  H      2.997835    1.998136    1.455393
  H     -1.133070    4.006425    0.287266
  H      0.465833    3.214886    0.514218
  H      0.037478    3.229995   -1.077489
  H      0.254498   -2.840817    1.015742
  H     -2.998465    0.268888    2.323582
  H      2.481588   -0.976557   -1.864390
  H     -1.895044   -1.023082   -1.334224

 Total Charge           Charge          ....    0
 Multiplicity           Mult            ....    3
 Number of Electrons    NEL             ....  132
 Basis Dimension        Dim             ....  882

ORBITAL ENERGIES
----------------
                 SPIN UP ORBITALS
  NO   OCC          E(Eh)            E(eV)
   0   1.0000     -19.331858      -526.0466
   1   1.0000     -19.331279      -526.0308
   2   1.0000     -19.322615      -525.7951
   3   1.0000     -19.318261      -525.6766
   4   1.0000     -14.584039      -396.8519
   5   1.0000     -14.582683      -396.8150
   6   1.0000     -14.563566      -396.2948
   7   1.0000     -14.541291      -395.6886
   8   1.0000     -10.513209      -286.0790
   9   1.0000     -10.500692      -285.7384
  10   1.0000     -10.472693      -284.9765
  11   1.0000     -10.463589      -284.7287
  12   1.0000     -10.444568      -284.2111
  13   1.0000     -10.417055      -283.4625
  14   1.0000     -10.403304      -283.0883
  15   1.0000     -10.383207      -282.5414
  16   1.0000     -10.377549      -282.3875
  17   1.0000     -10.362677      -281.9828
  18   1.0000      -1.237002       -33.6605
  19   1.0000      -1.220076       -33.2000
  20   1.0000      -1.203063       -32.7370
  21   1.0000      -1.200952       -32.6796
  22   1.0000      -1.113129       -30.2898
  23   1.0000      -1.105344       -30.0779
  24   1.0000      -1.068917       -29.0867
  25   1.0000      -1.043951       -28.4073
  26   1.0000      -0.964530       -26.2462
  27   1.0000      -0.943874       -25.6841
  28   1.0000      -0.846189       -23.0260
  29   1.0000      -0.831435       -22.6245
  30   1.0000      -0.814878       -22.1740
  31   1.0000      -0.803506       -21.8645
  32   1.0000      -0.788236       -21.4490
  33   1.0000      -0.777601       -21.1596
  34   1.0000      -0.696051       -18.9405
  35   1.0000      -0.682721       -18.5778
  36   1.0000      -0.681710       -18.5503
  37   1.0000      -0.673801       -18.3350
  38   1.0000      -0.641581       -17.4583
  39   1.0000      -0.626341       -17.0436
  40   1.0000      -0.612516       -16.6674
  41   1.0000      -0.602114       -16.3844
  42   1.0000      -0.600051       -16.3282
  43   1.0000      -0.595121       -16.1941
  44   1.0000      -0.571721       -15.5573
  45   1.0000      -0.570489       -15.5238
  46   1.0000      -0.562135       -15.2965
  47   1.0000      -0.558423       -15.1955
  48   1.0000      -0.556206       -15.1351
  49   1.0000      -0.542501       -14.7622
  50   1.0000      -0.533285       -14.5114
  51   1.0000      -0.523527       -14.2459
  52   1.0000      -0.520296       -14.1580
  53   1.0000      -0.512822       -13.9546
  54   1.0000      -0.490814       -13.3557
  55   1.0000      -0.488145       -13.2831
  56   1.0000      -0.481798       -13.1104
  57   1.0000      -0.459838       -12.5128
  58   1.0000      -0.424789       -11.5591
  59   1.0000      -0.419763       -11.4223
  60   1.0000      -0.406172       -11.0525
  61   1.0000      -0.399519       -10.8715
  62   1.0000      -0.389974       -10.6117
  63   1.0000      -0.386764       -10.5244
  64   1.0000      -0.377158       -10.2630
  65   1.0000      -0.330141        -8.9836
  66   1.0000      -0.229969        -6.2578
  67   0.0000       0.005012         0.1364
  68   0.0000       0.011023         0.3000
  69   0.0000       0.030219         0.8223
  70   0.0000       0.033916         0.9229
  71   0.0000       0.042879         1.1668

                 SPIN DOWN ORBITALS
  NO   OCC          E(Eh)            E(eV)
   0   1.0000     -19.331274      -526.0307
   1   1.0000     -19.325367      -525.8700
   2   1.0000     -19.320864      -525.7474
   3   1.0000     -19.318302      -525.6777
   4   1.0000     -14.582588      -396.8124
   5   1.0000     -14.578910      -396.7123
   6   1.0000     -14.563573      -396.2950
   7   1.0000     -14.540658      -395.6714
   8   1.0000     -10.513207      -286.0789
   9   1.0000     -10.501059      -285.7483
  10   1.0000     -10.472683      -284.9762
  11   1.0000     -10.463669      -284.7309
  12   1.0000     -10.444433      -284.2075
  13   1.0000     -10.407386      -283.1994
  14   1.0000     -10.392576      -282.7964
  15   1.0000     -10.383222      -282.5418
  16   1.0000     -10.378089      -282.4022
  17   1.0000     -10.362671      -281.9826
  18   1.0000      -1.236986       -33.6601
  19   1.0000      -1.216084       -33.0913
  20   1.0000      -1.203039       -32.7363
  21   1.0000      -1.191399       -32.4196
  22   1.0000      -1.113023       -30.2869
  23   1.0000      -1.095043       -29.7976
  24   1.0000      -1.068835       -29.0845
  25   1.0000      -1.038385       -28.2559
  26   1.0000      -0.944380       -25.6979
  27   1.0000      -0.940662       -25.5967
  28   1.0000      -0.833679       -22.6856
  29   1.0000      -0.831231       -22.6189
  30   1.0000      -0.814804       -22.1719
  31   1.0000      -0.789268       -21.4771
  32   1.0000      -0.788107       -21.4455
  33   1.0000      -0.772194       -21.0125
  34   1.0000      -0.696028       -18.9399
  35   1.0000      -0.676105       -18.3978
  36   1.0000      -0.673766       -18.3341
  37   1.0000      -0.669793       -18.2260
  38   1.0000      -0.641419       -17.4539
  39   1.0000      -0.618437       -16.8285
  40   1.0000      -0.608280       -16.5521
  41   1.0000      -0.600058       -16.3284
  42   1.0000      -0.589437       -16.0394
  43   1.0000      -0.583763       -15.8850
  44   1.0000      -0.570824       -15.5329
  45   1.0000      -0.563310       -15.3284
  46   1.0000      -0.558156       -15.1882
  47   1.0000      -0.551004       -14.9936
  48   1.0000      -0.545205       -14.8358
  49   1.0000      -0.536737       -14.6054
  50   1.0000      -0.521824       -14.1996
  51   1.0000      -0.520944       -14.1756
  52   1.0000      -0.513443       -13.9715
  53   1.0000      -0.500730       -13.6256
  54   1.0000      -0.489452       -13.3187
  55   1.0000      -0.483669       -13.1613
  56   1.0000      -0.459794       -12.5116
  57   1.0000      -0.435561       -11.8522
  58   1.0000      -0.424696       -11.5566
  59   1.0000      -0.413463       -11.2509
  60   1.0000      -0.403910       -10.9909
  61   1.0000      -0.388542       -10.5728
  62   1.0000      -0.383248       -10.4287
  63   1.0000      -0.377776       -10.2798
  64   1.0000      -0.330346        -8.9892
  65   0.0000      -0.095863        -2.6086
  66   0.0000       0.005583         0.1519
  67   0.0000       0.010333         0.2812
  68   0.0000       0.028554         0.7770
  69   0.0000       0.032037         0.8718

----------------------------------------------------------------------------------------------------
          SPIN FLIP ABSORPTION SPECTRUM VIA TRANSITION ELECTRIC DIPOLE MOMENTS
----------------------------------------------------------------------------------------------------
     Transition      Energy     Energy  Wavelength fosc(D2)      D2        DX        DY        DZ
                      (eV)      (cm-1)    (nm)                 (au**2)    (au)      (au)      (au)
----------------------------------------------------------------------------------------------------
  1-3A  ->  2-3A    3.409032   27495.7   363.7   0.000731746   0.00876   0.04208   0.03916  -0.07387

Dispersion correction             ... done (  0.1 sec)

MULLIKEN ATOMIC CHARGES AND SPIN DENSITIES
------------------------------------------
   0 O :   -0.658238    0.025571
   1 O :   -0.637532   -0.000033
   2 O :   -0.631826    0.008168
   3 O :   -0.606038   -0.000004
   4 N :    0.000417    0.051110
   5 N :    0.012750   -0.002975
   6 N :    0.050577    0.000273
   7 N :    0.049755   -0.001557
   8 C :    0.978261    0.507109
   9 C :    0.654358   -0.003104
  10 C :   -0.360049   -0.371003
  11 C :   -0.048685    0.003506
  12 C :   -1.347296    0.008175
  13 C :   -1.263358    0.007232
  14 C :    0.299012   -0.311604
  15 C :    0.468308   -0.007285
  16 C :    0.444856    0.020952
  17 C :    0.433711    0.002328
  18 H :    0.219208    0.040807
  19 H :    0.155320   -0.000278
  20 H :    0.253411    0.013258
  21 H :    0.397119    0.015194
  22 H :    0.271217   -0.006846
  23 H :    0.375271   -0.000449
  24 H :    0.138689   -0.000903
  25 H :    0.265045   -0.000600
  26 H :    0.079590   -0.000054
  27 H :    0.055796    0.000511
  28 H :    0.008883    0.002048
  29 H :   -0.058533    0.000455
Sum of atomic charges       :    0.0000000

LOEWDIN ATOMIC CHARGES AND SPIN DENSITIES
-----------------------------------------
   0 O :    0.094312    0.022563
   1 O :    0.116386    0.000230
   2 O :    0.100120    0.007014
   3 O :    0.113689   -0.000054
   4 N :    0.273505    0.023354
   5 N :    0.257993   -0.000235
   6 N :    0.344618   -0.001755
   7 N :    0.355257   -0.000070
   8 C :   -0.141437   -0.027795
   9 C :   -0.134284   -0.000354
  10 C :    0.127954   -0.027511
  11 C :    0.104680   -0.001915
  12 C :    0.128655   -0.002153
  13 C :    0.146216    0.000157
  14 C :   -0.411402    0.007796
  15 C :   -0.441471    0.000009
  16 C :   -0.504996    0.000855
  17 C :   -0.486528   -0.000163
  18 H :    0.005572   -0.002576
  19 H :    0.020853   -0.000112
  20 H :    0.044314    0.000551
  21 H :   -0.009604   -0.000085
  22 H :   -0.020954    0.000096
  23 H :    0.001993    0.000023
  24 H :    0.030187    0.000081
  25 H :   -0.012659   -0.000002
  26 H :   -0.001248    0.002049
  27 H :   -0.026505   -0.000003
  28 H :   -0.030352    0.000009
  29 H :   -0.044864   -0.000005

  Mayer bond orders larger than 0.100000
B(  0-O , 14-C ) :   1.3901 B(  1-O , 15-C ) :   1.4430 B(  2-O , 16-C ) :   1.5885
B(  3-O , 17-C ) :   1.5859 B(  4-N , 10-C ) :   1.0300 B(  4-N , 16-C ) :   0.9901
B(  4-N , 26-H ) :   1.0857 B(  5-N , 11-C ) :   0.9468 B(  5-N , 17-C ) :   1.0263
B(  5-N , 27-H ) :   1.1037 B(  6-N , 14-C ) :   0.9837 B(  6-N , 16-C ) :   1.0469
B(  6-N , 28-H ) :   1.1012 B(  7-N , 15-C ) :   0.8701 B(  7-N , 17-C ) :   0.9738
B(  7-N , 29-H ) :   1.1898 B(  8-C , 10-C ) :   1.1876 B(  8-C , 12-C ) :   0.3756
B(  8-C , 14-C ) :   0.6346 B(  8-C , 22-H ) :  -0.1136 B(  9-C , 11-C ) :   1.0896
B(  9-C , 13-C ) :   0.5913 B(  9-C , 15-C ) :   0.8045 B(  9-C , 19-H ) :  -0.1129
B( 10-C , 14-C ) :   0.1193 B( 10-C , 18-H ) :   1.0175 B( 11-C , 13-C ) :  -0.1020
B( 11-C , 19-H ) :   1.1438 B( 12-C , 20-H ) :   0.9121 B( 12-C , 21-H ) :   0.8569
B( 12-C , 22-H ) :   1.0398 B( 13-C , 23-H ) :   0.9050 B( 13-C , 24-H ) :   1.0123
B( 13-C , 25-H ) :   0.9937

Dispersion correction           -0.052469738
FINAL SINGLE POINT ENERGY      -908.851820221850

DIPOLE MOMENT
-------------

Method             : TDA/CIS
Type of density    : Electron Density
Level              : Relaxed density
State              :   1
Multiplicity       :   3
Irrep              :   0
Energy             :     0.0000000000000000 Eh
Relativity type    :
Basis              : AO
                                X                 Y                 Z
Electronic contribution:     -3.826866261     -10.779234099      -6.948011264
Nuclear contribution   :      2.958477994      11.603246962       9.752305573
                        -----------------------------------------
Total Dipole Moment    :     -0.868388267       0.824012862       2.804294309
                        -----------------------------------------
Magnitude (a.u.)       :      3.049124784
Magnitude (Debye)      :      7.750259278

Rotational constants in cm-1:             0.017477             0.013047             0.010323
Rotational constants in MHz :           523.939899           391.148044           309.462851

                             ****ORCA TERMINATED NORMALLY****
TOTAL RUN TIME: 0 days 0 hours 5 minutes 17 seconds 59 msec
