                         Program Version 6.0.0  -   RELEASE  -
|  1> ! Engrad def2-TZVPPD wB97M-D3BJ
|  2> %pal nprocs 8 end%pal nprocs 64 end
|  3> %tddft
|  4>  Iroot 2 Nroots 3
|  5> sf true
|  6> end
|  7> *xyz 0 3
|  8> O   3.14353656 0.68263982 -0.67308997
|  9> O   -0.47430496 1.3523391 -2.42315715
| 10> O   0.49374693 -3.10896667 -0.49072709
| 11> O   -2.9804935 -1.82545483 -0.23845071
| 12> N   0.1330536 -1.43594391 1.03564817
| 13> N   -2.1671624 -0.08993047 0.96284561
| 14> N   1.71319733 -1.15128343 -0.66875046
| 15> N   -1.65726287 -0.30135419 -1.35907228
| 16> C   1.53231447 0.50394541 1.06463947
| 17> C   -0.7181906 1.61633744 -0.00654701
| 18> C   0.26893163 -0.10359813 1.54506801
| 19> C   -1.1008477 0.78635544 1.16537634
| 20> C   2.16566116 1.51948494 2.00494346
| 21> C   -0.12283559 2.9384322 -0.11762604
| 22> C   2.22982282 0.03278085 -0.16791672
| 23> C   -0.97652688 0.97903392 -1.36730843
| 24> C   0.74662466 -2.0266534 -0.05068645
| 25> C   -2.33421457 -0.79560425 -0.17033672
| 26> H   0.24438489 -0.17231744 2.64849937
| 27> H   -1.37777991 1.41278653 2.00946369
| 28> H   2.64274427 0.89340879 2.71432052
| 29> H   2.91353347 2.13431263 1.49171859
| 30> H   1.40211554 2.16710993 2.44603911
| 31> H   -0.81204342 3.56202921 -0.74191271
| 32> H   -0.05662313 3.48911371 0.8542454
| 33> H   0.85577472 2.87957689 -0.56625293
| 34> H   -0.68143772 -1.97732771 1.28213122
| 35> H   -2.9326313 -0.19228495 1.66182874
| 36> H   1.92414759 -1.30668322 -1.66752849
| 37> H   -1.70464836 -0.84807959 -2.22911548
| 38> *
| 39>
| 40>                          ****END OF INPUT****

CARTESIAN COORDINATES (ANGSTROEM)
---------------------------------
  O      3.143537    0.682640   -0.673090
  O     -0.474305    1.352339   -2.423157
  O      0.493747   -3.108967   -0.490727
  O     -2.980494   -1.825455   -0.238451
  N      0.133054   -1.435944    1.035648
  N     -2.167162   -0.089930    0.962846
  N      1.713197   -1.151283   -0.668750
  N     -1.657263   -0.301354   -1.359072
  C      1.532314    0.503945    1.064639
  C     -0.718191    1.616337   -0.006547
  C      0.268932   -0.103598    1.545068
  C     -1.100848    0.786355    1.165376
  C      2.165661    1.519485    2.004943
  C     -0.122836    2.938432   -0.117626
  C      2.229823    0.032781   -0.167917
  C     -0.976527    0.979034   -1.367308
  C      0.746625   -2.026653   -0.050686
  C     -2.334215   -0.795604   -0.170337
  H      0.244385   -0.172317    2.648499
  H     -1.377780    1.412787    2.009464
  H      2.642744    0.893409    2.714321
  H      2.913533    2.134313    1.491719
  H      1.402116    2.167110    2.446039
  H     -0.812043    3.562029   -0.741913
  H     -0.056623    3.489114    0.854245
  H      0.855775    2.879577   -0.566253
  H     -0.681438   -1.977328    1.282131
  H     -2.932631   -0.192285    1.661829
  H      1.924148   -1.306683   -1.667528
  H     -1.704648   -0.848080   -2.229115

 Total Charge           Charge          ....    0
 Multiplicity           Mult            ....    3
 Number of Electrons    NEL             ....  132
 Basis Dimension        Dim             ....  882

ORBITAL ENERGIES
----------------
                 SPIN UP ORBITALS
  NO   OCC          E(Eh)            E(eV)
   0   1.0000     -19.333848      -526.1007
   1   1.0000     -19.329960      -525.9949
   2   1.0000     -19.327546      -525.9293
   3   1.0000     -19.322256      -525.7853
   4   1.0000     -14.573030      -396.5523
   5   1.0000     -14.561906      -396.2496
   6   1.0000     -14.559416      -396.1819
   7   1.0000     -14.557139      -396.1199
   8   1.0000     -10.510533      -286.0061
   9   1.0000     -10.509891      -285.9887
  10   1.0000     -10.485820      -285.3337
  11   1.0000     -10.482420      -285.2412
  12   1.0000     -10.449691      -284.3506
  13   1.0000     -10.444950      -284.2215
  14   1.0000     -10.418357      -283.4979
  15   1.0000     -10.414166      -283.3839
  16   1.0000     -10.375039      -282.3192
  17   1.0000     -10.372218      -282.2424
  18   1.0000      -1.219184       -33.1757
  19   1.0000      -1.212077       -32.9823
  20   1.0000      -1.188777       -32.3483
  21   1.0000      -1.187082       -32.3022
  22   1.0000      -1.125340       -30.6221
  23   1.0000      -1.097813       -29.8730
  24   1.0000      -1.051458       -28.6116
  25   1.0000      -1.040306       -28.3082
  26   1.0000      -0.979098       -26.6426
  27   1.0000      -0.946112       -25.7450
  28   1.0000      -0.886795       -24.1309
  29   1.0000      -0.840049       -22.8589
  30   1.0000      -0.812666       -22.1138
  31   1.0000      -0.796853       -21.6835
  32   1.0000      -0.777053       -21.1447
  33   1.0000      -0.766407       -20.8550
  34   1.0000      -0.700406       -19.0590
  35   1.0000      -0.684279       -18.6202
  36   1.0000      -0.680176       -18.5085
  37   1.0000      -0.666653       -18.1405
  38   1.0000      -0.652272       -17.7492
  39   1.0000      -0.641315       -17.4511
  40   1.0000      -0.626850       -17.0574
  41   1.0000      -0.595160       -16.1951
  42   1.0000      -0.588985       -16.0271
  43   1.0000      -0.579102       -15.7582
  44   1.0000      -0.574854       -15.6426
  45   1.0000      -0.569691       -15.5021
  46   1.0000      -0.562329       -15.3018
  47   1.0000      -0.559392       -15.2218
  48   1.0000      -0.556009       -15.1298
  49   1.0000      -0.553657       -15.0658
  50   1.0000      -0.542927       -14.7738
  51   1.0000      -0.541516       -14.7354
  52   1.0000      -0.527203       -14.3459
  53   1.0000      -0.514140       -13.9904
  54   1.0000      -0.511553       -13.9201
  55   1.0000      -0.503570       -13.7028
  56   1.0000      -0.490361       -13.3434
  57   1.0000      -0.421452       -11.4683
  58   1.0000      -0.416690       -11.3387
  59   1.0000      -0.408738       -11.1223
  60   1.0000      -0.402606       -10.9555
  61   1.0000      -0.396200       -10.7811
  62   1.0000      -0.392960       -10.6930
  63   1.0000      -0.389007       -10.5854
  64   1.0000      -0.382545       -10.4096
  65   1.0000      -0.327181        -8.9030
  66   1.0000      -0.322491        -8.7754
  67   0.0000       0.003651         0.0993
  68   0.0000       0.029804         0.8110
  69   0.0000       0.031619         0.8604
  70   0.0000       0.037384         1.0173
  71   0.0000       0.055096         1.4992

                 SPIN DOWN ORBITALS
  NO   OCC          E(Eh)            E(eV)
   0   1.0000     -19.330568      -526.0115
   1   1.0000     -19.327424      -525.9259
   2   1.0000     -19.326160      -525.8916
   3   1.0000     -19.322141      -525.7822
   4   1.0000     -14.572708      -396.5435
   5   1.0000     -14.561392      -396.2356
   6   1.0000     -14.558838      -396.1661
   7   1.0000     -14.556860      -396.1123
   8   1.0000     -10.510561      -286.0069
   9   1.0000     -10.509918      -285.9894
  10   1.0000     -10.486688      -285.3573
  11   1.0000     -10.483466      -285.2696
  12   1.0000     -10.448995      -284.3316
  13   1.0000     -10.444267      -284.2030
  14   1.0000     -10.406785      -283.1830
  15   1.0000     -10.402429      -283.0645
  16   1.0000     -10.375493      -282.3315
  17   1.0000     -10.372677      -282.2549
  18   1.0000      -1.218516       -33.1575
  19   1.0000      -1.211325       -32.9618
  20   1.0000      -1.184094       -32.2208
  21   1.0000      -1.181799       -32.1584
  22   1.0000      -1.123202       -30.5639
  23   1.0000      -1.095826       -29.8189
  24   1.0000      -1.049723       -28.5644
  25   1.0000      -1.038746       -28.2657
  26   1.0000      -0.964557       -26.2469
  27   1.0000      -0.929648       -25.2970
  28   1.0000      -0.881510       -23.9871
  29   1.0000      -0.836145       -22.7527
  30   1.0000      -0.803159       -21.8551
  31   1.0000      -0.790334       -21.5061
  32   1.0000      -0.775348       -21.0983
  33   1.0000      -0.764180       -20.7944
  34   1.0000      -0.695115       -18.9150
  35   1.0000      -0.678366       -18.4593
  36   1.0000      -0.673092       -18.3158
  37   1.0000      -0.660683       -17.9781
  38   1.0000      -0.645922       -17.5764
  39   1.0000      -0.635151       -17.2833
  40   1.0000      -0.618704       -16.8358
  41   1.0000      -0.590895       -16.0791
  42   1.0000      -0.583707       -15.8835
  43   1.0000      -0.569630       -15.5004
  44   1.0000      -0.567035       -15.4298
  45   1.0000      -0.564898       -15.3717
  46   1.0000      -0.557225       -15.1629
  47   1.0000      -0.552497       -15.0342
  48   1.0000      -0.547873       -14.9084
  49   1.0000      -0.546941       -14.8830
  50   1.0000      -0.538884       -14.6638
  51   1.0000      -0.534705       -14.5501
  52   1.0000      -0.517439       -14.0802
  53   1.0000      -0.505158       -13.7461
  54   1.0000      -0.502699       -13.6791
  55   1.0000      -0.498754       -13.5718
  56   1.0000      -0.486252       -13.2316
  57   1.0000      -0.418279       -11.3819
  58   1.0000      -0.414268       -11.2728
  59   1.0000      -0.404484       -11.0066
  60   1.0000      -0.391184       -10.6446
  61   1.0000      -0.385650       -10.4941
  62   1.0000      -0.383863       -10.4454
  63   1.0000      -0.381873       -10.3913
  64   1.0000      -0.371263       -10.1026
  65   0.0000      -0.054607        -1.4859
  66   0.0000      -0.039709        -1.0805
  67   0.0000       0.003211         0.0874
  68   0.0000       0.029794         0.8107
  69   0.0000       0.031501         0.8572

----------------------------------------------------------------------------------------------------
          SPIN FLIP ABSORPTION SPECTRUM VIA TRANSITION ELECTRIC DIPOLE MOMENTS
----------------------------------------------------------------------------------------------------
     Transition      Energy     Energy  Wavelength fosc(D2)      D2        DX        DY        DZ
                      (eV)      (cm-1)    (nm)                 (au**2)    (au)      (au)      (au)
----------------------------------------------------------------------------------------------------
  1-3A  ->  2-3A    0.053769     433.7  23058.8   0.000000582   0.00044  -0.00830   0.00693  -0.01802
  1-3A  ->  3-1A    2.024509   16328.8   612.4   0.009652471   0.19461  -0.40009   0.07687  -0.16918

Dispersion correction             ... done (  0.1 sec)

MULLIKEN ATOMIC CHARGES AND SPIN DENSITIES
------------------------------------------
   0 O :   -0.682810   -0.112610
   1 O :   -0.663028    0.097555
   2 O :   -0.591988   -0.001053
   3 O :   -0.639229   -0.002068
   4 N :   -0.308372   -0.002949
   5 N :   -0.257778    0.008203
   6 N :   -0.039889   -0.016698
   7 N :    0.037747    0.020134
   8 C :    1.326671    0.371245
   9 C :    0.158022    0.463782
  10 C :   -0.553814   -0.503531
  11 C :    0.542169    0.012906
  12 C :   -1.536696    0.043500
  13 C :   -1.441309   -0.015731
  14 C :    0.035648   -0.454116
  15 C :    0.378872   -0.015294
  16 C :    0.449878    0.036378
  17 C :    0.265553    0.002099
  18 H :    0.505624   -0.006547
  19 H :    0.537430    0.020661
  20 H :    0.465532   -0.006135
  21 H :    0.303562   -0.015077
  22 H :    0.346593    0.013937
  23 H :    0.416949    0.025885
  24 H :    0.283109   -0.000863
  25 H :    0.311183    0.030260
  26 H :    0.088794    0.003926
  27 H :    0.113295   -0.000882
  28 H :    0.071031    0.004093
  29 H :    0.077249   -0.001011
Sum of atomic charges       :   -0.0000000

LOEWDIN ATOMIC CHARGES AND SPIN DENSITIES
-----------------------------------------
   0 O :    0.063535   -0.100145
   1 O :    0.071217    0.083366
   2 O :    0.115870   -0.000638
   3 O :    0.077586   -0.001801
   4 N :    0.263387    0.001535
   5 N :    0.229238   -0.003037
   6 N :    0.311303   -0.019108
   7 N :    0.319242    0.015267
   8 C :   -0.008688   -0.384513
   9 C :   -0.045832    0.393952
  10 C :   -0.097560   -0.012684
  11 C :   -0.105781    0.016073
  12 C :    0.202724   -0.047455
  13 C :    0.152640    0.059794
  14 C :   -0.410825   -0.059718
  15 C :   -0.342401    0.052285
  16 C :   -0.453572    0.000827
  17 C :   -0.483703   -0.000793
  18 H :    0.058670   -0.003628
  19 H :    0.052239    0.002709
  20 H :   -0.017969   -0.017268
  21 H :    0.007895   -0.001117
  22 H :   -0.002339   -0.005775
  23 H :    0.032653    0.017936
  24 H :    0.017802   -0.000729
  25 H :   -0.001333    0.015750
  26 H :   -0.038609   -0.000378
  27 H :    0.027679   -0.000462
  28 H :    0.007664   -0.001459
  29 H :   -0.002731    0.001214

  Mayer bond orders larger than 0.100000
B(  0-O , 14-C ) :   1.3655 B(  1-O , 15-C ) :   1.4208 B(  2-O , 16-C ) :   1.6372
B(  3-O , 17-C ) :   1.5660 B(  4-N ,  8-C ) :   0.1522 B(  4-N , 10-C ) :   0.4274
B(  4-N , 11-C ) :  -0.1040 B(  4-N , 16-C ) :   1.0257 B(  4-N , 17-C ) :   0.1026
B(  4-N , 18-H ) :  -0.1077 B(  4-N , 26-H ) :   1.1002 B(  5-N ,  9-C ) :   0.1915
B(  5-N , 10-C ) :   0.1520 B(  5-N , 11-C ) :   0.3100 B(  5-N , 17-C ) :   1.1154
B(  5-N , 27-H ) :   1.0494 B(  6-N ,  8-C ) :  -0.1155 B(  6-N , 10-C ) :   0.1159
B(  6-N , 14-C ) :   0.9930 B(  6-N , 16-C ) :   0.8622 B(  6-N , 28-H ) :   1.1009
B(  7-N , 11-C ) :   0.1336 B(  7-N , 15-C ) :   1.0323 B(  7-N , 17-C ) :   0.9843
B(  7-N , 29-H ) :   1.0690 B(  8-C ,  9-C ) :   0.2017 B(  8-C , 10-C ) :   0.1466
B(  8-C , 12-C ) :   0.3648 B(  8-C , 14-C ) :   0.3010 B(  8-C , 18-H ) :  -0.1197
B(  8-C , 21-H ) :  -0.1309 B(  9-C , 10-C ) :   0.2612 B(  9-C , 11-C ) :   0.3058
B(  9-C , 13-C ) :   0.3389 B(  9-C , 15-C ) :   0.8519 B(  9-C , 19-H ) :  -0.1646
B(  9-C , 24-H ) :  -0.1266 B( 10-C , 11-C ) :   0.4869 B( 10-C , 14-C ) :   0.2529
B( 10-C , 16-C ) :  -0.1556 B( 10-C , 18-H ) :   0.7407 B( 11-C , 13-C ) :  -0.1290
B( 11-C , 17-C ) :  -0.1925 B( 11-C , 19-H ) :   0.8184 B( 12-C , 20-H ) :   0.7626
B( 12-C , 21-H ) :   1.1078 B( 12-C , 22-H ) :   0.9173 B( 13-C , 23-H ) :   0.8370
B( 13-C , 24-H ) :   1.0618 B( 13-C , 25-H ) :   0.9439 B( 14-C , 16-C ) :  -0.1168

Dispersion correction           -0.059503394
FINAL SINGLE POINT ENERGY      -908.765652853609

DIPOLE MOMENT
-------------

Method             : TDA/CIS
Type of density    : Electron Density
Level              : Relaxed density
State              :   2
Multiplicity       :   3
Irrep              :   0
Energy             :     0.0000000000000000 Eh
Relativity type    :
Basis              : AO
                                X                 Y                 Z
Electronic contribution:     -3.149050811     -10.039678685      -6.837051413
Nuclear contribution   :      2.351788306      11.710128826       9.449907131
                        -----------------------------------------
Total Dipole Moment    :     -0.797262505       1.670450141       2.612855717
                        -----------------------------------------
Magnitude (a.u.)       :      3.202037816
Magnitude (Debye)      :      8.138933316

Rotational constants in cm-1:             0.019299             0.015096             0.012608
Rotational constants in MHz :           578.565899           452.566298           377.981175

                             ****ORCA TERMINATED NORMALLY****
TOTAL RUN TIME: 0 days 0 hours 4 minutes 53 seconds 535 msec
