                         Program Version 6.0.0  -   RELEASE  -
|  1> ! Engrad def2-TZVPPD wB97M-D3BJ
|  2> %pal nprocs 8 end%pal nprocs 32 end
|  3> %tddft Nroots 2 Iroot 2
|  4> sf true
|  5> end
|  6> *xyz 0 3
|  7> O   0.74282463 1.41351389 0.13753148
|  8> C   0.63541803 0.10568304 -0.30021618
|  9> C   -0.55760704 -0.81269996 0.19716595
| 10> H   -0.15407155 -1.61180988 0.82895946
| 11> H   1.27550015 -0.30562792 -1.09831736
| 12> H   -1.01483123 -1.24811619 -0.7152879
| 13> H   -1.19065391 -0.17093858 0.78425697
| 14> *
| 15>
| 16>                          ****END OF INPUT****

CARTESIAN COORDINATES (ANGSTROEM)
---------------------------------
  O      0.742825    1.413514    0.137531
  C      0.635418    0.105683   -0.300216
  C     -0.557607   -0.812700    0.197166
  H     -0.154072   -1.611810    0.828959
  H      1.275500   -0.305628   -1.098317
  H     -1.014831   -1.248116   -0.715288
  H     -1.190654   -0.170939    0.784257

 Total Charge           Charge          ....    0
 Multiplicity           Mult            ....    3
 Number of Electrons    NEL             ....   24
 Basis Dimension        Dim             ....  182

ORBITAL ENERGIES
----------------
                 SPIN UP ORBITALS
  NO   OCC          E(Eh)            E(eV)
   0   1.0000     -19.425353      -528.5907
   1   1.0000     -10.405482      -283.1476
   2   1.0000     -10.372323      -282.2453
   3   1.0000      -1.176442       -32.0126
   4   1.0000      -0.870583       -23.6898
   5   1.0000      -0.720905       -19.6168
   6   1.0000      -0.605853       -16.4861
   7   1.0000      -0.558341       -15.1932
   8   1.0000      -0.549628       -14.9562
   9   1.0000      -0.517505       -14.0820
  10   1.0000      -0.502842       -13.6830
  11   1.0000      -0.449437       -12.2298
  12   1.0000      -0.265304        -7.2193
  13   0.0000       0.040912         1.1133
  14   0.0000       0.060458         1.6451
  15   0.0000       0.078804         2.1444
  16   0.0000       0.092091         2.5059
  17   0.0000       0.105840         2.8801

                 SPIN DOWN ORBITALS
  NO   OCC          E(Eh)            E(eV)
   0   1.0000     -19.397031      -527.8201
   1   1.0000     -10.393285      -282.8157
   2   1.0000     -10.371305      -282.2176
   3   1.0000      -1.107361       -30.1328
   4   1.0000      -0.854058       -23.2401
   5   1.0000      -0.683272       -18.5928
   6   1.0000      -0.569018       -15.4838
   7   1.0000      -0.528145       -14.3716
   8   1.0000      -0.506962       -13.7951
   9   1.0000      -0.489892       -13.3306
  10   1.0000      -0.447627       -12.1805
  11   0.0000      -0.078481        -2.1356
  12   0.0000       0.041058         1.1173
  13   0.0000       0.054873         1.4932
  14   0.0000       0.061443         1.6719
  15   0.0000       0.080063         2.1786

----------------------------------------------------------------------------------------------------
          SPIN FLIP ABSORPTION SPECTRUM VIA TRANSITION ELECTRIC DIPOLE MOMENTS
----------------------------------------------------------------------------------------------------
     Transition      Energy     Energy  Wavelength fosc(D2)      D2        DX        DY        DZ
                      (eV)      (cm-1)    (nm)                 (au**2)    (au)      (au)      (au)
----------------------------------------------------------------------------------------------------
  1-3A  ->  2-3A    3.231910   26067.1   383.6   0.000050116   0.00063   0.01940   0.01411  -0.00759

Dispersion correction             ... done (  0.1 sec)

MULLIKEN ATOMIC CHARGES AND SPIN DENSITIES
------------------------------------------
   0 O :   -0.233967    0.817472
   1 C :    0.213903   -0.706540
   2 C :   -0.747629    0.037599
   3 H :    0.208177   -0.042817
   4 H :    0.099262   -0.073056
   5 H :    0.223626   -0.025801
   6 H :    0.236627   -0.006858
Sum of atomic charges       :    0.0000000

LOEWDIN ATOMIC CHARGES AND SPIN DENSITIES
-----------------------------------------
   0 O :    0.055089    0.636649
   1 C :   -0.085628   -0.536973
   2 C :    0.139204   -0.024387
   3 H :   -0.025623   -0.016979
   4 H :   -0.034493   -0.050057
   5 H :   -0.010662   -0.010923
   6 H :   -0.037887    0.002670

  Mayer bond orders larger than 0.100000
B(  0-O ,  1-C ) :   1.0666 B(  1-C ,  2-C ) :   0.7416 B(  1-C ,  4-H ) :   1.0392
B(  2-C ,  3-H ) :   1.0042 B(  2-C ,  5-H ) :   0.9620 B(  2-C ,  6-H ) :   0.9577

Dispersion correction           -0.005386620
FINAL SINGLE POINT ENERGY      -153.756686867679

DIPOLE MOMENT
-------------

Method             : TDA/CIS
Type of density    : Electron Density
Level              : Relaxed density
State              :   2
Multiplicity       :   3
Irrep              :   0
Energy             :     0.0000000000000000 Eh
Relativity type    :
Basis              : AO
                                X                 Y                 Z
Electronic contribution:      1.730131031       3.436766527       0.120819351
Nuclear contribution   :     -2.008906396      -4.029498645      -0.251017256
                        -----------------------------------------
Total Dipole Moment    :     -0.278775366      -0.592732118      -0.130197905
                        -----------------------------------------
Magnitude (a.u.)       :      0.667831238
Magnitude (Debye)      :      1.697492105

Rotational constants in cm-1:             1.617493             0.299824             0.265898
Rotational constants in MHz :         48491.227901          8988.488449          7971.415454

                             ****ORCA TERMINATED NORMALLY****
TOTAL RUN TIME: 0 days 0 hours 0 minutes 16 seconds 860 msec
