                         Program Version 6.0.0  -   RELEASE  -
|  1> ! Engrad def2-TZVPPD wB97M-D3BJ
|  2> %pal nprocs 8 end%pal nprocs 64 end
|  3> %tddft
|  4>  Iroot 1 Nroots 3
|  5> sf true
|  6> end
|  7> *xyz 0 3
|  8> O   3.38236713 -1.08037399 -1.92410887
|  9> O   -2.18282823 1.89509421 -1.43370978
| 10> O   -1.06609808 -2.09548613 -1.71295705
| 11> O   -3.06257969 0.44365103 2.80607781
| 12> N   0.08259572 -1.64241553 0.20650123
| 13> N   -0.89081706 0.35683837 2.07731524
| 14> N   1.16679233 -1.52607959 -1.80254772
| 15> N   -2.66743715 0.9413448 0.58799378
| 16> C   2.22145364 -0.5347026 0.10425336
| 17> C   -0.34148353 1.33235476 -0.02715971
| 18> C   1.01712063 -0.73659356 0.88435304
| 19> C   0.19969318 0.66470203 1.17313285
| 20> C   3.42951464 -0.00271419 0.66230298
| 21> C   0.61395881 1.97773986 -1.00673227
| 22> C   2.35210865 -1.09066953 -1.25670269
| 23> C   -1.75764835 1.42152912 -0.36993796
| 24> C   -0.04963545 -1.72685202 -1.16574672
| 25> C   -2.2483886 0.61846006 1.92759797
| 26> H   1.27546211 -1.12623892 1.87193085
| 27> H   0.91227287 1.41626845 1.6678766
| 28> H   3.14118664 0.81724272 1.35955969
| 29> H   3.89103756 -0.8639388 1.18308547
| 30> H   4.19436103 0.32586539 0.0018405
| 31> H   0.62865817 1.60850771 -1.97891164
| 32> H   0.31187017 2.94311855 -1.2127106
| 33> H   1.61879033 1.88958861 -0.64507372
| 34> H   -0.80346277 -1.82067272 0.70373891
| 35> H   -0.71843648 -0.23902644 2.88508324
| 36> H   1.19232653 -1.51114051 -2.7836256
| 37> H   -3.63868084 1.20888098 0.49794852
| 38> *
| 39>
| 40>                          ****END OF INPUT****

CARTESIAN COORDINATES (ANGSTROEM)
---------------------------------
  O      3.382367   -1.080374   -1.924109
  O     -2.182828    1.895094   -1.433710
  O     -1.066098   -2.095486   -1.712957
  O     -3.062580    0.443651    2.806078
  N      0.082596   -1.642416    0.206501
  N     -0.890817    0.356838    2.077315
  N      1.166792   -1.526080   -1.802548
  N     -2.667437    0.941345    0.587994
  C      2.221454   -0.534703    0.104253
  C     -0.341484    1.332355   -0.027160
  C      1.017121   -0.736594    0.884353
  C      0.199693    0.664702    1.173133
  C      3.429515   -0.002714    0.662303
  C      0.613959    1.977740   -1.006732
  C      2.352109   -1.090670   -1.256703
  C     -1.757648    1.421529   -0.369938
  C     -0.049635   -1.726852   -1.165747
  C     -2.248389    0.618460    1.927598
  H      1.275462   -1.126239    1.871931
  H      0.912273    1.416268    1.667877
  H      3.141187    0.817243    1.359560
  H      3.891038   -0.863939    1.183085
  H      4.194361    0.325865    0.001840
  H      0.628658    1.608508   -1.978912
  H      0.311870    2.943119   -1.212711
  H      1.618790    1.889589   -0.645074
  H     -0.803463   -1.820673    0.703739
  H     -0.718436   -0.239026    2.885083
  H      1.192327   -1.511141   -2.783626
  H     -3.638681    1.208881    0.497949

 Total Charge           Charge          ....    0
 Multiplicity           Mult            ....    3
 Number of Electrons    NEL             ....  132
 Basis Dimension        Dim             ....  882

ORBITAL ENERGIES
----------------
                 SPIN UP ORBITALS
  NO   OCC          E(Eh)            E(eV)
   0   1.0000     -19.338490      -526.2271
   1   1.0000     -19.334191      -526.1101
   2   1.0000     -19.331310      -526.0317
   3   1.0000     -19.325584      -525.8759
   4   1.0000     -14.570028      -396.4706
   5   1.0000     -14.565397      -396.3446
   6   1.0000     -14.563239      -396.2859
   7   1.0000     -14.561562      -396.2402
   8   1.0000     -10.517365      -286.1920
   9   1.0000     -10.509873      -285.9882
  10   1.0000     -10.486128      -285.3420
  11   1.0000     -10.485504      -285.3251
  12   1.0000     -10.460443      -284.6431
  13   1.0000     -10.457527      -284.5638
  14   1.0000     -10.425924      -283.7038
  15   1.0000     -10.417890      -283.4852
  16   1.0000     -10.377718      -282.3921
  17   1.0000     -10.362048      -281.9657
  18   1.0000      -1.220914       -33.2228
  19   1.0000      -1.217389       -33.1268
  20   1.0000      -1.196656       -32.5627
  21   1.0000      -1.187905       -32.3245
  22   1.0000      -1.118935       -30.4478
  23   1.0000      -1.100208       -29.9382
  24   1.0000      -1.066065       -29.0091
  25   1.0000      -1.052371       -28.6365
  26   1.0000      -0.989050       -26.9134
  27   1.0000      -0.964218       -26.2377
  28   1.0000      -0.891318       -24.2540
  29   1.0000      -0.852517       -23.1982
  30   1.0000      -0.828499       -22.5446
  31   1.0000      -0.802647       -21.8411
  32   1.0000      -0.793351       -21.5882
  33   1.0000      -0.774738       -21.0817
  34   1.0000      -0.701919       -19.1002
  35   1.0000      -0.693669       -18.8757
  36   1.0000      -0.692032       -18.8312
  37   1.0000      -0.682881       -18.5821
  38   1.0000      -0.654793       -17.8178
  39   1.0000      -0.642418       -17.4811
  40   1.0000      -0.619626       -16.8609
  41   1.0000      -0.607941       -16.5429
  42   1.0000      -0.603273       -16.4159
  43   1.0000      -0.585455       -15.9310
  44   1.0000      -0.578843       -15.7511
  45   1.0000      -0.571922       -15.5628
  46   1.0000      -0.568934       -15.4815
  47   1.0000      -0.568212       -15.4618
  48   1.0000      -0.564879       -15.3711
  49   1.0000      -0.561442       -15.2776
  50   1.0000      -0.556384       -15.1400
  51   1.0000      -0.536019       -14.5858
  52   1.0000      -0.530332       -14.4311
  53   1.0000      -0.524604       -14.2752
  54   1.0000      -0.515306       -14.0222
  55   1.0000      -0.513624       -13.9764
  56   1.0000      -0.505319       -13.7504
  57   1.0000      -0.425267       -11.5721
  58   1.0000      -0.421787       -11.4774
  59   1.0000      -0.410169       -11.1613
  60   1.0000      -0.407245       -11.0817
  61   1.0000      -0.404071       -10.9953
  62   1.0000      -0.399506       -10.8711
  63   1.0000      -0.391515       -10.6537
  64   1.0000      -0.387998       -10.5580
  65   1.0000      -0.354827        -9.6553
  66   1.0000      -0.321198        -8.7403
  67   0.0000       0.008021         0.2183
  68   0.0000       0.026783         0.7288
  69   0.0000       0.030578         0.8321
  70   0.0000       0.033866         0.9215
  71   0.0000       0.053535         1.4568

                 SPIN DOWN ORBITALS
  NO   OCC          E(Eh)            E(eV)
   0   1.0000     -19.334829      -526.1274
   1   1.0000     -19.331254      -526.0302
   2   1.0000     -19.329927      -525.9940
   3   1.0000     -19.325387      -525.8705
   4   1.0000     -14.569916      -396.4676
   5   1.0000     -14.564722      -396.3262
   6   1.0000     -14.562499      -396.2658
   7   1.0000     -14.561603      -396.2414
   8   1.0000     -10.517395      -286.1929
   9   1.0000     -10.509938      -285.9900
  10   1.0000     -10.486998      -285.3657
  11   1.0000     -10.486588      -285.3546
  12   1.0000     -10.459891      -284.6281
  13   1.0000     -10.457131      -284.5530
  14   1.0000     -10.414673      -283.3977
  15   1.0000     -10.406772      -283.1827
  16   1.0000     -10.378193      -282.4050
  17   1.0000     -10.362389      -281.9750
  18   1.0000      -1.219280       -33.1783
  19   1.0000      -1.216608       -33.1056
  20   1.0000      -1.192659       -32.4539
  21   1.0000      -1.182131       -32.1674
  22   1.0000      -1.116231       -30.3742
  23   1.0000      -1.098003       -29.8782
  24   1.0000      -1.063989       -28.9526
  25   1.0000      -1.050717       -28.5915
  26   1.0000      -0.975736       -26.5511
  27   1.0000      -0.947923       -25.7943
  28   1.0000      -0.886529       -24.1237
  29   1.0000      -0.847102       -23.0508
  30   1.0000      -0.818834       -22.2816
  31   1.0000      -0.796283       -21.6680
  32   1.0000      -0.791678       -21.5426
  33   1.0000      -0.773318       -21.0431
  34   1.0000      -0.697797       -18.9880
  35   1.0000      -0.687914       -18.7191
  36   1.0000      -0.684925       -18.6378
  37   1.0000      -0.677287       -18.4299
  38   1.0000      -0.640773       -17.4363
  39   1.0000      -0.639113       -17.3911
  40   1.0000      -0.612857       -16.6767
  41   1.0000      -0.603540       -16.4232
  42   1.0000      -0.596864       -16.2415
  43   1.0000      -0.579235       -15.7618
  44   1.0000      -0.571476       -15.5506
  45   1.0000      -0.567530       -15.4433
  46   1.0000      -0.564170       -15.3518
  47   1.0000      -0.562507       -15.3066
  48   1.0000      -0.558383       -15.1944
  49   1.0000      -0.553561       -15.0631
  50   1.0000      -0.543933       -14.8012
  51   1.0000      -0.529005       -14.3950
  52   1.0000      -0.521953       -14.2031
  53   1.0000      -0.516628       -14.0582
  54   1.0000      -0.507841       -13.8191
  55   1.0000      -0.505642       -13.7592
  56   1.0000      -0.499302       -13.5867
  57   1.0000      -0.422415       -11.4945
  58   1.0000      -0.418862       -11.3978
  59   1.0000      -0.403856       -10.9895
  60   1.0000      -0.396121       -10.7790
  61   1.0000      -0.395520       -10.7626
  62   1.0000      -0.391397       -10.6505
  63   1.0000      -0.386274       -10.5111
  64   1.0000      -0.379346       -10.3225
  65   0.0000      -0.072593        -1.9754
  66   0.0000      -0.049185        -1.3384
  67   0.0000       0.007915         0.2154
  68   0.0000       0.026441         0.7195
  69   0.0000       0.030656         0.8342

----------------------------------------------------------------------------------------------------
          SPIN FLIP ABSORPTION SPECTRUM VIA TRANSITION ELECTRIC DIPOLE MOMENTS
----------------------------------------------------------------------------------------------------
     Transition      Energy     Energy  Wavelength fosc(D2)      D2        DX        DY        DZ
                      (eV)      (cm-1)    (nm)                 (au**2)    (au)      (au)      (au)
----------------------------------------------------------------------------------------------------
  1-3A  ->  2-3A    0.178361    1438.6  6951.3   0.000061478   0.01407  -0.09932   0.05192   0.03883
  1-3A  ->  3-3A    2.249674   18144.8   551.1   0.002059427   0.03737   0.12417  -0.11748   0.09025

Dispersion correction             ... done (  0.1 sec)

MULLIKEN ATOMIC CHARGES AND SPIN DENSITIES
------------------------------------------
   0 O :   -0.679000   -0.013250
   1 O :   -0.682449    0.017706
   2 O :   -0.638223   -0.000878
   3 O :   -0.622074   -0.000299
   4 N :   -0.309635   -0.008083
   5 N :   -0.234237   -0.005182
   6 N :    0.023684   -0.004304
   7 N :   -0.002126    0.001689
   8 C :    0.359728    0.304840
   9 C :    0.549389    0.415573
  10 C :    0.410956   -0.221311
  11 C :    0.292931   -0.242876
  12 C :   -1.602445   -0.004091
  13 C :   -1.866352   -0.005642
  14 C :    0.315842   -0.150271
  15 C :    0.435515   -0.149183
  16 C :    0.436988    0.010895
  17 C :    0.352815    0.008713
  18 H :    0.492486   -0.004469
  19 H :    0.488311    0.010044
  20 H :    0.370972    0.008804
  21 H :    0.422029    0.007001
  22 H :    0.273728   -0.002513
  23 H :    0.280433    0.011198
  24 H :    0.468910    0.010354
  25 H :    0.363789    0.000851
  26 H :    0.117219    0.001036
  27 H :    0.099079    0.001476
  28 H :   -0.011218    0.001321
  29 H :    0.092954    0.000853
Sum of atomic charges       :    0.0000000

LOEWDIN ATOMIC CHARGES AND SPIN DENSITIES
-----------------------------------------
   0 O :    0.079267   -0.011625
   1 O :    0.070356    0.015810
   2 O :    0.098622   -0.000815
   3 O :    0.084956   -0.000326
   4 N :    0.264234   -0.000942
   5 N :    0.246240   -0.002602
   6 N :    0.342029   -0.003824
   7 N :    0.322869    0.000196
   8 C :   -0.084248   -0.037129
   9 C :    0.001233    0.057887
  10 C :   -0.086256   -0.007617
  11 C :   -0.113315   -0.002547
  12 C :    0.170985   -0.006209
  13 C :    0.245383    0.006701
  14 C :   -0.386755   -0.010295
  15 C :   -0.381947    0.004909
  16 C :   -0.471795   -0.000117
  17 C :   -0.439546   -0.000550
  18 H :    0.061938   -0.001743
  19 H :    0.084244    0.000747
  20 H :    0.019149   -0.000616
  21 H :    0.035756   -0.002123
  22 H :   -0.012207   -0.000173
  23 H :   -0.018802    0.002379
  24 H :   -0.028311    0.001906
  25 H :   -0.012944   -0.000634
  26 H :   -0.011108   -0.000067
  27 H :   -0.022391   -0.000320
  28 H :   -0.039622   -0.000298
  29 H :   -0.018014    0.000035

  Mayer bond orders larger than 0.100000
B(  0-O , 14-C ) :   1.2867 B(  1-O , 13-C ) :   0.1134 B(  1-O , 15-C ) :   1.2116
B(  2-O , 16-C ) :   1.5202 B(  3-O , 17-C ) :   1.6447 B(  4-N ,  8-C ) :   0.2410
B(  4-N , 10-C ) :   0.3770 B(  4-N , 16-C ) :   1.0866 B(  4-N , 18-H ) :  -0.1571
B(  4-N , 26-H ) :   0.9780 B(  5-N , 11-C ) :   0.4643 B(  5-N , 17-C ) :   1.0857
B(  5-N , 27-H ) :   1.0872 B(  6-N ,  8-C ) :  -0.1656 B(  6-N , 10-C ) :   0.1260
B(  6-N , 14-C ) :   1.0143 B(  6-N , 16-C ) :   0.8761 B(  6-N , 28-H ) :   1.1548
B(  7-N , 15-C ) :   1.0259 B(  7-N , 17-C ) :   0.9767 B(  7-N , 29-H ) :   1.0366
B(  8-C ,  9-C ) :   0.1663 B(  8-C , 10-C ) :   0.8012 B(  8-C , 11-C ) :   0.2107
B(  8-C , 12-C ) :   0.1875 B(  8-C , 13-C ) :   0.1388 B(  8-C , 14-C ) :   0.8031
B(  8-C , 20-H ) :  -0.1659 B(  8-C , 22-H ) :  -0.1234 B(  9-C , 11-C ) :   0.7109
B(  9-C , 13-C ) :   0.2452 B(  9-C , 15-C ) :   0.7591 B(  9-C , 19-H ) :  -0.1838
B(  9-C , 23-H ) :  -0.1121 B(  9-C , 25-H ) :  -0.1200 B( 10-C , 11-C ) :   0.4430
B( 10-C , 12-C ) :  -0.1226 B( 10-C , 18-H ) :   0.8174 B( 11-C , 13-C ) :  -0.3045
B( 11-C , 17-C ) :  -0.1588 B( 11-C , 19-H ) :   0.8759 B( 12-C , 20-H ) :   0.9734
B( 12-C , 21-H ) :   0.7765 B( 12-C , 22-H ) :   1.1220 B( 13-C , 15-C ) :  -0.1650
B( 13-C , 23-H ) :   1.0453 B( 13-C , 24-H ) :   0.7359 B( 13-C , 25-H ) :   0.9710

Dispersion correction           -0.057492523
FINAL SINGLE POINT ENERGY      -908.784417643584

DIPOLE MOMENT
-------------

Method             : TDA/CIS
Type of density    : Electron Density
Level              : Relaxed density
State              :   1
Multiplicity       :   3
Irrep              :   0
Energy             :     0.0000000000000000 Eh
Relativity type    :
Basis              : AO
                                X                 Y                 Z
Electronic contribution:     -9.523330744      -4.329335266      -1.880616978
Nuclear contribution   :     11.288147556       4.869081925       3.598623697
                        -----------------------------------------
Total Dipole Moment    :      1.764816812       0.539746660       1.718006719
                        -----------------------------------------
Magnitude (a.u.)       :      2.521398803
Magnitude (Debye)      :      6.408886436

Rotational constants in cm-1:             0.023490             0.010828             0.010214
Rotational constants in MHz :           704.220102           324.621489           306.219967

                             ****ORCA TERMINATED NORMALLY****
TOTAL RUN TIME: 0 days 0 hours 5 minutes 4 seconds 860 msec
