                         Program Version 6.0.0  -   RELEASE  -
|  1> ! Engrad def2-TZVPPD wB97M-D3BJ
|  2> %pal nprocs 8 end%pal nprocs 64 end
|  3> %tddft Nroots 2 Iroot 1
|  4> sf true
|  5> end
|  6> *xyz 0 3
|  7> O   2.55384044 1.19414253 -0.50230547
|  8> O   -0.6306569 0.84719183 -2.29015773
|  9> O   0.57619541 -2.76091865 -1.54160657
| 10> O   -2.45882899 -1.62031744 1.06335197
| 11> N   0.64285471 -2.11862562 0.6397916
| 12> N   -2.01325655 0.58150326 1.43652109
| 13> N   1.67348807 -0.84579789 -0.97866655
| 14> N   -1.61051969 -0.34009092 -0.62967898
| 15> C   1.50852016 0.02403883 1.25759874
| 16> C   -0.9043707 1.92775919 -0.19324862
| 17> C   0.86591829 -1.14377687 1.57528466
| 18> C   -1.43250157 1.76570724 1.0290125
| 19> C   1.76692126 1.09892983 2.25460162
| 20> C   -0.23036053 3.17418323 -0.65091969
| 21> C   1.96471804 0.20493817 -0.09931844
| 22> C   -1.01770024 0.81887511 -1.14387794
| 23> C   0.94201534 -1.97324955 -0.70110649
| 24> C   -2.06275382 -0.54559554 0.65191842
| 25> H   0.49635313 -1.34982123 2.55337037
| 26> H   -1.41590316 2.54317743 1.76444506
| 27> H   1.35737548 2.04802138 1.89627489
| 28> H   1.32734736 0.85362519 3.22317486
| 29> H   2.84904907 1.25201956 2.37085436
| 30> H   -0.70876936 3.55648034 -1.56448321
| 31> H   -0.2617779 3.93519647 0.1216515
| 32> H   0.81082468 2.97118429 -0.9074273
| 33> H   -0.00274399 -2.87275197 0.85644173
| 34> H   -2.34952962 0.46993683 2.37123496
| 35> H   1.85681309 -0.6815192 -1.9495774
| 36> H   -1.64447916 -1.14022671 -1.24816476
| 37> *
| 38>
| 39>                          ****END OF INPUT****

CARTESIAN COORDINATES (ANGSTROEM)
---------------------------------
  O      2.553840    1.194143   -0.502305
  O     -0.630657    0.847192   -2.290158
  O      0.576195   -2.760919   -1.541607
  O     -2.458829   -1.620317    1.063352
  N      0.642855   -2.118626    0.639792
  N     -2.013257    0.581503    1.436521
  N      1.673488   -0.845798   -0.978667
  N     -1.610520   -0.340091   -0.629679
  C      1.508520    0.024039    1.257599
  C     -0.904371    1.927759   -0.193249
  C      0.865918   -1.143777    1.575285
  C     -1.432502    1.765707    1.029013
  C      1.766921    1.098930    2.254602
  C     -0.230361    3.174183   -0.650920
  C      1.964718    0.204938   -0.099318
  C     -1.017700    0.818875   -1.143878
  C      0.942015   -1.973250   -0.701106
  C     -2.062754   -0.545596    0.651918
  H      0.496353   -1.349821    2.553370
  H     -1.415903    2.543177    1.764445
  H      1.357375    2.048021    1.896275
  H      1.327347    0.853625    3.223175
  H      2.849049    1.252020    2.370854
  H     -0.708769    3.556480   -1.564483
  H     -0.261778    3.935196    0.121651
  H      0.810825    2.971184   -0.907427
  H     -0.002744   -2.872752    0.856442
  H     -2.349530    0.469937    2.371235
  H      1.856813   -0.681519   -1.949577
  H     -1.644479   -1.140227   -1.248165

 Total Charge           Charge          ....    0
 Multiplicity           Mult            ....    3
 Number of Electrons    NEL             ....  132
 Basis Dimension        Dim             ....  882

ORBITAL ENERGIES
----------------
                 SPIN UP ORBITALS
  NO   OCC          E(Eh)            E(eV)
   0   1.0000     -19.330150      -526.0001
   1   1.0000     -19.327591      -525.9305
   2   1.0000     -19.323486      -525.8188
   3   1.0000     -19.320252      -525.7308
   4   1.0000     -14.589600      -397.0032
   5   1.0000     -14.584510      -396.8647
   6   1.0000     -14.571319      -396.5058
   7   1.0000     -14.548237      -395.8776
   8   1.0000     -10.515015      -286.1281
   9   1.0000     -10.507203      -285.9155
  10   1.0000     -10.479130      -285.1516
  11   1.0000     -10.457068      -284.5513
  12   1.0000     -10.432385      -283.8796
  13   1.0000     -10.409997      -283.2704
  14   1.0000     -10.395907      -282.8870
  15   1.0000     -10.381358      -282.4911
  16   1.0000     -10.373888      -282.2878
  17   1.0000     -10.350542      -281.6526
  18   1.0000      -1.227519       -33.4025
  19   1.0000      -1.223274       -33.2870
  20   1.0000      -1.193843       -32.4861
  21   1.0000      -1.187356       -32.3096
  22   1.0000      -1.122942       -30.5568
  23   1.0000      -1.122222       -30.5372
  24   1.0000      -1.070625       -29.1332
  25   1.0000      -1.059529       -28.8313
  26   1.0000      -0.972418       -26.4609
  27   1.0000      -0.956971       -26.0405
  28   1.0000      -0.856239       -23.2995
  29   1.0000      -0.846731       -23.0407
  30   1.0000      -0.813029       -22.1236
  31   1.0000      -0.810021       -22.0418
  32   1.0000      -0.795190       -21.6382
  33   1.0000      -0.785260       -21.3680
  34   1.0000      -0.695901       -18.9364
  35   1.0000      -0.694967       -18.9110
  36   1.0000      -0.692467       -18.8430
  37   1.0000      -0.691560       -18.8183
  38   1.0000      -0.645231       -17.5576
  39   1.0000      -0.640307       -17.4236
  40   1.0000      -0.630031       -17.1440
  41   1.0000      -0.600049       -16.3282
  42   1.0000      -0.598205       -16.2780
  43   1.0000      -0.592868       -16.1327
  44   1.0000      -0.573305       -15.6004
  45   1.0000      -0.567872       -15.4526
  46   1.0000      -0.567517       -15.4429
  47   1.0000      -0.554843       -15.0980
  48   1.0000      -0.550860       -14.9897
  49   1.0000      -0.549389       -14.9496
  50   1.0000      -0.530705       -14.4412
  51   1.0000      -0.521050       -14.1785
  52   1.0000      -0.516178       -14.0459
  53   1.0000      -0.515337       -14.0230
  54   1.0000      -0.511822       -13.9274
  55   1.0000      -0.498510       -13.5651
  56   1.0000      -0.491721       -13.3804
  57   1.0000      -0.476741       -12.9728
  58   1.0000      -0.420619       -11.4456
  59   1.0000      -0.418595       -11.3905
  60   1.0000      -0.405472       -11.0334
  61   1.0000      -0.402744       -10.9592
  62   1.0000      -0.388375       -10.5682
  63   1.0000      -0.386486       -10.5168
  64   1.0000      -0.382973       -10.4212
  65   1.0000      -0.347764        -9.4632
  66   1.0000      -0.213678        -5.8145
  67   0.0000       0.011398         0.3102
  68   0.0000       0.019061         0.5187
  69   0.0000       0.033340         0.9072
  70   0.0000       0.038694         1.0529
  71   0.0000       0.042088         1.1453

                 SPIN DOWN ORBITALS
  NO   OCC          E(Eh)            E(eV)
   0   1.0000     -19.328257      -525.9486
   1   1.0000     -19.327574      -525.9300
   2   1.0000     -19.323524      -525.8198
   3   1.0000     -19.313629      -525.5506
   4   1.0000     -14.584374      -396.8610
   5   1.0000     -14.584278      -396.8584
   6   1.0000     -14.571318      -396.5057
   7   1.0000     -14.547329      -395.8529
   8   1.0000     -10.515023      -286.1283
   9   1.0000     -10.507579      -285.9258
  10   1.0000     -10.479121      -285.1514
  11   1.0000     -10.456746      -284.5425
  12   1.0000     -10.432210      -283.8749
  13   1.0000     -10.400585      -283.0143
  14   1.0000     -10.385647      -282.6078
  15   1.0000     -10.381380      -282.4917
  16   1.0000     -10.374371      -282.3010
  17   1.0000     -10.350510      -281.6517
  18   1.0000      -1.226510       -33.3750
  19   1.0000      -1.219922       -33.1958
  20   1.0000      -1.193800       -32.4849
  21   1.0000      -1.177591       -32.0439
  22   1.0000      -1.122632       -30.5484
  23   1.0000      -1.111310       -30.2403
  24   1.0000      -1.070509       -29.1300
  25   1.0000      -1.053787       -28.6750
  26   1.0000      -0.957481       -26.0544
  27   1.0000      -0.948740       -25.8165
  28   1.0000      -0.846932       -23.0462
  29   1.0000      -0.844357       -22.9761
  30   1.0000      -0.810408       -22.0523
  31   1.0000      -0.800418       -21.7805
  32   1.0000      -0.795014       -21.6334
  33   1.0000      -0.778812       -21.1926
  34   1.0000      -0.694986       -18.9115
  35   1.0000      -0.692534       -18.8448
  36   1.0000      -0.684541       -18.6273
  37   1.0000      -0.682849       -18.5813
  38   1.0000      -0.643747       -17.5172
  39   1.0000      -0.631511       -17.1843
  40   1.0000      -0.623547       -16.9676
  41   1.0000      -0.598386       -16.2829
  42   1.0000      -0.589212       -16.0333
  43   1.0000      -0.584469       -15.9042
  44   1.0000      -0.567500       -15.4425
  45   1.0000      -0.561937       -15.2911
  46   1.0000      -0.557128       -15.1602
  47   1.0000      -0.550921       -14.9913
  48   1.0000      -0.545463       -14.8428
  49   1.0000      -0.542884       -14.7726
  50   1.0000      -0.522551       -14.2193
  51   1.0000      -0.516222       -14.0471
  52   1.0000      -0.513777       -13.9806
  53   1.0000      -0.507042       -13.7973
  54   1.0000      -0.500977       -13.6323
  55   1.0000      -0.495461       -13.4822
  56   1.0000      -0.476779       -12.9738
  57   1.0000      -0.444143       -12.0858
  58   1.0000      -0.419667       -11.4197
  59   1.0000      -0.414112       -11.2686
  60   1.0000      -0.404412       -11.0046
  61   1.0000      -0.387480       -10.5439
  62   1.0000      -0.379160       -10.3175
  63   1.0000      -0.377758       -10.2793
  64   1.0000      -0.346490        -9.4285
  65   0.0000      -0.103071        -2.8047
  66   0.0000       0.010656         0.2900
  67   0.0000       0.020178         0.5491
  68   0.0000       0.030856         0.8396
  69   0.0000       0.036663         0.9976

----------------------------------------------------------------------------------------------------
          SPIN FLIP ABSORPTION SPECTRUM VIA TRANSITION ELECTRIC DIPOLE MOMENTS
----------------------------------------------------------------------------------------------------
     Transition      Energy     Energy  Wavelength fosc(D2)      D2        DX        DY        DZ
                      (eV)      (cm-1)    (nm)                 (au**2)    (au)      (au)      (au)
----------------------------------------------------------------------------------------------------
  1-3A  ->  2-3A    4.009457   32338.5   309.2   0.001274358   0.01297   0.04833   0.07300  -0.07286

Dispersion correction             ... done (  0.1 sec)

MULLIKEN ATOMIC CHARGES AND SPIN DENSITIES
------------------------------------------
   0 O :   -0.698721    0.036288
   1 O :   -0.657278    0.000259
   2 O :   -0.636731    0.007948
   3 O :   -0.673764    0.000957
   4 N :   -0.038791    0.055520
   5 N :    0.009160   -0.002091
   6 N :    0.044598    0.001942
   7 N :    0.041674   -0.003805
   8 C :    1.218410    0.588702
   9 C :    0.646357   -0.031038
  10 C :   -0.195333   -0.449572
  11 C :   -0.033042    0.024504
  12 C :   -1.421499   -0.030955
  13 C :   -1.415256   -0.001416
  14 C :    0.093732   -0.286953
  15 C :    0.556293    0.025560
  16 C :    0.373818    0.017860
  17 C :    0.432676   -0.007392
  18 H :    0.194707    0.030846
  19 H :    0.152062   -0.002040
  20 H :    0.232401    0.013820
  21 H :    0.335988    0.011421
  22 H :    0.366292    0.002912
  23 H :    0.360400   -0.000108
  24 H :    0.330596    0.001297
  25 H :    0.212494   -0.004269
  26 H :    0.086180    0.001206
  27 H :    0.011440   -0.003112
  28 H :    0.033297    0.003450
  29 H :    0.037837   -0.001739
Sum of atomic charges       :   -0.0000000

LOEWDIN ATOMIC CHARGES AND SPIN DENSITIES
-----------------------------------------
   0 O :    0.072766    0.029567
   1 O :    0.103703   -0.000190
   2 O :    0.092211    0.006541
   3 O :    0.066900    0.000088
   4 N :    0.280960    0.023232
   5 N :    0.285438   -0.000510
   6 N :    0.346057   -0.000378
   7 N :    0.344355   -0.000149
   8 C :   -0.139414   -0.033416
   9 C :   -0.137710   -0.000636
  10 C :    0.072413   -0.030170
  11 C :    0.054638   -0.000211
  12 C :    0.166299   -0.003771
  13 C :    0.178658    0.000023
  14 C :   -0.411862    0.010174
  15 C :   -0.392256    0.000063
  16 C :   -0.487059    0.000660
  17 C :   -0.488428   -0.000531
  18 H :    0.028235   -0.002286
  19 H :    0.030348    0.000094
  20 H :   -0.010875   -0.000314
  21 H :   -0.003908    0.000248
  22 H :    0.009987   -0.000383
  23 H :    0.010215   -0.000030
  24 H :   -0.008393    0.000015
  25 H :   -0.012074    0.000095
  26 H :   -0.006576    0.002037
  27 H :   -0.025210   -0.000006
  28 H :   -0.011449    0.000147
  29 H :   -0.007969   -0.000004

  Mayer bond orders larger than 0.100000
B(  0-O , 14-C ) :   1.4325 B(  1-O , 15-C ) :   1.4413 B(  2-O , 16-C ) :   1.5742
B(  3-O , 17-C ) :   1.5304 B(  4-N , 10-C ) :   0.8950 B(  4-N , 16-C ) :   0.9795
B(  4-N , 26-H ) :   1.0948 B(  5-N , 11-C ) :   0.9492 B(  5-N , 17-C ) :   1.0418
B(  5-N , 27-H ) :   1.1380 B(  6-N , 14-C ) :   0.9642 B(  6-N , 16-C ) :   0.9286
B(  6-N , 28-H ) :   1.1064 B(  7-N , 15-C ) :   0.9899 B(  7-N , 16-C ) :   0.1013
B(  7-N , 17-C ) :   0.9400 B(  7-N , 29-H ) :   1.1169 B(  8-C , 10-C ) :   1.0104
B(  8-C , 12-C ) :   0.2988 B(  8-C , 14-C ) :   0.6246 B(  9-C , 11-C ) :   1.2163
B(  9-C , 13-C ) :   0.3442 B(  9-C , 15-C ) :   0.7810 B(  9-C , 24-H ) :  -0.1017
B(  9-C , 25-H ) :  -0.1066 B( 10-C , 14-C ) :   0.1427 B( 10-C , 18-H ) :   1.1192
B( 11-C , 13-C ) :  -0.1858 B( 11-C , 19-H ) :   1.1163 B( 12-C , 20-H ) :   1.0039
B( 12-C , 21-H ) :   0.9943 B( 12-C , 22-H ) :   0.9127 B( 13-C , 23-H ) :   0.8955
B( 13-C , 24-H ) :   1.0272 B( 13-C , 25-H ) :   1.0163

Dispersion correction           -0.059129120
FINAL SINGLE POINT ENERGY      -908.927059775028

DIPOLE MOMENT
-------------

Method             : TDA/CIS
Type of density    : Electron Density
Level              : Relaxed density
State              :   1
Multiplicity       :   3
Irrep              :   0
Energy             :     0.0000000000000000 Eh
Relativity type    :
Basis              : AO
                                X                 Y                 Z
Electronic contribution:     -2.738843465     -10.091554283      -5.786149732
Nuclear contribution   :      2.097930380      10.802334914       8.334235029
                        -----------------------------------------
Total Dipole Moment    :     -0.640913085       0.710780631       2.548085297
                        -----------------------------------------
Magnitude (a.u.)       :      2.721895915
Magnitude (Debye)      :      6.918509592

Rotational constants in cm-1:             0.017181             0.016099             0.013547
Rotational constants in MHz :           515.059333           482.634096           406.131605

                             ****ORCA TERMINATED NORMALLY****
TOTAL RUN TIME: 0 days 0 hours 5 minutes 17 seconds 383 msec
