                         Program Version 6.0.0  -   RELEASE  -
|  1> ! Engrad def2-TZVPPD wB97M-D3BJ
|  2> %pal nprocs 8 end%pal nprocs 64 end
|  3>  %tddft nroots 2 Iroot 2
|  4> sf true
|  5> end
|  6> *xyz 0 3
|  7> O   3.36509125479989 0.42931148827291 -0.68693297079974
|  8> O   -0.77504919036272 1.35480159692839 -2.44479273789774
|  9> O   0.42515173689165 -2.96791062655301 -0.63192373529759
| 10> O   -3.08932480918944 -1.68641267061558 -0.09727759089215
| 11> N   0.30600614939115 -1.44829739365204 1.05054195592138
| 12> N   -2.09887089547396 0.00345131401877 1.0654959184146
| 13> N   1.65798846987804 -1.0651229238672 -0.79899147735975
| 14> N   -1.5774421145774 -0.35606020972776 -1.17079497771765
| 15> C   1.79409235150294 0.45093341304401 1.06510569945893
| 16> C   -0.82430292400845 1.63819368374338 -0.09438526828099
| 17> C   0.40360479571868 -0.08478785400852 1.52093844415343
| 18> C   -0.90382825162281 0.79832446700598 1.18878041689743
| 19> C   2.52604764134814 1.40931276410874 1.90620306738666
| 20> C   -0.83129964003321 3.10733860221997 -0.05741152914741
| 21> C   2.35096631907797 -0.02468247050852 -0.18599893424669
| 22> C   -1.03101321022786 0.91553071863944 -1.34161278171047
| 23> C   0.7589753228495 -1.90436473471798 -0.16235145363537
| 24> C   -2.31486588076994 -0.76245326522308 -0.05909803004832
| 25> H   0.43091249017901 -0.14286057291908 2.61314246207318
| 26> H   -1.03656357750212 1.48229344002894 2.02456499727704
| 27> H   3.47876705873225 1.66381375129015 1.45370270461513
| 28> H   1.9476824710722 2.3275861347858 2.05765031985108
| 29> H   2.69204583417352 0.98924551259774 2.904148963216
| 30> H   -1.79446021672546 3.46949617654919 0.32453764128169
| 31> H   -0.06664666054133 3.49117337834485 0.62170886622938
| 32> H   -0.68155926477418 3.51306684411101 -1.05330145304032
| 33> H   -0.3596422891268 -2.06929924856003 1.47713050705084
| 34> H   -2.61123317912376 -0.30035676318627 1.87528828858017
| 35> H   2.05512662448029 -1.42352586776562 -1.65179540379489
| 36> H   -1.74375641603581 -0.89273868438463 -2.0076719085379
| 37> *
| 38>
| 39>                          ****END OF INPUT****

CARTESIAN COORDINATES (ANGSTROEM)
---------------------------------
  O      3.365091    0.429311   -0.686933
  O     -0.775049    1.354802   -2.444793
  O      0.425152   -2.967911   -0.631924
  O     -3.089325   -1.686413   -0.097278
  N      0.306006   -1.448297    1.050542
  N     -2.098871    0.003451    1.065496
  N      1.657988   -1.065123   -0.798991
  N     -1.577442   -0.356060   -1.170795
  C      1.794092    0.450933    1.065106
  C     -0.824303    1.638194   -0.094385
  C      0.403605   -0.084788    1.520938
  C     -0.903828    0.798324    1.188780
  C      2.526048    1.409313    1.906203
  C     -0.831300    3.107339   -0.057412
  C      2.350966   -0.024682   -0.185999
  C     -1.031013    0.915531   -1.341613
  C      0.758975   -1.904365   -0.162351
  C     -2.314866   -0.762453   -0.059098
  H      0.430912   -0.142861    2.613142
  H     -1.036564    1.482293    2.024565
  H      3.478767    1.663814    1.453703
  H      1.947682    2.327586    2.057650
  H      2.692046    0.989246    2.904149
  H     -1.794460    3.469496    0.324538
  H     -0.066647    3.491173    0.621709
  H     -0.681559    3.513067   -1.053301
  H     -0.359642   -2.069299    1.477131
  H     -2.611233   -0.300357    1.875288
  H      2.055127   -1.423526   -1.651795
  H     -1.743756   -0.892739   -2.007672

 Total Charge           Charge          ....    0
 Multiplicity           Mult            ....    3
 Number of Electrons    NEL             ....  132
 Basis Dimension        Dim             ....  882

ORBITAL ENERGIES
----------------
                 SPIN UP ORBITALS
  NO   OCC          E(Eh)            E(eV)
   0   1.0000     -19.333258      -526.0847
   1   1.0000     -19.332929      -526.0757
   2   1.0000     -19.321172      -525.7558
   3   1.0000     -19.314255      -525.5676
   4   1.0000     -14.563365      -396.2893
   5   1.0000     -14.558517      -396.1574
   6   1.0000     -14.558434      -396.1551
   7   1.0000     -14.555116      -396.0648
   8   1.0000     -10.504378      -285.8387
   9   1.0000     -10.499748      -285.7127
  10   1.0000     -10.479379      -285.1584
  11   1.0000     -10.478261      -285.1280
  12   1.0000     -10.447552      -284.2923
  13   1.0000     -10.446158      -284.2544
  14   1.0000     -10.422366      -283.6070
  15   1.0000     -10.414727      -283.3991
  16   1.0000     -10.374779      -282.3121
  17   1.0000     -10.373365      -282.2736
  18   1.0000      -1.220887       -33.2220
  19   1.0000      -1.214889       -33.0588
  20   1.0000      -1.196589       -32.5608
  21   1.0000      -1.194056       -32.4919
  22   1.0000      -1.117288       -30.4029
  23   1.0000      -1.095959       -29.8226
  24   1.0000      -1.064083       -28.9552
  25   1.0000      -1.053890       -28.6778
  26   1.0000      -0.971903       -26.4468
  27   1.0000      -0.953367       -25.9424
  28   1.0000      -0.886982       -24.1360
  29   1.0000      -0.838821       -22.8255
  30   1.0000      -0.827559       -22.5190
  31   1.0000      -0.802823       -21.8459
  32   1.0000      -0.782461       -21.2918
  33   1.0000      -0.777080       -21.1454
  34   1.0000      -0.697315       -18.9749
  35   1.0000      -0.692866       -18.8538
  36   1.0000      -0.682582       -18.5740
  37   1.0000      -0.661482       -17.9998
  38   1.0000      -0.654047       -17.7975
  39   1.0000      -0.644979       -17.5508
  40   1.0000      -0.617658       -16.8073
  41   1.0000      -0.602479       -16.3943
  42   1.0000      -0.591206       -16.0875
  43   1.0000      -0.584577       -15.9071
  44   1.0000      -0.576334       -15.6828
  45   1.0000      -0.571202       -15.5432
  46   1.0000      -0.564030       -15.3480
  47   1.0000      -0.558355       -15.1936
  48   1.0000      -0.557649       -15.1744
  49   1.0000      -0.553609       -15.0645
  50   1.0000      -0.545871       -14.8539
  51   1.0000      -0.543329       -14.7847
  52   1.0000      -0.533422       -14.5152
  53   1.0000      -0.522428       -14.2160
  54   1.0000      -0.515919       -14.0389
  55   1.0000      -0.506556       -13.7841
  56   1.0000      -0.488062       -13.2808
  57   1.0000      -0.420219       -11.4347
  58   1.0000      -0.418082       -11.3766
  59   1.0000      -0.411278       -11.1915
  60   1.0000      -0.403169       -10.9708
  61   1.0000      -0.398119       -10.8334
  62   1.0000      -0.391612       -10.6563
  63   1.0000      -0.388498       -10.5716
  64   1.0000      -0.380071       -10.3423
  65   1.0000      -0.342639        -9.3237
  66   1.0000      -0.331122        -9.0103
  67   0.0000       0.005374         0.1462
  68   0.0000       0.027619         0.7515
  69   0.0000       0.031873         0.8673
  70   0.0000       0.038823         1.0564
  71   0.0000       0.056322         1.5326

                 SPIN DOWN ORBITALS
  NO   OCC          E(Eh)            E(eV)
   0   1.0000     -19.328633      -525.9588
   1   1.0000     -19.328484      -525.9548
   2   1.0000     -19.320912      -525.7487
   3   1.0000     -19.314077      -525.5628
   4   1.0000     -14.562622      -396.2691
   5   1.0000     -14.558249      -396.1501
   6   1.0000     -14.558059      -396.1449
   7   1.0000     -14.554789      -396.0559
   8   1.0000     -10.504392      -285.8390
   9   1.0000     -10.499771      -285.7133
  10   1.0000     -10.480481      -285.1884
  11   1.0000     -10.479297      -285.1562
  12   1.0000     -10.447683      -284.2959
  13   1.0000     -10.445998      -284.2501
  14   1.0000     -10.410842      -283.2934
  15   1.0000     -10.402958      -283.0789
  16   1.0000     -10.375379      -282.3284
  17   1.0000     -10.373943      -282.2893
  18   1.0000      -1.219283       -33.1784
  19   1.0000      -1.212756       -33.0008
  20   1.0000      -1.191313       -32.4173
  21   1.0000      -1.188908       -32.3518
  22   1.0000      -1.114849       -30.3366
  23   1.0000      -1.093673       -29.7603
  24   1.0000      -1.062428       -28.9101
  25   1.0000      -1.052435       -28.6382
  26   1.0000      -0.957677       -26.0597
  27   1.0000      -0.936512       -25.4838
  28   1.0000      -0.882735       -24.0204
  29   1.0000      -0.833488       -22.6804
  30   1.0000      -0.818775       -22.2800
  31   1.0000      -0.797710       -21.7068
  32   1.0000      -0.781187       -21.2572
  33   1.0000      -0.775531       -21.1033
  34   1.0000      -0.691092       -18.8056
  35   1.0000      -0.686348       -18.6765
  36   1.0000      -0.677255       -18.4291
  37   1.0000      -0.654527       -17.8106
  38   1.0000      -0.644443       -17.5362
  39   1.0000      -0.641165       -17.4470
  40   1.0000      -0.614788       -16.7292
  41   1.0000      -0.598153       -16.2766
  42   1.0000      -0.583142       -15.8681
  43   1.0000      -0.576154       -15.6779
  44   1.0000      -0.568857       -15.4794
  45   1.0000      -0.563495       -15.3335
  46   1.0000      -0.558258       -15.1910
  47   1.0000      -0.554648       -15.0927
  48   1.0000      -0.549248       -14.9458
  49   1.0000      -0.543273       -14.7832
  50   1.0000      -0.539828       -14.6895
  51   1.0000      -0.536803       -14.6071
  52   1.0000      -0.527346       -14.3498
  53   1.0000      -0.512072       -13.9342
  54   1.0000      -0.505916       -13.7667
  55   1.0000      -0.501119       -13.6361
  56   1.0000      -0.482202       -13.1214
  57   1.0000      -0.416740       -11.3401
  58   1.0000      -0.413856       -11.2616
  59   1.0000      -0.404563       -11.0087
  60   1.0000      -0.390534       -10.6270
  61   1.0000      -0.386629       -10.5207
  62   1.0000      -0.385991       -10.5033
  63   1.0000      -0.383587       -10.4379
  64   1.0000      -0.373940       -10.1754
  65   0.0000      -0.061858        -1.6832
  66   0.0000      -0.043097        -1.1727
  67   0.0000       0.005014         0.1364
  68   0.0000       0.027486         0.7479
  69   0.0000       0.031624         0.8605

----------------------------------------------------------------------------------------------------
          SPIN FLIP ABSORPTION SPECTRUM VIA TRANSITION ELECTRIC DIPOLE MOMENTS
----------------------------------------------------------------------------------------------------
     Transition      Energy     Energy  Wavelength fosc(D2)      D2        DX        DY        DZ
                      (eV)      (cm-1)    (nm)                 (au**2)    (au)      (au)      (au)
----------------------------------------------------------------------------------------------------
  1-3A  ->  2-3A    0.048490     391.1  25568.9   0.000000606   0.00051  -0.01163   0.01519  -0.01200

Dispersion correction             ... done (  0.1 sec)

MULLIKEN ATOMIC CHARGES AND SPIN DENSITIES
------------------------------------------
   0 O :   -0.671691    0.067897
   1 O :   -0.676182   -0.060752
   2 O :   -0.658350    0.002262
   3 O :   -0.635912   -0.002523
   4 N :   -0.289778    0.012585
   5 N :   -0.325196   -0.002133
   6 N :    0.080296    0.001035
   7 N :    0.063104    0.001256
   8 C :    0.252901    0.438488
   9 C :    1.008808    0.474692
  10 C :    0.065447   -0.111185
  11 C :    0.332094   -0.372208
  12 C :   -1.265340    0.023640
  13 C :   -1.396056    0.033502
  14 C :    0.313840   -0.127984
  15 C :   -0.195300   -0.460140
  16 C :    0.408172    0.005622
  17 C :    0.361717    0.021961
  18 H :    0.656403    0.014724
  19 H :    0.464320   -0.011407
  20 H :    0.302568    0.001460
  21 H :    0.269746    0.011462
  22 H :    0.318565    0.016227
  23 H :    0.353702    0.003687
  24 H :    0.299787    0.028769
  25 H :    0.339991   -0.016656
  26 H :    0.064302    0.000811
  27 H :    0.088535    0.000888
  28 H :    0.036704    0.002223
  29 H :    0.032802    0.001794
Sum of atomic charges       :    0.0000000

LOEWDIN ATOMIC CHARGES AND SPIN DENSITIES
-----------------------------------------
   0 O :    0.091053    0.059647
   1 O :    0.091783   -0.058575
   2 O :    0.091877    0.002575
   3 O :    0.099442   -0.001838
   4 N :    0.265171    0.001813
   5 N :    0.269533   -0.006761
   6 N :    0.328890    0.001859
   7 N :    0.324147   -0.005748
   8 C :    0.000450    0.208490
   9 C :   -0.001333   -0.187122
  10 C :   -0.068534    0.006861
  11 C :   -0.091507   -0.011705
  12 C :    0.182809    0.032152
  13 C :    0.185527   -0.032881
  14 C :   -0.402225    0.028478
  15 C :   -0.417903   -0.036790
  16 C :   -0.498574   -0.000128
  17 C :   -0.490243   -0.000525
  18 H :    0.043052    0.000287
  19 H :    0.045315    0.000257
  20 H :   -0.004441   -0.000496
  21 H :    0.002443    0.009106
  22 H :    0.009888    0.008874
  23 H :    0.018535   -0.011015
  24 H :   -0.001686   -0.006001
  25 H :    0.000523    0.000058
  26 H :   -0.029378    0.000244
  27 H :   -0.028610   -0.000766
  28 H :   -0.009709    0.000134
  29 H :   -0.006295   -0.000485

  Mayer bond orders larger than 0.100000
B(  0-O , 14-C ) :   1.3519 B(  1-O , 15-C ) :   1.3993 B(  2-O , 16-C ) :   1.5288
B(  3-O , 17-C ) :   1.5493 B(  4-N ,  8-C ) :   0.2535 B(  4-N , 10-C ) :   0.2858
B(  4-N , 16-C ) :   1.0288 B(  4-N , 26-H ) :   1.1017 B(  5-N ,  9-C ) :   0.2790
B(  5-N , 17-C ) :   1.1441 B(  5-N , 27-H ) :   1.0361 B(  6-N ,  8-C ) :  -0.1246
B(  6-N , 10-C ) :   0.1220 B(  6-N , 14-C ) :   1.0990 B(  6-N , 16-C ) :   0.9509
B(  6-N , 28-H ) :   1.0850 B(  7-N , 11-C ) :   0.1222 B(  7-N , 15-C ) :   0.9379
B(  7-N , 17-C ) :   0.9910 B(  7-N , 29-H ) :   1.0824 B(  8-C , 10-C ) :   0.1353
B(  8-C , 12-C ) :   0.5093 B(  8-C , 14-C ) :   0.8551 B(  8-C , 16-C ) :   0.1008
B(  8-C , 18-H ) :  -0.1515 B(  8-C , 20-H ) :  -0.1170 B(  9-C , 10-C ) :   0.1210
B(  9-C , 11-C ) :   0.2549 B(  9-C , 13-C ) :   0.4591 B(  9-C , 15-C ) :   0.4115
B( 10-C , 11-C ) :   0.6391 B( 10-C , 14-C ) :  -0.1123 B( 10-C , 16-C ) :  -0.1367
B( 10-C , 18-H ) :   0.6514 B( 11-C , 13-C ) :  -0.1299 B( 11-C , 17-C ) :  -0.1924
B( 11-C , 19-H ) :   0.9125 B( 12-C , 20-H ) :   1.0310 B( 12-C , 21-H ) :   0.8967
B( 12-C , 22-H ) :   0.9200 B( 13-C , 23-H ) :   0.8833 B( 13-C , 24-H ) :   0.9303
B( 13-C , 25-H ) :   0.9675 B( 15-C , 17-C ) :  -0.1188

Dispersion correction           -0.057834928
FINAL SINGLE POINT ENERGY      -908.797988663085

DIPOLE MOMENT
-------------

Method             : TDA/CIS
Type of density    : Electron Density
Level              : Relaxed density
State              :   2
Multiplicity       :   3
Irrep              :   0
Energy             :     0.0000000000000000 Eh
Relativity type    :
Basis              : AO
                                X                 Y                 Z
Electronic contribution:     -2.349921751      -9.936203792      -7.267887634
Nuclear contribution   :      2.142888309      11.628350095      10.086662445
                        -----------------------------------------
Total Dipole Moment    :     -0.207033441       1.692146303       2.818774811
                        -----------------------------------------
Magnitude (a.u.)       :      3.294193891
Magnitude (Debye)      :      8.373175444

Rotational constants in cm-1:             0.019127             0.014555             0.012086
Rotational constants in MHz :           573.417761           436.346572           362.320639

                             ****ORCA TERMINATED NORMALLY****
TOTAL RUN TIME: 0 days 0 hours 4 minutes 31 seconds 20 msec
