                         Program Version 6.0.0  -   RELEASE  -
|  1> ! Engrad def2-TZVPPD wB97M-D3BJ
|  2> %pal nprocs 8 end%pal nprocs 64 end
|  3> %tddft Nroots 2 Iroot 1
|  4> sf true
|  5> end
|  6> *xyz 0 3
|  7> O   2.2528451 -0.19026282 -1.17699318
|  8> O   -0.19304368 2.73267989 -2.30417676
|  9> O   0.24785985 -3.76657847 0.69279989
| 10> O   -2.20515794 -1.10876919 -1.32785294
| 11> N   0.38326346 -1.87778955 1.95239935
| 12> N   -1.38745002 -0.15021193 0.55377759
| 13> N   1.07310999 -1.87892699 -0.27149883
| 14> N   -0.8382598 0.6656503 -1.61914101
| 15> C   1.24300129 0.22378655 0.93827038
| 16> C   -0.26211381 2.58136898 -0.10754594
| 17> C   0.57950446 -0.47103502 2.06724032
| 18> C   -0.33318093 0.44263396 1.29508616
| 19> C   2.21113593 1.34104956 1.23722226
| 20> C   -1.42229497 3.33667894 0.37337332
| 21> C   1.5800217 -0.59791987 -0.2665567
| 22> C   -0.42514726 1.97264879 -1.38782134
| 23> C   0.53730891 -2.59575307 0.79473154
| 24> C   -1.51981227 -0.25278204 -0.81434157
| 25> H   0.86176956 -0.17156109 3.06612726
| 26> H   -0.54136964 1.38256831 1.74265153
| 27> H   2.38576797 1.94229483 0.33929517
| 28> H   1.81077404 1.97954455 2.02172335
| 29> H   3.16744923 0.94821244 1.54681398
| 30> H   -2.36087032 2.75013025 0.29113998
| 31> H   -1.33048596 3.77988261 1.37349185
| 32> H   -1.53372238 4.17870846 -0.32858862
| 33> H   -0.03983518 -2.37849354 2.71261688
| 34> H   -1.89301736 -0.91536325 0.98433623
| 35> H   1.27005398 -2.43198102 -1.10050725
| 36> H   -0.91605213 0.43699394 -2.59707553
| 37> *
| 38>
| 39>                          ****END OF INPUT****

CARTESIAN COORDINATES (ANGSTROEM)
---------------------------------
  O      2.252845   -0.190263   -1.176993
  O     -0.193044    2.732680   -2.304177
  O      0.247860   -3.766578    0.692800
  O     -2.205158   -1.108769   -1.327853
  N      0.383263   -1.877790    1.952399
  N     -1.387450   -0.150212    0.553778
  N      1.073110   -1.878927   -0.271499
  N     -0.838260    0.665650   -1.619141
  C      1.243001    0.223787    0.938270
  C     -0.262114    2.581369   -0.107546
  C      0.579504   -0.471035    2.067240
  C     -0.333181    0.442634    1.295086
  C      2.211136    1.341050    1.237222
  C     -1.422295    3.336679    0.373373
  C      1.580022   -0.597920   -0.266557
  C     -0.425147    1.972649   -1.387821
  C      0.537309   -2.595753    0.794732
  C     -1.519812   -0.252782   -0.814342
  H      0.861770   -0.171561    3.066127
  H     -0.541370    1.382568    1.742652
  H      2.385768    1.942295    0.339295
  H      1.810774    1.979545    2.021723
  H      3.167449    0.948212    1.546814
  H     -2.360870    2.750130    0.291140
  H     -1.330486    3.779883    1.373492
  H     -1.533722    4.178708   -0.328589
  H     -0.039835   -2.378494    2.712617
  H     -1.893017   -0.915363    0.984336
  H      1.270054   -2.431981   -1.100507
  H     -0.916052    0.436994   -2.597076

 Total Charge           Charge          ....    0
 Multiplicity           Mult            ....    3
 Number of Electrons    NEL             ....  132
 Basis Dimension        Dim             ....  882

ORBITAL ENERGIES
----------------
                 SPIN UP ORBITALS
  NO   OCC          E(Eh)            E(eV)
   0   1.0000     -19.335651      -526.1498
   1   1.0000     -19.335441      -526.1441
   2   1.0000     -19.323072      -525.8075
   3   1.0000     -19.321477      -525.7641
   4   1.0000     -14.568458      -396.4279
   5   1.0000     -14.566759      -396.3817
   6   1.0000     -14.565312      -396.3423
   7   1.0000     -14.565265      -396.3410
   8   1.0000     -10.510260      -285.9987
   9   1.0000     -10.509707      -285.9837
  10   1.0000     -10.490009      -285.4477
  11   1.0000     -10.482686      -285.2484
  12   1.0000     -10.438677      -284.0509
  13   1.0000     -10.436731      -283.9979
  14   1.0000     -10.416771      -283.4548
  15   1.0000     -10.399521      -282.9853
  16   1.0000     -10.377896      -282.3969
  17   1.0000     -10.367533      -282.1149
  18   1.0000      -1.226323       -33.3700
  19   1.0000      -1.220270       -33.2052
  20   1.0000      -1.204100       -32.7652
  21   1.0000      -1.202818       -32.7304
  22   1.0000      -1.127626       -30.6843
  23   1.0000      -1.090514       -29.6744
  24   1.0000      -1.071694       -29.1623
  25   1.0000      -1.061879       -28.8952
  26   1.0000      -1.005512       -27.3614
  27   1.0000      -0.940203       -25.5842
  28   1.0000      -0.880873       -23.9698
  29   1.0000      -0.823565       -22.4104
  30   1.0000      -0.815431       -22.1890
  31   1.0000      -0.808389       -21.9974
  32   1.0000      -0.790223       -21.5031
  33   1.0000      -0.775965       -21.1151
  34   1.0000      -0.722654       -19.6644
  35   1.0000      -0.701514       -19.0892
  36   1.0000      -0.693645       -18.8750
  37   1.0000      -0.667420       -18.1614
  38   1.0000      -0.639721       -17.4077
  39   1.0000      -0.630793       -17.1647
  40   1.0000      -0.614014       -16.7082
  41   1.0000      -0.607323       -16.5261
  42   1.0000      -0.599288       -16.3075
  43   1.0000      -0.591506       -16.0957
  44   1.0000      -0.579890       -15.7796
  45   1.0000      -0.568512       -15.4700
  46   1.0000      -0.564885       -15.3713
  47   1.0000      -0.559782       -15.2324
  48   1.0000      -0.556432       -15.1413
  49   1.0000      -0.554512       -15.0890
  50   1.0000      -0.544780       -14.8242
  51   1.0000      -0.541710       -14.7407
  52   1.0000      -0.535100       -14.5608
  53   1.0000      -0.512511       -13.9461
  54   1.0000      -0.511277       -13.9125
  55   1.0000      -0.486941       -13.2503
  56   1.0000      -0.442936       -12.0529
  57   1.0000      -0.427757       -11.6399
  58   1.0000      -0.418989       -11.4013
  59   1.0000      -0.409602       -11.1458
  60   1.0000      -0.401917       -10.9367
  61   1.0000      -0.398822       -10.8525
  62   1.0000      -0.395062       -10.7502
  63   1.0000      -0.386263       -10.5108
  64   1.0000      -0.383996       -10.4490
  65   1.0000      -0.376443       -10.2435
  66   1.0000      -0.302984        -8.2446
  67   0.0000       0.009578         0.2606
  68   0.0000       0.029034         0.7900
  69   0.0000       0.032858         0.8941
  70   0.0000       0.036752         1.0001
  71   0.0000       0.044525         1.2116

                 SPIN DOWN ORBITALS
  NO   OCC          E(Eh)            E(eV)
   0   1.0000     -19.335394      -526.1428
   1   1.0000     -19.330521      -526.0102
   2   1.0000     -19.323062      -525.8073
   3   1.0000     -19.321468      -525.7639
   4   1.0000     -14.568418      -396.4268
   5   1.0000     -14.566629      -396.3781
   6   1.0000     -14.565273      -396.3412
   7   1.0000     -14.565168      -396.3384
   8   1.0000     -10.510285      -285.9994
   9   1.0000     -10.509710      -285.9837
  10   1.0000     -10.490037      -285.4484
  11   1.0000     -10.483197      -285.2623
  12   1.0000     -10.438286      -284.0402
  13   1.0000     -10.436364      -283.9879
  14   1.0000     -10.416282      -283.4414
  15   1.0000     -10.378257      -282.4067
  16   1.0000     -10.372142      -282.2403
  17   1.0000     -10.367364      -282.1103
  18   1.0000      -1.225951       -33.3598
  19   1.0000      -1.218323       -33.1523
  20   1.0000      -1.202969       -32.7344
  21   1.0000      -1.197112       -32.5751
  22   1.0000      -1.127158       -30.6715
  23   1.0000      -1.089842       -29.6561
  24   1.0000      -1.070829       -29.1387
  25   1.0000      -1.060981       -28.8708
  26   1.0000      -1.004521       -27.3344
  27   1.0000      -0.910865       -24.7859
  28   1.0000      -0.880125       -23.9494
  29   1.0000      -0.822347       -22.3772
  30   1.0000      -0.811585       -22.0844
  31   1.0000      -0.802188       -21.8286
  32   1.0000      -0.787349       -21.4249
  33   1.0000      -0.770731       -20.9727
  34   1.0000      -0.718011       -19.5381
  35   1.0000      -0.698690       -19.0123
  36   1.0000      -0.686671       -18.6853
  37   1.0000      -0.665267       -18.1028
  38   1.0000      -0.634590       -17.2681
  39   1.0000      -0.624902       -17.0044
  40   1.0000      -0.610908       -16.6237
  41   1.0000      -0.605126       -16.4663
  42   1.0000      -0.588257       -16.0073
  43   1.0000      -0.583112       -15.8673
  44   1.0000      -0.575116       -15.6497
  45   1.0000      -0.563921       -15.3451
  46   1.0000      -0.558252       -15.1908
  47   1.0000      -0.553954       -15.0739
  48   1.0000      -0.552170       -15.0253
  49   1.0000      -0.548070       -14.9138
  50   1.0000      -0.537875       -14.6363
  51   1.0000      -0.535085       -14.5604
  52   1.0000      -0.527754       -14.3609
  53   1.0000      -0.511750       -13.9254
  54   1.0000      -0.500245       -13.6124
  55   1.0000      -0.485411       -13.2087
  56   1.0000      -0.433021       -11.7831
  57   1.0000      -0.422691       -11.5020
  58   1.0000      -0.418274       -11.3818
  59   1.0000      -0.405701       -11.0397
  60   1.0000      -0.395988       -10.7754
  61   1.0000      -0.393222       -10.7001
  62   1.0000      -0.384167       -10.4537
  63   1.0000      -0.382923       -10.4199
  64   1.0000      -0.375883       -10.2283
  65   0.0000      -0.054690        -1.4882
  66   0.0000       0.008774         0.2388
  67   0.0000       0.020474         0.5571
  68   0.0000       0.032037         0.8718
  69   0.0000       0.034661         0.9432

----------------------------------------------------------------------------------------------------
          SPIN FLIP ABSORPTION SPECTRUM VIA TRANSITION ELECTRIC DIPOLE MOMENTS
----------------------------------------------------------------------------------------------------
     Transition      Energy     Energy  Wavelength fosc(D2)      D2        DX        DY        DZ
                      (eV)      (cm-1)    (nm)                 (au**2)    (au)      (au)      (au)
----------------------------------------------------------------------------------------------------
  1-3A  ->  2-3A    1.879974   15163.0   659.5   0.000249591   0.00542  -0.03995  -0.04320   0.04423

Dispersion correction             ... done (  0.1 sec)

MULLIKEN ATOMIC CHARGES AND SPIN DENSITIES
------------------------------------------
   0 O :   -0.646406   -0.000482
   1 O :   -0.627002   -0.024696
   2 O :   -0.647464   -0.000032
   3 O :   -0.659470    0.000087
   4 N :   -0.167005   -0.000324
   5 N :   -0.106716   -0.001633
   6 N :    0.002578   -0.000261
   7 N :    0.059221   -0.008516
   8 C :    1.923219   -0.035798
   9 C :    0.090504    0.148358
  10 C :   -0.139710    0.001791
  11 C :   -1.045392   -0.170170
  12 C :   -1.602405    0.046858
  13 C :   -0.982335    0.187877
  14 C :   -0.017930    0.010838
  15 C :    0.593390   -0.180002
  16 C :    0.451651    0.000462
  17 C :    0.536521    0.010340
  18 H :    0.260775   -0.000680
  19 H :    0.515814    0.080476
  20 H :    0.304989   -0.027678
  21 H :    0.321181   -0.012551
  22 H :    0.438189   -0.011467
  23 H :    0.312059   -0.007915
  24 H :    0.283022    0.006079
  25 H :    0.346164   -0.014790
  26 H :    0.031837   -0.000435
  27 H :    0.109333   -0.000524
  28 H :    0.046954   -0.000043
  29 H :    0.014432    0.004832
Sum of atomic charges       :   -0.0000000

LOEWDIN ATOMIC CHARGES AND SPIN DENSITIES
-----------------------------------------
   0 O :    0.122390   -0.000163
   1 O :    0.107062   -0.028978
   2 O :    0.093237    0.000029
   3 O :    0.092830   -0.000560
   4 N :    0.289582   -0.000023
   5 N :    0.278604    0.000226
   6 N :    0.338121   -0.000116
   7 N :    0.338241    0.000490
   8 C :   -0.174539   -0.000848
   9 C :    0.153762    0.051927
  10 C :   -0.070643    0.000160
  11 C :   -0.044219   -0.001037
  12 C :    0.184610   -0.007593
  13 C :    0.103199    0.001235
  14 C :   -0.382894   -0.000177
  15 C :   -0.517010   -0.008650
  16 C :   -0.472462    0.000004
  17 C :   -0.473433   -0.000325
  18 H :    0.058929    0.000028
  19 H :   -0.003364   -0.000341
  20 H :   -0.003757   -0.003169
  21 H :    0.001447   -0.001029
  22 H :   -0.001078   -0.001290
  23 H :    0.015168    0.000608
  24 H :   -0.005338   -0.000095
  25 H :    0.024296   -0.000341
  26 H :   -0.026411   -0.000005
  27 H :   -0.021374   -0.000032
  28 H :    0.006170   -0.000007
  29 H :   -0.011125    0.000072

  Mayer bond orders larger than 0.100000
B(  0-O ,  8-C ) :  -0.1602 B(  0-O , 14-C ) :   1.6140 B(  1-O ,  9-C ) :   0.2756
B(  1-O , 15-C ) :   1.2064 B(  2-O , 16-C ) :   1.5733 B(  3-O , 17-C ) :   1.4810
B(  4-N ,  8-C ) :   0.1015 B(  4-N , 10-C ) :   0.6307 B(  4-N , 16-C ) :   1.0915
B(  4-N , 26-H ) :   1.1284 B(  5-N , 11-C ) :   0.6989 B(  5-N , 17-C ) :   0.9634
B(  5-N , 19-H ) :  -0.1368 B(  5-N , 27-H ) :   1.0286 B(  6-N , 10-C ) :   0.1065
B(  6-N , 14-C ) :   1.0750 B(  6-N , 16-C ) :   0.9421 B(  6-N , 28-H ) :   1.1004
B(  7-N , 15-C ) :   0.8968 B(  7-N , 17-C ) :   0.9635 B(  7-N , 29-H ) :   1.1258
B(  8-C , 10-C ) :   0.5734 B(  8-C , 14-C ) :   0.1865 B(  8-C , 18-H ) :  -0.1020
B(  8-C , 21-H ) :  -0.1221 B(  9-C , 12-C ) :  -0.2616 B(  9-C , 13-C ) :   0.4695
B(  9-C , 15-C ) :   0.7743 B(  9-C , 20-H ) :  -0.1051 B( 10-C , 11-C ) :   0.7689
B( 10-C , 12-C ) :  -0.1283 B( 10-C , 16-C ) :  -0.1126 B( 10-C , 18-H ) :   1.1237
B( 11-C , 15-C ) :   0.1070 B( 11-C , 19-H ) :   0.9397 B( 12-C , 14-C ) :   0.1032
B( 12-C , 20-H ) :   1.0343 B( 12-C , 21-H ) :   1.0605 B( 12-C , 22-H ) :   0.7535
B( 13-C , 23-H ) :   0.9629 B( 13-C , 24-H ) :   1.0399 B( 13-C , 25-H ) :   0.8809
B( 15-C , 17-C ) :  -0.1008

Dispersion correction           -0.058324721
FINAL SINGLE POINT ENERGY      -908.735969615915

DIPOLE MOMENT
-------------

Method             : TDA/CIS
Type of density    : Electron Density
Level              : Relaxed density
State              :   1
Multiplicity       :   3
Irrep              :   0
Energy             :     0.0000000000000000 Eh
Relativity type    :
Basis              : AO
                                X                 Y                 Z
Electronic contribution:     -0.446393587      -9.744831713      -6.666543066
Nuclear contribution   :      0.012455102      10.706010036       9.260689131
                        -----------------------------------------
Total Dipole Moment    :     -0.433938485       0.961178323       2.594146065
                        -----------------------------------------
Magnitude (a.u.)       :      2.800314301
Magnitude (Debye)      :      7.117833290

Rotational constants in cm-1:             0.022790             0.012870             0.011653
Rotational constants in MHz :           683.239217           385.824805           349.353013

                             ****ORCA TERMINATED NORMALLY****
TOTAL RUN TIME: 0 days 0 hours 4 minutes 47 seconds 805 msec
