                         Program Version 6.0.0  -   RELEASE  -
|  1> ! Engrad wB97M-D3BJ def2-TZVPPD
|  2> %pal nprocs 8 end%pal nprocs 16 end
|  3> %tddft nroots 2 Iroot 1
|  4>  sf true
|  5> end
|  6> *xyz 0 3
|  7> O   0.54657423140817 0.9759993270396 -0.00032474942743
|  8> C   0.75062312310346 -0.34886689674387 -6.333415228e-05
|  9> C   -0.65565627489422 -0.57824861792421 0.00011918726932
| 10> H   1.27025807154735 -0.73269949532368 0.88721298998258
| 11> H   1.26997808681927 -0.73315722888002 -0.88730774214583
| 12> H   -1.20826795711741 -0.54444288335649 -0.92616415752619
| 13> H   -1.20803863839255 -0.54418589446483 0.92652780599984
| 14> *
| 15>
| 16>                          ****END OF INPUT****

CARTESIAN COORDINATES (ANGSTROEM)
---------------------------------
  O      0.546574    0.975999   -0.000325
  C      0.750623   -0.348867   -0.000063
  C     -0.655656   -0.578249    0.000119
  H      1.270258   -0.732699    0.887213
  H      1.269978   -0.733157   -0.887308
  H     -1.208268   -0.544443   -0.926164
  H     -1.208039   -0.544186    0.926528

 Total Charge           Charge          ....    0
 Multiplicity           Mult            ....    3
 Number of Electrons    NEL             ....   24
 Basis Dimension        Dim             ....  182

ORBITAL ENERGIES
----------------
                 SPIN UP ORBITALS
  NO   OCC          E(Eh)            E(eV)
   0   1.0000     -19.406948      -528.0899
   1   1.0000     -10.406921      -283.1867
   2   1.0000     -10.340086      -281.3680
   3   1.0000      -1.211873       -32.9767
   4   1.0000      -0.867422       -23.6038
   5   1.0000      -0.740170       -20.1410
   6   1.0000      -0.644007       -17.5243
   7   1.0000      -0.606396       -16.5009
   8   1.0000      -0.551322       -15.0022
   9   1.0000      -0.507266       -13.8034
  10   1.0000      -0.451127       -12.2758
  11   1.0000      -0.436722       -11.8838
  12   1.0000      -0.275811        -7.5052
  13   0.0000       0.040977         1.1150
  14   0.0000       0.063695         1.7332
  15   0.0000       0.072937         1.9847
  16   0.0000       0.086027         2.3409
  17   0.0000       0.116903         3.1811

                 SPIN DOWN ORBITALS
  NO   OCC          E(Eh)            E(eV)
   0   1.0000     -19.378837      -527.3250
   1   1.0000     -10.408109      -283.2191
   2   1.0000     -10.327446      -281.0241
   3   1.0000      -1.152041       -31.3486
   4   1.0000      -0.833242       -22.6737
   5   1.0000      -0.718565       -19.5532
   6   1.0000      -0.601521       -16.3682
   7   1.0000      -0.570180       -15.5154
   8   1.0000      -0.527955       -14.3664
   9   1.0000      -0.473810       -12.8930
  10   1.0000      -0.389593       -10.6014
  11   0.0000      -0.074345        -2.0230
  12   0.0000       0.030154         0.8205
  13   0.0000       0.039516         1.0753
  14   0.0000       0.064216         1.7474
  15   0.0000       0.071742         1.9522

----------------------------------------------------------------------------------------------------
          SPIN FLIP ABSORPTION SPECTRUM VIA TRANSITION ELECTRIC DIPOLE MOMENTS
----------------------------------------------------------------------------------------------------
     Transition      Energy     Energy  Wavelength fosc(D2)      D2        DX        DY        DZ
                      (eV)      (cm-1)    (nm)                 (au**2)    (au)      (au)      (au)
----------------------------------------------------------------------------------------------------
  1-3A  ->  2-3A    2.319383   18707.1   534.6   0.000704167   0.01239  -0.00003  -0.00002   0.11132

Dispersion correction             ... done (  0.0 sec)

MULLIKEN ATOMIC CHARGES AND SPIN DENSITIES
------------------------------------------
   0 O :   -0.522534   -0.155226
   1 C :   -0.140347   -0.055656
   2 C :   -0.294153    0.091274
   3 H :    0.234955    0.035211
   4 H :    0.234981    0.035223
   5 H :    0.243561    0.024585
   6 H :    0.243538    0.024589
Sum of atomic charges       :   -0.0000000

LOEWDIN ATOMIC CHARGES AND SPIN DENSITIES
-----------------------------------------
   0 O :   -0.058720   -0.177305
   1 C :   -0.355869   -0.000296
   2 C :    0.358670    0.139216
   3 H :    0.029678    0.006010
   4 H :    0.029674    0.006015
   5 H :   -0.001715    0.013180
   6 H :   -0.001719    0.013178

  Mayer bond orders larger than 0.100000
B(  0-O ,  1-C ) :   0.7347 B(  0-O ,  2-C ) :   0.8796 B(  1-C ,  2-C ) :   0.7849
B(  1-C ,  3-H ) :   1.0257 B(  1-C ,  4-H ) :   1.0258 B(  2-C ,  5-H ) :   0.9385
B(  2-C ,  6-H ) :   0.9385

Dispersion correction           -0.005657576
FINAL SINGLE POINT ENERGY      -153.806452371051

DIPOLE MOMENT
-------------

Method             : TDA/CIS
Type of density    : Electron Density
Level              : Relaxed density
State              :   1
Multiplicity       :   3
Irrep              :   0
Energy             :     0.0000000000000000 Eh
Relativity type    :
Basis              : AO
                                X                 Y                 Z
Electronic contribution:      0.116456151       1.212228595      -0.000270894
Nuclear contribution   :     -0.731740551      -2.545000744       0.000611259
                        -----------------------------------------
Total Dipole Moment    :     -0.615284400      -1.332772149       0.000340366
                        -----------------------------------------
Magnitude (a.u.)       :      1.467942986
Magnitude (Debye)      :      3.731214546

Rotational constants in cm-1:             1.067527             0.498903             0.392525
Rotational constants in MHz :         32003.647488         14956.727585         11767.595319

                             ****ORCA TERMINATED NORMALLY****
TOTAL RUN TIME: 0 days 0 hours 0 minutes 16 seconds 343 msec
