                         Program Version 6.0.0  -   RELEASE  -
|  1> ! Engrad def2-TZVPPD wB97M-D3BJ
|  2> %pal nprocs 8 end%pal nprocs 32 end
|  3> %tddft Nroots 2 Iroot 1
|  4> sf true
|  5> end
|  6> *xyz 0 3
|  7> O   0.52029823 1.20787082 -0.04338143
|  8> C   0.56667786 -0.269105 0.03551353
|  9> C   -0.82313414 -0.90362445 0.01348193
| 10> H   1.12553697 -0.56280839 0.92935532
| 11> H   1.11041041 -0.61780956 -0.84152222
| 12> H   -1.37542415 -0.87858582 -0.89309549
| 13> H   -1.36889114 -1.1830457 0.87623403
| 14> *
| 15>
| 16>                          ****END OF INPUT****

CARTESIAN COORDINATES (ANGSTROEM)
---------------------------------
  O      0.520298    1.207871   -0.043381
  C      0.566678   -0.269105    0.035514
  C     -0.823134   -0.903624    0.013482
  H      1.125537   -0.562808    0.929355
  H      1.110410   -0.617810   -0.841522
  H     -1.375424   -0.878586   -0.893095
  H     -1.368891   -1.183046    0.876234

 Total Charge           Charge          ....    0
 Multiplicity           Mult            ....    3
 Number of Electrons    NEL             ....   24
 Basis Dimension        Dim             ....  182

ORBITAL ENERGIES
----------------
                 SPIN UP ORBITALS
  NO   OCC          E(Eh)            E(eV)
   0   1.0000     -19.396317      -527.8006
   1   1.0000     -10.418361      -283.4980
   2   1.0000     -10.369506      -282.1686
   3   1.0000      -1.135605       -30.9014
   4   1.0000      -0.875859       -23.8333
   5   1.0000      -0.742588       -20.2068
   6   1.0000      -0.610256       -16.6059
   7   1.0000      -0.561555       -15.2807
   8   1.0000      -0.542105       -14.7514
   9   1.0000      -0.521657       -14.1950
  10   1.0000      -0.451197       -12.2777
  11   1.0000      -0.420364       -11.4387
  12   1.0000      -0.333977        -9.0880
  13   0.0000       0.041354         1.1253
  14   0.0000       0.061632         1.6771
  15   0.0000       0.078341         2.1318
  16   0.0000       0.088506         2.4084
  17   0.0000       0.115945         3.1550

                 SPIN DOWN ORBITALS
  NO   OCC          E(Eh)            E(eV)
   0   1.0000     -19.370177      -527.0893
   1   1.0000     -10.419851      -283.5386
   2   1.0000     -10.356553      -281.8161
   3   1.0000      -1.072517       -29.1847
   4   1.0000      -0.844317       -22.9750
   5   1.0000      -0.718841       -19.5607
   6   1.0000      -0.586049       -15.9472
   7   1.0000      -0.534471       -14.5437
   8   1.0000      -0.512029       -13.9330
   9   1.0000      -0.491737       -13.3809
  10   1.0000      -0.387496       -10.5443
  11   0.0000      -0.051886        -1.4119
  12   0.0000      -0.008611        -0.2343
  13   0.0000       0.040171         1.0931
  14   0.0000       0.061916         1.6848
  15   0.0000       0.078824         2.1449

----------------------------------------------------------------------------------------------------
          SPIN FLIP ABSORPTION SPECTRUM VIA TRANSITION ELECTRIC DIPOLE MOMENTS
----------------------------------------------------------------------------------------------------
     Transition      Energy     Energy  Wavelength fosc(D2)      D2        DX        DY        DZ
                      (eV)      (cm-1)    (nm)                 (au**2)    (au)      (au)      (au)
----------------------------------------------------------------------------------------------------
  1-3A  ->  2-3A    0.093399     753.3  13274.6   0.000038365   0.01677  -0.07866  -0.08943   0.05082

Dispersion correction             ... done (  0.1 sec)

MULLIKEN ATOMIC CHARGES AND SPIN DENSITIES
------------------------------------------
   0 O :   -0.351087   -0.585984
   1 C :   -0.082024   -0.013423
   2 C :   -0.504639    0.519361
   3 H :    0.212102   -0.035835
   4 H :    0.211028    0.065663
   5 H :    0.261837    0.031965
   6 H :    0.252783    0.018252
Sum of atomic charges       :    0.0000000

LOEWDIN ATOMIC CHARGES AND SPIN DENSITIES
-----------------------------------------
   0 O :   -0.047786   -0.584127
   1 C :   -0.187872    0.030813
   2 C :    0.349041    0.446629
   3 H :   -0.003346   -0.031329
   4 H :    0.007990    0.028139
   5 H :   -0.057158    0.054308
   6 H :   -0.060870    0.055568

  Mayer bond orders larger than 0.100000
B(  0-O ,  1-C ) :   0.8658 B(  0-O ,  2-C ) :   0.3459 B(  1-C ,  2-C ) :   0.7767
B(  1-C ,  3-H ) :   1.0208 B(  1-C ,  4-H ) :   0.9821 B(  2-C ,  5-H ) :   0.9456
B(  2-C ,  6-H ) :   0.9271

Dispersion correction           -0.005421630
FINAL SINGLE POINT ENERGY      -153.748817610894

DIPOLE MOMENT
-------------

Method             : TDA/CIS
Type of density    : Electron Density
Level              : Relaxed density
State              :   1
Multiplicity       :   3
Irrep              :   0
Energy             :     0.0000000000000000 Eh
Relativity type    :
Basis              : AO
                                X                 Y                 Z
Electronic contribution:      0.571309670       2.017999615      -0.075398394
Nuclear contribution   :     -0.873892392      -3.192492144       0.068853127
                        -----------------------------------------
Total Dipole Moment    :     -0.302582722      -1.174492529      -0.006545266
                        -----------------------------------------
Magnitude (a.u.)       :      1.212861016
Magnitude (Debye)      :      3.082847706

Rotational constants in cm-1:             1.318510             0.321148             0.285447
Rotational constants in MHz :         39527.924281          9627.775211          8557.481843

                             ****ORCA TERMINATED NORMALLY****
TOTAL RUN TIME: 0 days 0 hours 0 minutes 17 seconds 946 msec
