                         Program Version 6.0.0  -   RELEASE  -
|  1> ! opt def2-TZVPPD wB97M-D3BJ
|  2> %pal nprocs 8 end%pal nprocs 32 end
|  3> %geom Constraints
|  4> {B 9 8 3.2 C}
|  5> {A 8 9 11 88.85714285714286 C}
|  6> end
|  7> MaxIter 300
|  8> end
|  9> *xyz 0 1
| 10> O   2.98579685529314 0.88758230159078 -0.86184571092411
| 11> O   -0.03983205397054 0.68929041702508 -2.10362336723772
| 12> O   0.93431434349854 -3.13274393337945 -0.68767288184107
| 13> O   -3.75829998830163 -0.84727300865116 -0.0472717177755
| 14> N   0.21184538946282 -1.54604804365365 0.7617588924445
| 15> N   -2.13631993928911 0.03188773433438 1.27350571071531
| 16> N   2.02598672506387 -1.14318467211666 -0.64531219127023
| 17> N   -1.91814233924584 0.03137116037665 -1.04498946748291
| 18> C   1.18097737274226 0.71693507080484 0.70173889017321
| 19> C   -0.20686880480777 1.27024627933494 0.21345042231937
| 20> C   0.41441080275909 -0.34173258966541 1.52336266615173
| 21> C   -0.82922175114212 0.58960593673968 1.44434972027296
| 22> C   1.92822011286806 1.69488653817281 1.5963734975385
| 23> C   -0.37809776891576 2.77134929626422 0.04819649358288
| 24> C   2.1403947470937 0.1972384729179 -0.35038567829864
| 25> C   -0.67361678962426 0.6214190571346 -1.0793014500539
| 26> C   1.04142578622994 -2.02697492875068 -0.21027082435993
| 27> C   -2.68467002550422 -0.30396816036989 0.07167054343891
| 28> H   0.80817443950001 -0.54572267081061 2.51895215321335
| 29> H   -0.83785272399001 1.27240685039143 2.28901317073582
| 30> H   2.31167340578204 2.52284411740894 1.00913016264629
| 31> H   1.28982602448342 2.08257620823614 2.38710022492991
| 32> H   2.77390820759972 1.19140411795486 2.06045858523949
| 33> H   -1.41857211141493 3.00964947214868 -0.16882755561625
| 34> H   -0.09065531563179 3.29799318042223 0.95389844358819
| 35> H   0.23426221611057 3.12492645074476 -0.77764887675592
| 36> H   -0.46772570547622 -2.21560145172536 1.0787081584806
| 37> H   -2.71769301149571 -0.17090724573546 2.06627440900372
| 38> H   2.60065167263658 -1.49057255715425 -1.3966820077142
| 39> H   -2.27169977231386 -0.32388339999036 -1.91951041514436
| 40> *
| 41>
| 42>                          ****END OF INPUT****
 Total Charge           Charge          ....    0
 Multiplicity           Mult            ....    1
 Number of Electrons    NEL             ....  132
Dispersion correction           -0.052575672
FINAL SINGLE POINT ENERGY      -908.578357972727
Dispersion correction             ... done (  0.0 sec)
Dispersion correction           -0.053145947
FINAL SINGLE POINT ENERGY      -908.636840596653
Dispersion correction             ... done (  0.0 sec)
Dispersion correction           -0.053717639
FINAL SINGLE POINT ENERGY      -908.689325119502
Dispersion correction             ... done (  0.0 sec)
FINAL SINGLE POINT ENERGY      -908.756225526103
FINAL SINGLE POINT ENERGY      -908.816169228186
FINAL SINGLE POINT ENERGY      -908.853929996097
FINAL SINGLE POINT ENERGY      -908.876215668422
FINAL SINGLE POINT ENERGY      -908.899839727779
FINAL SINGLE POINT ENERGY      -908.913699658978
FINAL SINGLE POINT ENERGY      -908.919458366418
FINAL SINGLE POINT ENERGY      -908.932660483674
FINAL SINGLE POINT ENERGY      -908.932897727905
FINAL SINGLE POINT ENERGY      -908.933121753279
FINAL SINGLE POINT ENERGY      -908.933265878855
FINAL SINGLE POINT ENERGY      -908.933373329108
FINAL SINGLE POINT ENERGY      -908.933428105267
FINAL SINGLE POINT ENERGY      -908.933452316189
Dispersion correction             ... done (  0.0 sec)
Dispersion correction           -0.059648783
FINAL SINGLE POINT ENERGY      -908.933460232800
Dispersion correction             ... done (  0.0 sec)
Dispersion correction           -0.059645339
FINAL SINGLE POINT ENERGY      -908.933462999955
Dispersion correction             ... done (  0.0 sec)
                    ***********************HURRAY********************

CARTESIAN COORDINATES (ANGSTROEM)
---------------------------------
  O      2.677038    1.129325   -0.627996
  O     -0.500875    0.840723   -2.164195
  O      0.679443   -2.853811   -1.509462
  O     -2.563584   -1.669278    1.008939
  N      0.638551   -2.064774    0.625991
  N     -2.166830    0.532235    1.436538
  N      1.775144   -0.913910   -1.015116
  N     -1.612366   -0.366233   -0.605279
  C      1.487254    0.102896    1.146907
  C     -0.890792    1.871347   -0.060354
  C      0.836040   -1.015512    1.492214
  C     -1.553279    1.717549    1.089962
  C      1.748639    1.233682    2.088109
  C     -0.173681    3.121481   -0.456596
  C      2.040641    0.187826   -0.205129
  C     -0.960577    0.789286   -1.045668
  C      1.006961   -2.013658   -0.701727
  C     -2.149446   -0.589744    0.640001
  H      0.420466   -1.156517    2.478630
  H     -1.599654    2.495283    1.836909
  H      1.396614    2.173358    1.669084
  H      1.252636    1.063304    3.041373
  H      2.816565    1.347798    2.265620
  H     -0.600789    3.535311   -1.367838
  H     -0.233590    3.867472    0.332897
  H      0.873089    2.905464   -0.663552
  H     -0.012058   -2.795012    0.861382
  H     -2.589974    0.412386    2.338759
  H      2.022775   -0.819731   -1.988016
  H     -1.611762   -1.153546   -1.237788

 Multiplicity           Mult            ....    1
 Number of Electrons    NEL             ....  132
 Basis Dimension        Dim             ....  882

ORBITAL ENERGIES
----------------

  NO   OCC          E(Eh)            E(eV)
   0   2.0000     -19.330381      -526.0064
   1   2.0000     -19.324206      -525.8384
   2   2.0000     -19.319022      -525.6973
   3   2.0000     -19.318901      -525.6940
   4   2.0000     -14.587058      -396.9340
   5   2.0000     -14.574428      -396.5904
   6   2.0000     -14.571926      -396.5223
   7   2.0000     -14.562388      -396.2627
   8   2.0000     -10.516607      -286.1714
   9   2.0000     -10.505334      -285.8647
  10   2.0000     -10.479806      -285.1700
  11   2.0000     -10.474223      -285.0181
  12   2.0000     -10.432076      -283.8712
  13   2.0000     -10.428159      -283.7646
  14   2.0000     -10.380897      -282.4786
  15   2.0000     -10.378139      -282.4035
  16   2.0000     -10.359298      -281.8908
  17   2.0000     -10.351071      -281.6670
  18   2.0000      -1.229402       -33.4537
  19   2.0000      -1.218706       -33.1627
  20   2.0000      -1.195488       -32.5309
  21   2.0000      -1.188134       -32.3308
  22   2.0000      -1.124966       -30.6119
  23   2.0000      -1.115880       -30.3647
  24   2.0000      -1.072040       -29.1717
  25   2.0000      -1.062972       -28.9249
  26   2.0000      -0.959460       -26.1082
  27   2.0000      -0.952847       -25.9283
  28   2.0000      -0.847845       -23.0710
  29   2.0000      -0.846460       -23.0334
  30   2.0000      -0.811676       -22.0868
  31   2.0000      -0.806603       -21.9488
  32   2.0000      -0.795967       -21.6594
  33   2.0000      -0.786926       -21.4133
  34   2.0000      -0.696830       -18.9617
  35   2.0000      -0.693753       -18.8780
  36   2.0000      -0.690164       -18.7803
  37   2.0000      -0.686459       -18.6795
  38   2.0000      -0.644493       -17.5375
  39   2.0000      -0.637849       -17.3568
  40   2.0000      -0.633213       -17.2306
  41   2.0000      -0.598970       -16.2988
  42   2.0000      -0.597561       -16.2605
  43   2.0000      -0.590865       -16.0783
  44   2.0000      -0.569680       -15.5018
  45   2.0000      -0.564642       -15.3647
  46   2.0000      -0.559348       -15.2206
  47   2.0000      -0.551875       -15.0173
  48   2.0000      -0.548119       -14.9151
  49   2.0000      -0.541071       -14.7233
  50   2.0000      -0.520514       -14.1639
  51   2.0000      -0.518126       -14.0989
  52   2.0000      -0.514787       -14.0081
  53   2.0000      -0.512167       -13.9368
  54   2.0000      -0.503279       -13.6949
  55   2.0000      -0.498400       -13.5621
  56   2.0000      -0.480756       -13.0820
  57   2.0000      -0.471598       -12.8328
  58   2.0000      -0.422117       -11.4864
  59   2.0000      -0.411795       -11.2055
  60   2.0000      -0.405819       -11.0429
  61   2.0000      -0.395003       -10.7486
  62   2.0000      -0.387998       -10.5580
  63   2.0000      -0.382535       -10.4093
  64   2.0000      -0.351808        -9.5732
  65   2.0000      -0.339339        -9.2339
  66   0.0000       0.010378         0.2824
  67   0.0000       0.015256         0.4151
  68   0.0000       0.025198         0.6857
  69   0.0000       0.034689         0.9439
  70   0.0000       0.040432         1.1002

MULLIKEN ATOMIC CHARGES
-----------------------
   0 O :   -0.672755
   1 O :   -0.659121
   2 O :   -0.647075
   3 O :   -0.667752
   4 N :   -0.064266
   5 N :   -0.013718
   6 N :    0.031101
   7 N :    0.022792
   8 C :    0.861870
   9 C :    0.496969
  10 C :    0.052420
  11 C :    0.144717
  12 C :   -1.446796
  13 C :   -1.467891
  14 C :    0.306910
  15 C :    0.581694
  16 C :    0.400705
  17 C :    0.458806
  18 H :    0.162368
  19 H :    0.153534
  20 H :    0.198840
  21 H :    0.332010
  22 H :    0.372626
  23 H :    0.370190
  24 H :    0.329802
  25 H :    0.228421
  26 H :    0.065773
  27 H :    0.017959
  28 H :    0.028801
  29 H :    0.021064
Sum of atomic charges:    0.0000000

LOEWDIN ATOMIC CHARGES
----------------------
   0 O :    0.092284
   1 O :    0.104341
   2 O :    0.086169
   3 O :    0.073594
   4 N :    0.277878
   5 N :    0.282986
   6 N :    0.343895
   7 N :    0.344535
   8 C :   -0.139030
   9 C :   -0.143758
  10 C :    0.045316
  11 C :    0.052316
  12 C :    0.180407
  13 C :    0.179926
  14 C :   -0.400313
  15 C :   -0.392931
  16 C :   -0.484849
  17 C :   -0.491065
  18 H :    0.040273
  19 H :    0.038461
  20 H :   -0.019513
  21 H :   -0.004493
  22 H :    0.003856
  23 H :    0.002846
  24 H :   -0.004628
  25 H :   -0.015707
  26 H :   -0.021851
  27 H :   -0.020860
  28 H :   -0.002286
  29 H :   -0.007798

  Mayer bond orders larger than 0.100000
B(  0-O , 14-C ) :   1.4536 B(  1-O , 15-C ) :   1.4171 B(  2-O , 16-C ) :   1.5724
B(  3-O , 17-C ) :   1.5392 B(  4-N , 10-C ) :   0.8586 B(  4-N , 16-C ) :   0.9958
B(  4-N , 26-H ) :   1.1134 B(  5-N , 11-C ) :   0.9619 B(  5-N , 17-C ) :   1.0365
B(  5-N , 27-H ) :   1.1369 B(  6-N , 14-C ) :   1.0319 B(  6-N , 16-C ) :   0.9181
B(  6-N , 28-H ) :   1.1016 B(  7-N , 15-C ) :   0.9800 B(  7-N , 17-C ) :   0.9327
B(  7-N , 29-H ) :   1.1242 B(  8-C , 10-C ) :   1.0980 B(  8-C , 12-C ) :   0.3541
B(  8-C , 14-C ) :   0.6964 B(  8-C , 18-H ) :  -0.1001 B(  9-C , 11-C ) :   1.1797
B(  9-C , 13-C ) :   0.3360 B(  9-C , 15-C ) :   0.8072 B(  9-C , 24-H ) :  -0.1074
B(  9-C , 25-H ) :  -0.1106 B( 10-C , 12-C ) :  -0.1348 B( 10-C , 18-H ) :   1.1349
B( 11-C , 13-C ) :  -0.2117 B( 11-C , 19-H ) :   1.0882 B( 12-C , 20-H ) :   1.0326
B( 12-C , 21-H ) :   1.0092 B( 12-C , 22-H ) :   0.8954 B( 13-C , 23-H ) :   0.8841
B( 13-C , 24-H ) :   1.0505 B( 13-C , 25-H ) :   1.0023

Dispersion correction           -0.059645881
FINAL SINGLE POINT ENERGY      -908.933463878336

DIPOLE MOMENT
-------------

Method             : SCF
Type of density    : Electron Density
Multiplicity       :   1
Irrep              :   0
Energy             :  -908.8738179975774756 Eh
Relativity type    :
Basis              : AO
                                X                 Y                 Z
Electronic contribution:     -2.536152248     -10.246651132      -5.948073164
Nuclear contribution   :      1.800761365      11.238802268       8.432786242
                        -----------------------------------------
Total Dipole Moment    :     -0.735390883       0.992151136       2.484713078
                        -----------------------------------------
Magnitude (a.u.)       :      2.774700471
Magnitude (Debye)      :      7.052728108

Rotational constants in cm-1:             0.017534             0.016358             0.012931
Rotational constants in MHz :           525.655790           490.405591           387.671170

                             ****ORCA TERMINATED NORMALLY****
TOTAL RUN TIME: 0 days 1 hours 37 minutes 46 seconds 492 msec
