                         Program Version 6.0.0  -   RELEASE  -
|  1> ! Engrad def2-TZVPPD wB97M-D3BJ
|  2> %pal nprocs 8 end%pal nprocs 64 end
|  3> %tddft
|  4>  Iroot 2 Nroots 3
|  5> sf true
|  6> end
|  7> *xyz 0 3
|  8> O   1.1390449 -0.81189502 0.28289609
|  9> C   0.46120978 0.36819003 0.51290303
| 10> C   -0.45466205 0.69389573 -0.61623025
| 11> H   1.0520778 1.25137005 0.75337127
| 12> H   -0.16284819 0.06676998 1.39319494
| 13> H   -0.38051291 1.749963 -1.17910045
| 14> H   -1.19336775 0.03553238 -1.03375977
| 15> *
| 16>
| 17>                          ****END OF INPUT****

CARTESIAN COORDINATES (ANGSTROEM)
---------------------------------
  O      1.139045   -0.811895    0.282896
  C      0.461210    0.368190    0.512903
  C     -0.454662    0.693896   -0.616230
  H      1.052078    1.251370    0.753371
  H     -0.162848    0.066770    1.393195
  H     -0.380513    1.749963   -1.179100
  H     -1.193368    0.035532   -1.033760

 Total Charge           Charge          ....    0
 Multiplicity           Mult            ....    3
 Number of Electrons    NEL             ....   24
 Basis Dimension        Dim             ....  182

ORBITAL ENERGIES
----------------
                 SPIN UP ORBITALS
  NO   OCC          E(Eh)            E(eV)
   0   1.0000     -19.390640      -527.6461
   1   1.0000     -10.417977      -283.4876
   2   1.0000     -10.379886      -282.4511
   3   1.0000      -1.167577       -31.7714
   4   1.0000      -0.873375       -23.7657
   5   1.0000      -0.730487       -19.8776
   6   1.0000      -0.619838       -16.8666
   7   1.0000      -0.580974       -15.8091
   8   1.0000      -0.554348       -15.0846
   9   1.0000      -0.504924       -13.7397
  10   1.0000      -0.437578       -11.9071
  11   1.0000      -0.416985       -11.3467
  12   1.0000      -0.327382        -8.9085
  13   0.0000       0.041144         1.1196
  14   0.0000       0.060287         1.6405
  15   0.0000       0.076285         2.0758
  16   0.0000       0.088395         2.4054
  17   0.0000       0.112754         3.0682

                 SPIN DOWN ORBITALS
  NO   OCC          E(Eh)            E(eV)
   0   1.0000     -19.366136      -526.9794
   1   1.0000     -10.419314      -283.5239
   2   1.0000     -10.366123      -282.0765
   3   1.0000      -1.112459       -30.2716
   4   1.0000      -0.839956       -22.8564
   5   1.0000      -0.702889       -19.1266
   6   1.0000      -0.589976       -16.0541
   7   1.0000      -0.542438       -14.7605
   8   1.0000      -0.529362       -14.4047
   9   1.0000      -0.478611       -13.0237
  10   1.0000      -0.386354       -10.5132
  11   0.0000      -0.052333        -1.4241
  12   0.0000      -0.003851        -0.1048
  13   0.0000       0.041110         1.1186
  14   0.0000       0.061014         1.6603
  15   0.0000       0.076600         2.0844

----------------------------------------------------------------------------------------------------
          SPIN FLIP ABSORPTION SPECTRUM VIA TRANSITION ELECTRIC DIPOLE MOMENTS
----------------------------------------------------------------------------------------------------
     Transition      Energy     Energy  Wavelength fosc(D2)      D2        DX        DY        DZ
                      (eV)      (cm-1)    (nm)                 (au**2)    (au)      (au)      (au)
----------------------------------------------------------------------------------------------------
  1-3A  ->  2-3A    0.112117     904.3  11058.5   0.000211404   0.07696  -0.11897   0.21198  -0.13369
  1-3A  ->  3-3A    0.977472    7883.8  1268.4   0.009838661   0.41084   0.46433  -0.42923   0.10486

Dispersion correction             ... done (  0.2 sec)

MULLIKEN ATOMIC CHARGES AND SPIN DENSITIES
------------------------------------------
   0 O :   -0.348578    0.573412
   1 C :   -0.068259    0.043402
   2 C :   -0.246876   -0.549551
   3 H :    0.228334   -0.004957
   4 H :    0.151931    0.030506
   5 H :    0.127107   -0.027971
   6 H :    0.156341   -0.064839
Sum of atomic charges       :    0.0000000

LOEWDIN ATOMIC CHARGES AND SPIN DENSITIES
-----------------------------------------
   0 O :    0.030864    0.532355
   1 C :   -0.266756    0.003921
   2 C :    0.250902   -0.471334
   3 H :    0.018142    0.005331
   4 H :    0.050505    0.036076
   5 H :    0.004401   -0.045146
   6 H :   -0.088057   -0.061203

  Mayer bond orders larger than 0.100000
B(  0-O ,  1-C ) :   0.9079 B(  1-C ,  2-C ) :   0.8716 B(  1-C ,  3-H ) :   0.9625
B(  1-C ,  4-H ) :   0.9316 B(  2-C ,  5-H ) :   1.0169 B(  2-C ,  6-H ) :   1.0013

Dispersion correction           -0.005455631
FINAL SINGLE POINT ENERGY      -153.743022609008

DIPOLE MOMENT
-------------

Method             : TDA/CIS
Type of density    : Electron Density
Level              : Relaxed density
State              :   2
Multiplicity       :   3
Irrep              :   0
Energy             :     0.0000000000000000 Eh
Relativity type    :
Basis              : AO
                                X                 Y                 Z
Electronic contribution:      1.748971717      -2.014813031       0.512655473
Nuclear contribution   :     -2.131697178       2.652107234      -0.333235299
                        -----------------------------------------
Total Dipole Moment    :     -0.382725462       0.637294203       0.179420174
                        -----------------------------------------
Magnitude (a.u.)       :      0.764731508
Magnitude (Debye)      :      1.943793018

Rotational constants in cm-1:             1.382178             0.349466             0.306812
Rotational constants in MHz :         41436.666926         10476.719030          9197.995026

                             ****ORCA TERMINATED NORMALLY****
TOTAL RUN TIME: 0 days 0 hours 0 minutes 26 seconds 428 msec
