                         Program Version 6.0.0  -   RELEASE  -
|  1> ! Engrad def2-TZVPPD wB97M-D3BJ
|  2> %pal nprocs 8 end%pal nprocs 64 end
|  3> %tddft
|  4>  Iroot 1 Nroots 3
|  5> sf true
|  6> end
|  7> *xyz 0 3
|  8> O   1.36022236 0.53143326 0.57985427
|  9> C   0.05455675 0.44569096 0.14502652
| 10> C   -0.16747601 -0.82704125 -0.56851851
| 11> H   -0.42236549 1.30579711 -0.47582689
| 12> H   -0.74420096 0.4178102 1.01176024
| 13> H   -1.10112214 -1.09400772 -0.96314032
| 14> H   0.61741082 -1.61161491 -0.54316086
| 15> *
| 16>
| 17>                          ****END OF INPUT****

CARTESIAN COORDINATES (ANGSTROEM)
---------------------------------
  O      1.360222    0.531433    0.579854
  C      0.054557    0.445691    0.145027
  C     -0.167476   -0.827041   -0.568519
  H     -0.422365    1.305797   -0.475827
  H     -0.744201    0.417810    1.011760
  H     -1.101122   -1.094008   -0.963140
  H      0.617411   -1.611615   -0.543161

 Total Charge           Charge          ....    0
 Multiplicity           Mult            ....    3
 Number of Electrons    NEL             ....   24
 Basis Dimension        Dim             ....  182

ORBITAL ENERGIES
----------------
                 SPIN UP ORBITALS
  NO   OCC          E(Eh)            E(eV)
   0   1.0000     -19.400044      -527.9020
   1   1.0000     -10.428616      -283.7771
   2   1.0000     -10.367332      -282.1094
   3   1.0000      -1.170226       -31.8435
   4   1.0000      -0.880867       -23.9696
   5   1.0000      -0.728243       -19.8165
   6   1.0000      -0.608029       -16.5453
   7   1.0000      -0.585815       -15.9408
   8   1.0000      -0.557810       -15.1788
   9   1.0000      -0.510492       -13.8912
  10   1.0000      -0.455026       -12.3819
  11   1.0000      -0.417925       -11.3723
  12   1.0000      -0.311504        -8.4765
  13   0.0000       0.039775         1.0823
  14   0.0000       0.059670         1.6237
  15   0.0000       0.078544         2.1373
  16   0.0000       0.082837         2.2541
  17   0.0000       0.108331         2.9478

                 SPIN DOWN ORBITALS
  NO   OCC          E(Eh)            E(eV)
   0   1.0000     -19.377202      -527.2805
   1   1.0000     -10.430304      -283.8230
   2   1.0000     -10.353188      -281.7246
   3   1.0000      -1.117225       -30.4012
   4   1.0000      -0.848026       -23.0760
   5   1.0000      -0.701464       -19.0878
   6   1.0000      -0.580250       -15.7894
   7   1.0000      -0.543936       -14.8012
   8   1.0000      -0.526609       -14.3298
   9   1.0000      -0.494455       -13.4548
  10   1.0000      -0.388361       -10.5678
  11   0.0000      -0.065305        -1.7770
  12   0.0000       0.008292         0.2256
  13   0.0000       0.039640         1.0787
  14   0.0000       0.059438         1.6174
  15   0.0000       0.079715         2.1692

----------------------------------------------------------------------------------------------------
          SPIN FLIP ABSORPTION SPECTRUM VIA TRANSITION ELECTRIC DIPOLE MOMENTS
----------------------------------------------------------------------------------------------------
     Transition      Energy     Energy  Wavelength fosc(D2)      D2        DX        DY        DZ
                      (eV)      (cm-1)    (nm)                 (au**2)    (au)      (au)      (au)
----------------------------------------------------------------------------------------------------
  1-3A  ->  2-3A    0.376389    3035.8  3294.0   0.000260247   0.02822   0.05770  -0.02419   0.15591
  1-3A  ->  3-3A    0.662672    5344.8  1871.0   0.034863342   2.14740   0.97634   0.85801   0.67675

Dispersion correction             ... done (  0.1 sec)

MULLIKEN ATOMIC CHARGES AND SPIN DENSITIES
------------------------------------------
   0 O :   -0.606513   -0.027760
   1 C :   -0.066123   -0.098219
   2 C :   -0.289465    0.179971
   3 H :    0.242111   -0.090950
   4 H :    0.249161   -0.013969
   5 H :    0.258917    0.007354
   6 H :    0.211912    0.043572
Sum of atomic charges       :   -0.0000000

LOEWDIN ATOMIC CHARGES AND SPIN DENSITIES
-----------------------------------------
   0 O :   -0.181849   -0.073850
   1 C :   -0.315703   -0.052495
   2 C :    0.371051    0.176511
   3 H :    0.084700   -0.056110
   4 H :    0.097362   -0.025460
   5 H :   -0.063826    0.016262
   6 H :    0.008266    0.015142

  Mayer bond orders larger than 0.100000
B(  0-O ,  1-C ) :   1.2021 B(  0-O ,  2-C ) :   0.3343 B(  1-C ,  2-C ) :   1.1030
B(  1-C ,  3-H ) :   0.8839 B(  1-C ,  4-H ) :   0.8791 B(  2-C ,  5-H ) :   0.9574
B(  2-C ,  6-H ) :   0.9462

Dispersion correction           -0.005525130
FINAL SINGLE POINT ENERGY      -153.754615240229

DIPOLE MOMENT
-------------

Method             : TDA/CIS
Type of density    : Electron Density
Level              : Relaxed density
State              :   1
Multiplicity       :   3
Irrep              :   0
Energy             :     0.0000000000000000 Eh
Relativity type    :
Basis              : AO
                                X                 Y                 Z
Electronic contribution:      1.491207124       0.489600507       0.410509129
Nuclear contribution   :     -3.131023847      -1.164205413      -1.176530639
                        -----------------------------------------
Total Dipole Moment    :     -1.639816723      -0.674604906      -0.766021511
                        -----------------------------------------
Magnitude (a.u.)       :      1.931548503
Magnitude (Debye)      :      4.909606121

Rotational constants in cm-1:             1.347667             0.367775             0.305525
Rotational constants in MHz :         40402.037636         11025.620126          9159.409705

                             ****ORCA TERMINATED NORMALLY****
TOTAL RUN TIME: 0 days 0 hours 0 minutes 28 seconds 381 msec
