                         Program Version 6.0.0  -   RELEASE  -
|  1> ! Engrad def2-TZVPPD wB97M-D3BJ
|  2> %pal nprocs 8 end%pal nprocs 64 end
|  3> %tddft
|  4>  Iroot 1 Nroots 3
|  5> sf true
|  6> end
|  7> *xyz 0 3
|  8> O   0.59225401 0.80451172 0.97532298
|  9> C   -0.05961361 0.01301098 0.09302905
| 10> C   0.78158464 -0.6608462 -0.90714204
| 11> H   -0.86340189 0.50768407 -0.56890171
| 12> H   -0.7902425 -0.82962699 0.7213832
| 13> H   0.42905923 -0.71330609 -1.93343971
| 14> H   1.75637857 -1.09012784 -0.77221142
| 15> *
| 16>
| 17>                          ****END OF INPUT****

CARTESIAN COORDINATES (ANGSTROEM)
---------------------------------
  O      0.592254    0.804512    0.975323
  C     -0.059614    0.013011    0.093029
  C      0.781585   -0.660846   -0.907142
  H     -0.863402    0.507684   -0.568902
  H     -0.790242   -0.829627    0.721383
  H      0.429059   -0.713306   -1.933440
  H      1.756379   -1.090128   -0.772211

 Total Charge           Charge          ....    0
 Multiplicity           Mult            ....    3
 Number of Electrons    NEL             ....   24
 Basis Dimension        Dim             ....  182

ORBITAL ENERGIES
----------------
                 SPIN UP ORBITALS
  NO   OCC          E(Eh)            E(eV)
   0   1.0000     -19.393915      -527.7353
   1   1.0000     -10.435317      -283.9594
   2   1.0000     -10.367076      -282.1025
   3   1.0000      -1.174939       -31.9717
   4   1.0000      -0.878874       -23.9154
   5   1.0000      -0.722519       -19.6607
   6   1.0000      -0.603322       -16.4172
   7   1.0000      -0.591098       -16.0846
   8   1.0000      -0.561561       -15.2809
   9   1.0000      -0.510184       -13.8828
  10   1.0000      -0.437416       -11.9027
  11   1.0000      -0.412981       -11.2378
  12   1.0000      -0.321881        -8.7588
  13   0.0000       0.039695         1.0802
  14   0.0000       0.059636         1.6228
  15   0.0000       0.077639         2.1127
  16   0.0000       0.083680         2.2771
  17   0.0000       0.111129         3.0240

                 SPIN DOWN ORBITALS
  NO   OCC          E(Eh)            E(eV)
   0   1.0000     -19.371191      -527.1169
   1   1.0000     -10.437536      -284.0198
   2   1.0000     -10.354032      -281.7475
   3   1.0000      -1.124014       -30.5860
   4   1.0000      -0.846957       -23.0469
   5   1.0000      -0.696755       -18.9597
   6   1.0000      -0.580562       -15.7979
   7   1.0000      -0.543829       -14.7983
   8   1.0000      -0.530402       -14.4330
   9   1.0000      -0.484769       -13.1912
  10   1.0000      -0.384907       -10.4739
  11   0.0000      -0.065189        -1.7739
  12   0.0000      -0.003868        -0.1052
  13   0.0000       0.039574         1.0769
  14   0.0000       0.059634         1.6227
  15   0.0000       0.077019         2.0958

----------------------------------------------------------------------------------------------------
          SPIN FLIP ABSORPTION SPECTRUM VIA TRANSITION ELECTRIC DIPOLE MOMENTS
----------------------------------------------------------------------------------------------------
     Transition      Energy     Energy  Wavelength fosc(D2)      D2        DX        DY        DZ
                      (eV)      (cm-1)    (nm)                 (au**2)    (au)      (au)      (au)
----------------------------------------------------------------------------------------------------
  1-3A  ->  2-3A    0.303560    2448.4  4084.3   0.000319764   0.04300  -0.12002   0.02178   0.16768
  1-3A  ->  3-3A    0.805400    6496.0  1539.4   0.029025042   1.47097   0.07758   0.84509   0.86647

Dispersion correction             ... done (  0.2 sec)

MULLIKEN ATOMIC CHARGES AND SPIN DENSITIES
------------------------------------------
   0 O :   -0.510091   -0.412242
   1 C :   -0.026239   -0.049129
   2 C :   -0.384222    0.375177
   3 H :    0.206251   -0.071766
   4 H :    0.243939    0.084318
   5 H :    0.211499    0.030836
   6 H :    0.258864    0.042805
Sum of atomic charges       :    0.0000000

LOEWDIN ATOMIC CHARGES AND SPIN DENSITIES
-----------------------------------------
   0 O :   -0.099936   -0.418202
   1 C :   -0.359166    0.000416
   2 C :    0.332038    0.352349
   3 H :    0.060930   -0.056146
   4 H :    0.135526    0.039377
   5 H :   -0.034001    0.040425
   6 H :   -0.035392    0.041781

  Mayer bond orders larger than 0.100000
B(  0-O ,  1-C ) :   1.0980 B(  0-O ,  2-C ) :   0.3324 B(  1-C ,  2-C ) :   0.9641
B(  1-C ,  3-H ) :   0.9232 B(  1-C ,  4-H ) :   0.8724 B(  2-C ,  5-H ) :   0.9757
B(  2-C ,  6-H ) :   0.9229

Dispersion correction           -0.005470045
FINAL SINGLE POINT ENERGY      -153.747218053446

DIPOLE MOMENT
-------------

Method             : TDA/CIS
Type of density    : Electron Density
Level              : Relaxed density
State              :   1
Multiplicity       :   3
Irrep              :   0
Energy             :     0.0000000000000000 Eh
Relativity type    :
Basis              : AO
                                X                 Y                 Z
Electronic contribution:      0.723360153       1.291089857       1.402165500
Nuclear contribution   :     -1.090139775      -2.234186288      -2.659040804
                        -----------------------------------------
Total Dipole Moment    :     -0.366779622      -0.943096431      -1.256875303
                        -----------------------------------------
Magnitude (a.u.)       :      1.613596510
Magnitude (Debye)      :      4.101436382

Rotational constants in cm-1:             1.431374             0.346996             0.302963
Rotational constants in MHz :         42911.512636         10402.663632          9082.601793

                             ****ORCA TERMINATED NORMALLY****
TOTAL RUN TIME: 0 days 0 hours 0 minutes 27 seconds 223 msec
