                         Program Version 6.0.0  -   RELEASE  -
|  1> ! Engrad def2-TZVPPD wB97M-D3BJ
|  2> %pal nprocs 8 end%pal nprocs 32 end
|  3>  %tddft nroots 2 Iroot 2
|  4> sf true
|  5> end
|  6> *xyz 0 3
|  7> O   2.65775291406525 1.13933496085265 -0.62578683022124
|  8> O   -0.51508482932241 0.84377829692805 -2.17523158680537
|  9> O   0.59583147797629 -2.80654177470124 -1.51273078908723
| 10> O   -2.50553395262209 -1.67749692004862 1.03598566314077
| 11> N   0.67558033378916 -2.08422028415174 0.64461368716725
| 12> N   -2.20476798176385 0.54764386875827 1.41602193759097
| 13> N   1.74702959503928 -0.89966059247678 -1.01743593063667
| 14> N   -1.59227192090095 -0.37296060268602 -0.59940270411873
| 15> C   1.58112116733464 0.05467704132719 1.18575852815122
| 16> C   -0.96638662090269 1.90420261355929 -0.09855419404176
| 17> C   0.92494815943567 -1.06118588875932 1.5291139955344
| 18> C   -1.62614689654451 1.74613120941116 1.05305593901094
| 19> C   1.86074966727926 1.18019322560262 2.12793453885394
| 20> C   -0.26881907651574 3.16229808505729 -0.50385533199291
| 21> C   2.05526962662387 0.18040212660477 -0.19277641275686
| 22> C   -0.98424490283311 0.79864634604306 -1.06034759298402
| 23> C   0.97965128903301 -1.99757691484612 -0.69708863314133
| 24> C   -2.13218507190831 -0.59039671014971 0.64606644956042
| 25> H   0.54445293388099 -1.22066247688507 2.52686325916873
| 26> H   -1.70198655153167 2.53451469611458 1.78637949721934
| 27> H   1.42795297915975 2.10623841632382 1.75323102175493
| 28> H   1.44877192592917 0.97093682709979 3.11276210740978
| 29> H   2.93162461373807 1.34865027285437 2.2235978029577
| 30> H   -0.6836800806757 3.55053345253454 -1.4317738255877
| 31> H   -0.35925356862599 3.92118090637483 0.2701987470979
| 32> H   0.78653020887977 2.96266977864717 -0.68383924416088
| 33> H   0.01948505903202 -2.80761074041374 0.88619946591635
| 34> H   -2.62197931878611 0.42837827094396 2.32104694750758
| 35> H   1.93286694445735 -0.77353117355734 -2.00067257895359
| 36> H   -1.5546781227204 -1.1735663163617 -1.21473393355394
| 37> *
| 38>
| 39>                          ****END OF INPUT****

CARTESIAN COORDINATES (ANGSTROEM)
---------------------------------
  O      2.657753    1.139335   -0.625787
  O     -0.515085    0.843778   -2.175232
  O      0.595831   -2.806542   -1.512731
  O     -2.505534   -1.677497    1.035986
  N      0.675580   -2.084220    0.644614
  N     -2.204768    0.547644    1.416022
  N      1.747030   -0.899661   -1.017436
  N     -1.592272   -0.372961   -0.599403
  C      1.581121    0.054677    1.185759
  C     -0.966387    1.904203   -0.098554
  C      0.924948   -1.061186    1.529114
  C     -1.626147    1.746131    1.053056
  C      1.860750    1.180193    2.127935
  C     -0.268819    3.162298   -0.503855
  C      2.055270    0.180402   -0.192776
  C     -0.984245    0.798646   -1.060348
  C      0.979651   -1.997577   -0.697089
  C     -2.132185   -0.590397    0.646066
  H      0.544453   -1.220662    2.526863
  H     -1.701987    2.534515    1.786379
  H      1.427953    2.106238    1.753231
  H      1.448772    0.970937    3.112762
  H      2.931625    1.348650    2.223598
  H     -0.683680    3.550533   -1.431774
  H     -0.359254    3.921181    0.270199
  H      0.786530    2.962670   -0.683839
  H      0.019485   -2.807611    0.886199
  H     -2.621979    0.428378    2.321047
  H      1.932867   -0.773531   -2.000673
  H     -1.554678   -1.173566   -1.214734

 Total Charge           Charge          ....    0
 Multiplicity           Mult            ....    3
 Number of Electrons    NEL             ....  132
 Basis Dimension        Dim             ....  882

ORBITAL ENERGIES
----------------
                 SPIN UP ORBITALS
  NO   OCC          E(Eh)            E(eV)
   0   1.0000     -19.331513      -526.0372
   1   1.0000     -19.328534      -525.9561
   2   1.0000     -19.323224      -525.8117
   3   1.0000     -19.317008      -525.6425
   4   1.0000     -14.592068      -397.0704
   5   1.0000     -14.584028      -396.8516
   6   1.0000     -14.570942      -396.4955
   7   1.0000     -14.547440      -395.8560
   8   1.0000     -10.515001      -286.1277
   9   1.0000     -10.508407      -285.9483
  10   1.0000     -10.479067      -285.1499
  11   1.0000     -10.454601      -284.4841
  12   1.0000     -10.432980      -283.8958
  13   1.0000     -10.407048      -283.1902
  14   1.0000     -10.396270      -282.8969
  15   1.0000     -10.381397      -282.4922
  16   1.0000     -10.370065      -282.1838
  17   1.0000     -10.351643      -281.6825
  18   1.0000      -1.228318       -33.4242
  19   1.0000      -1.223815       -33.3017
  20   1.0000      -1.194188       -32.4955
  21   1.0000      -1.187594       -32.3161
  22   1.0000      -1.124000       -30.5856
  23   1.0000      -1.123215       -30.5642
  24   1.0000      -1.070710       -29.1355
  25   1.0000      -1.058845       -28.8126
  26   1.0000      -0.974271       -26.5113
  27   1.0000      -0.957208       -26.0470
  28   1.0000      -0.856718       -23.3125
  29   1.0000      -0.847362       -23.0579
  30   1.0000      -0.811003       -22.0685
  31   1.0000      -0.808128       -21.9903
  32   1.0000      -0.794701       -21.6249
  33   1.0000      -0.787223       -21.4214
  34   1.0000      -0.699624       -19.0377
  35   1.0000      -0.696027       -18.9399
  36   1.0000      -0.692294       -18.8383
  37   1.0000      -0.689558       -18.7638
  38   1.0000      -0.645229       -17.5576
  39   1.0000      -0.638720       -17.3805
  40   1.0000      -0.627484       -17.0747
  41   1.0000      -0.601902       -16.3786
  42   1.0000      -0.597900       -16.2697
  43   1.0000      -0.592404       -16.1201
  44   1.0000      -0.573036       -15.5931
  45   1.0000      -0.568356       -15.4657
  46   1.0000      -0.568202       -15.4616
  47   1.0000      -0.552963       -15.0469
  48   1.0000      -0.550102       -14.9690
  49   1.0000      -0.547275       -14.8921
  50   1.0000      -0.530113       -14.4251
  51   1.0000      -0.524504       -14.2725
  52   1.0000      -0.515990       -14.0408
  53   1.0000      -0.515409       -14.0250
  54   1.0000      -0.508850       -13.8465
  55   1.0000      -0.499466       -13.5911
  56   1.0000      -0.493186       -13.4203
  57   1.0000      -0.478867       -13.0306
  58   1.0000      -0.421102       -11.4588
  59   1.0000      -0.418659       -11.3923
  60   1.0000      -0.406039       -11.0489
  61   1.0000      -0.401122       -10.9151
  62   1.0000      -0.389037       -10.5862
  63   1.0000      -0.385291       -10.4843
  64   1.0000      -0.384416       -10.4605
  65   1.0000      -0.348189        -9.4747
  66   1.0000      -0.207778        -5.6539
  67   0.0000       0.011683         0.3179
  68   0.0000       0.019940         0.5426
  69   0.0000       0.033283         0.9057
  70   0.0000       0.038235         1.0404
  71   0.0000       0.043087         1.1725

                 SPIN DOWN ORBITALS
  NO   OCC          E(Eh)            E(eV)
   0   1.0000     -19.329593      -525.9850
   1   1.0000     -19.328515      -525.9556
   2   1.0000     -19.323282      -525.8132
   3   1.0000     -19.310634      -525.4691
   4   1.0000     -14.586701      -396.9243
   5   1.0000     -14.583797      -396.8453
   6   1.0000     -14.570942      -396.4955
   7   1.0000     -14.546525      -395.8311
   8   1.0000     -10.515011      -286.1280
   9   1.0000     -10.508807      -285.9592
  10   1.0000     -10.479046      -285.1493
  11   1.0000     -10.454238      -284.4743
  12   1.0000     -10.432756      -283.8897
  13   1.0000     -10.397626      -282.9338
  14   1.0000     -10.386136      -282.6211
  15   1.0000     -10.381456      -282.4938
  16   1.0000     -10.370538      -282.1967
  17   1.0000     -10.351619      -281.6819
  18   1.0000      -1.227624       -33.4053
  19   1.0000      -1.220028       -33.1987
  20   1.0000      -1.194150       -32.4945
  21   1.0000      -1.178174       -32.0598
  22   1.0000      -1.123019       -30.5589
  23   1.0000      -1.112801       -30.2809
  24   1.0000      -1.070586       -29.1321
  25   1.0000      -1.053244       -28.6602
  26   1.0000      -0.957810       -26.0633
  27   1.0000      -0.949666       -25.8417
  28   1.0000      -0.847147       -23.0521
  29   1.0000      -0.845637       -23.0110
  30   1.0000      -0.810641       -22.0587
  31   1.0000      -0.797508       -21.7013
  32   1.0000      -0.794077       -21.6079
  33   1.0000      -0.780398       -21.2357
  34   1.0000      -0.695787       -18.9333
  35   1.0000      -0.692313       -18.8388
  36   1.0000      -0.687776       -18.7153
  37   1.0000      -0.681377       -18.5412
  38   1.0000      -0.643630       -17.5141
  39   1.0000      -0.630083       -17.1454
  40   1.0000      -0.621269       -16.9056
  41   1.0000      -0.597885       -16.2693
  42   1.0000      -0.590729       -16.0746
  43   1.0000      -0.584121       -15.8947
  44   1.0000      -0.568279       -15.4637
  45   1.0000      -0.562168       -15.2974
  46   1.0000      -0.558167       -15.1885
  47   1.0000      -0.550833       -14.9889
  48   1.0000      -0.542916       -14.7735
  49   1.0000      -0.540420       -14.7056
  50   1.0000      -0.521596       -14.1934
  51   1.0000      -0.517172       -14.0730
  52   1.0000      -0.514570       -14.0022
  53   1.0000      -0.505426       -13.7534
  54   1.0000      -0.501412       -13.6441
  55   1.0000      -0.496424       -13.5084
  56   1.0000      -0.478423       -13.0185
  57   1.0000      -0.445810       -12.1311
  58   1.0000      -0.420424       -11.4403
  59   1.0000      -0.413834       -11.2610
  60   1.0000      -0.404160       -10.9977
  61   1.0000      -0.387881       -10.5548
  62   1.0000      -0.377838       -10.2815
  63   1.0000      -0.375588       -10.2203
  64   1.0000      -0.347312        -9.4508
  65   0.0000      -0.106233        -2.8907
  66   0.0000       0.010938         0.2976
  67   0.0000       0.020457         0.5567
  68   0.0000       0.030676         0.8347
  69   0.0000       0.036593         0.9957

----------------------------------------------------------------------------------------------------
          SPIN FLIP ABSORPTION SPECTRUM VIA TRANSITION ELECTRIC DIPOLE MOMENTS
----------------------------------------------------------------------------------------------------
     Transition      Energy     Energy  Wavelength fosc(D2)      D2        DX        DY        DZ
                      (eV)      (cm-1)    (nm)                 (au**2)    (au)      (au)      (au)
----------------------------------------------------------------------------------------------------
  1-3A  ->  2-3A    4.254403   34314.1   291.4   0.001777923   0.01706   0.05843   0.08760  -0.07727

Dispersion correction             ... done (  0.0 sec)

MULLIKEN ATOMIC CHARGES AND SPIN DENSITIES
------------------------------------------
   0 O :   -0.689523    0.007671
   1 O :   -0.654821   -0.000385
   2 O :   -0.613628    0.005316
   3 O :   -0.666100    0.000900
   4 N :    0.040136    0.035833
   5 N :   -0.016103   -0.006384
   6 N :   -0.002753   -0.013616
   7 N :    0.023105   -0.003032
   8 C :    1.224895    0.090060
   9 C :    0.505978    0.008036
  10 C :   -0.318776    0.002533
  11 C :    0.084206   -0.007706
  12 C :   -1.328491   -0.013158
  13 C :   -1.430996    0.003592
  14 C :    0.153756   -0.107223
  15 C :    0.598663   -0.004848
  16 C :    0.393397    0.003473
  17 C :    0.440407   -0.000612
  18 H :    0.108454   -0.017384
  19 H :    0.147649    0.001034
  20 H :    0.216568    0.011512
  21 H :    0.344513   -0.002232
  22 H :    0.349435    0.007940
  23 H :    0.362748   -0.000001
  24 H :    0.330455    0.000310
  25 H :    0.224866   -0.001163
  26 H :    0.087070   -0.002143
  27 H :    0.021197    0.001045
  28 H :    0.031746    0.001729
  29 H :    0.031944   -0.001098
Sum of atomic charges       :   -0.0000000

LOEWDIN ATOMIC CHARGES AND SPIN DENSITIES
-----------------------------------------
   0 O :    0.072358    0.005629
   1 O :    0.104521    0.000021
   2 O :    0.108338    0.004001
   3 O :    0.071587   -0.000106
   4 N :    0.314212    0.025413
   5 N :    0.276747   -0.002230
   6 N :    0.316464   -0.008457
   7 N :    0.342817   -0.000413
   8 C :   -0.098040    0.008002
   9 C :   -0.139584    0.000135
  10 C :    0.006331   -0.016101
  11 C :    0.055204   -0.001067
  12 C :    0.211512    0.002145
  13 C :    0.180913    0.000155
  14 C :   -0.437797   -0.009438
  15 C :   -0.391383   -0.000127
  16 C :   -0.477127   -0.002580
  17 C :   -0.489659   -0.000385
  18 H :    0.005151   -0.007289
  19 H :    0.036011   -0.000265
  20 H :   -0.004464    0.001020
  21 H :   -0.004840   -0.000541
  22 H :    0.013898    0.001144
  23 H :    0.001932    0.000046
  24 H :   -0.006205   -0.000032
  25 H :   -0.013040    0.000027
  26 H :   -0.011265    0.002468
  27 H :   -0.022307   -0.000174
  28 H :   -0.009627   -0.000959
  29 H :   -0.012658   -0.000041

  Mayer bond orders larger than 0.100000
B(  0-O , 14-C ) :   1.2788 B(  1-O , 15-C ) :   1.4197 B(  2-O , 16-C ) :   1.5820
B(  3-O , 17-C ) :   1.5349 B(  4-N , 10-C ) :   0.8752 B(  4-N , 16-C ) :   0.9365
B(  4-N , 26-H ) :   1.0802 B(  5-N , 11-C ) :   0.9641 B(  5-N , 17-C ) :   1.0392
B(  5-N , 27-H ) :   1.1336 B(  6-N , 14-C ) :   0.8841 B(  6-N , 16-C ) :   0.9215
B(  6-N , 28-H ) :   1.1037 B(  7-N , 15-C ) :   0.9833 B(  7-N , 17-C ) :   0.9298
B(  7-N , 29-H ) :   1.1186 B(  8-C , 10-C ) :   0.4817 B(  8-C , 12-C ) :   0.3595
B(  8-C , 14-C ) :   0.8667 B(  8-C , 18-H ) :  -0.1392 B(  8-C , 21-H ) :  -0.1036
B(  9-C , 11-C ) :   1.2037 B(  9-C , 13-C ) :   0.3655 B(  9-C , 15-C ) :   0.8420
B(  9-C , 24-H ) :  -0.1021 B(  9-C , 25-H ) :  -0.1096 B( 10-C , 18-H ) :   1.2142
B( 11-C , 13-C ) :  -0.1952 B( 11-C , 19-H ) :   1.0914 B( 12-C , 20-H ) :   0.9984
B( 12-C , 21-H ) :   0.9839 B( 12-C , 22-H ) :   0.8992 B( 13-C , 23-H ) :   0.9026
B( 13-C , 24-H ) :   1.0289 B( 13-C , 25-H ) :   1.0055

Dispersion correction           -0.058512723
FINAL SINGLE POINT ENERGY      -908.771340809459

DIPOLE MOMENT
-------------

Method             : TDA/CIS
Type of density    : Electron Density
Level              : Relaxed density
State              :   2
Multiplicity       :   3
Irrep              :   0
Energy             :     0.0000000000000000 Eh
Relativity type    :
Basis              : AO
                                X                 Y                 Z
Electronic contribution:     -2.595884619     -10.254026995      -5.910340190
Nuclear contribution   :      1.862506296      11.190049496       8.404108895
                        -----------------------------------------
Total Dipole Moment    :     -0.733378324       0.936022502       2.493768705
                        -----------------------------------------
Magnitude (a.u.)       :      2.762763878
Magnitude (Debye)      :      7.022387699

Rotational constants in cm-1:             0.017336             0.016015             0.012888
Rotational constants in MHz :           519.713054           480.112078           386.365425

                             ****ORCA TERMINATED NORMALLY****
TOTAL RUN TIME: 0 days 0 hours 31 minutes 6 seconds 987 msec
