                         Program Version 6.0.0  -   RELEASE  -
|  1> ! opt def2-TZVPPD wB97M-D3BJ
|  2> %pal nprocs 8 end%pal nprocs 32 end
|  3> %geom Constraints
|  4> {B 9 8 3.2 C}
|  5> {A 8 9 11 70.57142857142857 C}
|  6> end
|  7> MaxIter 300
|  8> end
|  9> *xyz 0 1
| 10> O   2.98579685529314 0.88758230159078 -0.86184571092411
| 11> O   -0.03983205397054 0.68929041702508 -2.10362336723772
| 12> O   0.93431434349854 -3.13274393337945 -0.68767288184107
| 13> O   -3.75829998830163 -0.84727300865116 -0.0472717177755
| 14> N   0.21184538946282 -1.54604804365365 0.7617588924445
| 15> N   -2.13631993928911 0.03188773433438 1.27350571071531
| 16> N   2.02598672506387 -1.14318467211666 -0.64531219127023
| 17> N   -1.91814233924584 0.03137116037665 -1.04498946748291
| 18> C   1.18097737274226 0.71693507080484 0.70173889017321
| 19> C   -0.20686880480777 1.27024627933494 0.21345042231937
| 20> C   0.41441080275909 -0.34173258966541 1.52336266615173
| 21> C   -0.82922175114212 0.58960593673968 1.44434972027296
| 22> C   1.92822011286806 1.69488653817281 1.5963734975385
| 23> C   -0.37809776891576 2.77134929626422 0.04819649358288
| 24> C   2.1403947470937 0.1972384729179 -0.35038567829864
| 25> C   -0.67361678962426 0.6214190571346 -1.0793014500539
| 26> C   1.04142578622994 -2.02697492875068 -0.21027082435993
| 27> C   -2.68467002550422 -0.30396816036989 0.07167054343891
| 28> H   0.80817443950001 -0.54572267081061 2.51895215321335
| 29> H   -0.83785272399001 1.27240685039143 2.28901317073582
| 30> H   2.31167340578204 2.52284411740894 1.00913016264629
| 31> H   1.28982602448342 2.08257620823614 2.38710022492991
| 32> H   2.77390820759972 1.19140411795486 2.06045858523949
| 33> H   -1.41857211141493 3.00964947214868 -0.16882755561625
| 34> H   -0.09065531563179 3.29799318042223 0.95389844358819
| 35> H   0.23426221611057 3.12492645074476 -0.77764887675592
| 36> H   -0.46772570547622 -2.21560145172536 1.0787081584806
| 37> H   -2.71769301149571 -0.17090724573546 2.06627440900372
| 38> H   2.60065167263658 -1.49057255715425 -1.3966820077142
| 39> H   -2.27169977231386 -0.32388339999036 -1.91951041514436
| 40> *
| 41>
| 42>                          ****END OF INPUT****
 Total Charge           Charge          ....    0
 Multiplicity           Mult            ....    1
 Number of Electrons    NEL             ....  132
Dispersion correction           -0.052041111
FINAL SINGLE POINT ENERGY      -908.642395656227
Dispersion correction             ... done (  0.0 sec)
Dispersion correction           -0.052662186
FINAL SINGLE POINT ENERGY      -908.674404473293
Dispersion correction             ... done (  0.0 sec)
Dispersion correction           -0.053332087
FINAL SINGLE POINT ENERGY      -908.695310570786
Dispersion correction             ... done (  0.0 sec)
FINAL SINGLE POINT ENERGY      -908.712743867725
FINAL SINGLE POINT ENERGY      -908.721077513693
FINAL SINGLE POINT ENERGY      -908.725397549777
FINAL SINGLE POINT ENERGY      -908.729912134841
FINAL SINGLE POINT ENERGY      -908.733409338518
FINAL SINGLE POINT ENERGY      -908.735541633339
FINAL SINGLE POINT ENERGY      -908.737724112749
FINAL SINGLE POINT ENERGY      -908.743885185333
FINAL SINGLE POINT ENERGY      -908.743888700107
FINAL SINGLE POINT ENERGY      -908.743895016158
FINAL SINGLE POINT ENERGY      -908.743900537212
FINAL SINGLE POINT ENERGY      -908.743909489898
FINAL SINGLE POINT ENERGY      -908.743914005994
FINAL SINGLE POINT ENERGY      -908.743921035326
Dispersion correction             ... done (  0.0 sec)
Dispersion correction           -0.057120145
FINAL SINGLE POINT ENERGY      -908.743923267290
Dispersion correction             ... done (  0.0 sec)
Dispersion correction           -0.057124161
FINAL SINGLE POINT ENERGY      -908.743926076238
Dispersion correction             ... done (  0.0 sec)
                    ***********************HURRAY********************

CARTESIAN COORDINATES (ANGSTROEM)
---------------------------------
  O      3.270635    0.287393   -0.918456
  O     -0.771822    1.630709   -2.324439
  O      0.399051   -3.074786   -0.222582
  O     -2.953486   -1.850951   -0.501717
  N      0.375129   -1.375900    1.282351
  N     -2.161232   -0.256592    0.914541
  N      1.531174   -1.168730   -0.735117
  N     -1.532071   -0.263680   -1.315606
  C      1.859637    0.498230    0.950654
  C     -0.984885    1.640766    0.032337
  C      0.400646    0.023136    1.544506
  C     -1.169172    0.729490    1.194201
  C      2.590668    1.552024    1.654493
  C     -0.741359    3.075956    0.204508
  C      2.295310   -0.081546   -0.282157
  C     -1.071438    1.049160   -1.300821
  C      0.739145   -1.953928    0.075852
  C     -2.269873   -0.878388   -0.303458
  H      0.472599    0.158453    2.625002
  H     -1.444677    1.283986    2.086463
  H      3.586958    1.675267    1.240955
  H      2.061796    2.517214    1.568390
  H      2.650426    1.345080    2.727547
  H     -1.600725    3.551636    0.689506
  H      0.109351    3.246843    0.878494
  H     -0.548159    3.552621   -0.750354
  H     -0.223740   -1.980890    1.818770
  H     -2.667558   -0.700530    1.659037
  H      1.873550   -1.623556   -1.565636
  H     -1.623276   -0.693490   -2.222664

 Multiplicity           Mult            ....    1
 Number of Electrons    NEL             ....  132
 Basis Dimension        Dim             ....  882

ORBITAL ENERGIES
----------------

  NO   OCC          E(Eh)            E(eV)
   0   2.0000     -19.337538      -526.2012
   1   2.0000     -19.326289      -525.8950
   2   2.0000     -19.318246      -525.6762
   3   2.0000     -19.312622      -525.5232
   4   2.0000     -14.570108      -396.4728
   5   2.0000     -14.568403      -396.4264
   6   2.0000     -14.562417      -396.2635
   7   2.0000     -14.548225      -395.8773
   8   2.0000     -10.510511      -286.0055
   9   2.0000     -10.499349      -285.7018
  10   2.0000     -10.489321      -285.4289
  11   2.0000     -10.465174      -284.7719
  12   2.0000     -10.451418      -284.3975
  13   2.0000     -10.449111      -284.3348
  14   2.0000     -10.445055      -284.2244
  15   2.0000     -10.412227      -283.3311
  16   2.0000     -10.385890      -282.6144
  17   2.0000     -10.370774      -282.2031
  18   2.0000      -1.225902       -33.3585
  19   2.0000      -1.212147       -32.9842
  20   2.0000      -1.201043       -32.6820
  21   2.0000      -1.177674       -32.0461
  22   2.0000      -1.119725       -30.4693
  23   2.0000      -1.095456       -29.8089
  24   2.0000      -1.068025       -29.0624
  25   2.0000      -1.050798       -28.5937
  26   2.0000      -0.975294       -26.5391
  27   2.0000      -0.937023       -25.4977
  28   2.0000      -0.879167       -23.9234
  29   2.0000      -0.839113       -22.8334
  30   2.0000      -0.823655       -22.4128
  31   2.0000      -0.802689       -21.8423
  32   2.0000      -0.790840       -21.5199
  33   2.0000      -0.768550       -20.9133
  34   2.0000      -0.702143       -19.1063
  35   2.0000      -0.687917       -18.7192
  36   2.0000      -0.682770       -18.5791
  37   2.0000      -0.655638       -17.8408
  38   2.0000      -0.644421       -17.5356
  39   2.0000      -0.641454       -17.4549
  40   2.0000      -0.618202       -16.8221
  41   2.0000      -0.601956       -16.3801
  42   2.0000      -0.583335       -15.8733
  43   2.0000      -0.579981       -15.7821
  44   2.0000      -0.578012       -15.7285
  45   2.0000      -0.568546       -15.4709
  46   2.0000      -0.566563       -15.4169
  47   2.0000      -0.554144       -15.0790
  48   2.0000      -0.549241       -14.9456
  49   2.0000      -0.548923       -14.9369
  50   2.0000      -0.543206       -14.7814
  51   2.0000      -0.539148       -14.6710
  52   2.0000      -0.527541       -14.3551
  53   2.0000      -0.523284       -14.2393
  54   2.0000      -0.511317       -13.9136
  55   2.0000      -0.502303       -13.6683
  56   2.0000      -0.476601       -12.9690
  57   2.0000      -0.424743       -11.5579
  58   2.0000      -0.414588       -11.2815
  59   2.0000      -0.406573       -11.0634
  60   2.0000      -0.403974       -10.9927
  61   2.0000      -0.395718       -10.7680
  62   2.0000      -0.384523       -10.4634
  63   2.0000      -0.376542       -10.2462
  64   2.0000      -0.370544       -10.0830
  65   2.0000      -0.272102        -7.4043
  66   0.0000      -0.119913        -3.2630
  67   0.0000       0.005170         0.1407
  68   0.0000       0.027130         0.7382
  69   0.0000       0.031644         0.8611
  70   0.0000       0.039191         1.0664

MULLIKEN ATOMIC CHARGES
-----------------------
   0 O :   -0.689814
   1 O :   -0.661317
   2 O :   -0.639319
   3 O :   -0.631091
   4 N :   -0.277131
   5 N :   -0.279250
   6 N :    0.081957
   7 N :    0.066441
   8 C :    0.274991
   9 C :    0.130148
  10 C :    0.201992
  11 C :    0.438641
  12 C :   -1.285330
  13 C :   -1.126771
  14 C :    0.339270
  15 C :    0.384705
  16 C :    0.345698
  17 C :    0.347469
  18 H :    0.540750
  19 H :    0.571409
  20 H :    0.318709
  21 H :    0.198333
  22 H :    0.298185
  23 H :    0.319615
  24 H :    0.230629
  25 H :    0.295660
  26 H :    0.083051
  27 H :    0.047772
  28 H :    0.045339
  29 H :    0.029261
Sum of atomic charges:   -0.0000000

LOEWDIN ATOMIC CHARGES
----------------------
   0 O :    0.078000
   1 O :    0.104612
   2 O :    0.099330
   3 O :    0.107587
   4 N :    0.254953
   5 N :    0.265674
   6 N :    0.312872
   7 N :    0.334446
   8 C :    0.000875
   9 C :    0.005129
  10 C :   -0.025308
  11 C :   -0.076209
  12 C :    0.159512
  13 C :    0.194259
  14 C :   -0.435347
  15 C :   -0.397021
  16 C :   -0.490622
  17 C :   -0.485197
  18 H :    0.015876
  19 H :    0.039371
  20 H :   -0.001052
  21 H :   -0.005672
  22 H :    0.004229
  23 H :    0.017885
  24 H :   -0.005372
  25 H :    0.002395
  26 H :   -0.028445
  27 H :   -0.026403
  28 H :   -0.014777
  29 H :   -0.005580

  Mayer bond orders larger than 0.100000
B(  0-O , 14-C ) :   1.3221 B(  1-O , 15-C ) :   1.3725 B(  2-O , 16-C ) :   1.5148
B(  3-O , 17-C ) :   1.5453 B(  4-N ,  5-N ) :   0.1259 B(  4-N ,  8-C ) :   0.3149
B(  4-N , 10-C ) :   0.3122 B(  4-N , 16-C ) :   1.0239 B(  4-N , 26-H ) :   1.0744
B(  5-N ,  9-C ) :   0.3550 B(  5-N , 11-C ) :   0.1364 B(  5-N , 17-C ) :   1.1448
B(  5-N , 27-H ) :   1.0869 B(  6-N ,  8-C ) :  -0.1245 B(  6-N , 14-C ) :   1.0655
B(  6-N , 16-C ) :   0.9929 B(  6-N , 28-H ) :   1.0730 B(  7-N , 11-C ) :   0.1326
B(  7-N , 15-C ) :   1.0476 B(  7-N , 17-C ) :   0.9255 B(  7-N , 29-H ) :   1.0923
B(  8-C ,  9-C ) :   0.4366 B(  8-C , 12-C ) :   0.5413 B(  8-C , 14-C ) :   0.8565
B(  8-C , 16-C ) :   0.1091 B(  8-C , 18-H ) :  -0.1780 B(  8-C , 20-H ) :  -0.1172
B(  9-C , 10-C ) :   0.2535 B(  9-C , 13-C ) :   0.7130 B(  9-C , 15-C ) :   0.8130
B( 10-C , 11-C ) :   0.6672 B( 10-C , 16-C ) :  -0.1166 B( 10-C , 18-H ) :   0.8009
B( 11-C , 15-C ) :  -0.1740 B( 11-C , 17-C ) :  -0.2224 B( 11-C , 19-H ) :   0.7418
B( 12-C , 20-H ) :   0.9963 B( 12-C , 21-H ) :   0.9577 B( 12-C , 22-H ) :   0.9551
B( 13-C , 23-H ) :   0.9199 B( 13-C , 24-H ) :   0.8545 B( 13-C , 25-H ) :   1.0062

Dispersion correction           -0.057118253
FINAL SINGLE POINT ENERGY      -908.743926975486

DIPOLE MOMENT
-------------

Method             : SCF
Type of density    : Electron Density
Multiplicity       :   1
Irrep              :   0
Energy             :  -908.6868087225786894 Eh
Relativity type    :
Basis              : AO
                                X                 Y                 Z
Electronic contribution:     -3.466105369     -10.275643618      -7.581208964
Nuclear contribution   :      2.627380241      11.989721424      10.270937397
                        -----------------------------------------
Total Dipole Moment    :     -0.838725127       1.714077806       2.689728434
                        -----------------------------------------
Magnitude (a.u.)       :      3.297902608
Magnitude (Debye)      :      8.382602253

Rotational constants in cm-1:             0.018609             0.014870             0.011848
Rotational constants in MHz :           557.896171           445.794199           355.203672

                             ****ORCA TERMINATED NORMALLY****
TOTAL RUN TIME: 0 days 1 hours 37 minutes 24 seconds 934 msec
