                         Program Version 6.0.0  -   RELEASE  -
|  1> ! SP wB97M-D3BJ def2-TZVPPD
|  2> %pal nprocs 8 end
|  3> *xyz 0 2
|  4> H   0.0 0.0 0.0
|  5> *
|  6>
|  7>                          ****END OF INPUT****

CARTESIAN COORDINATES (ANGSTROEM)
---------------------------------
  H      0.000000    0.000000    0.000000

 Total Charge           Charge          ....    0
 Multiplicity           Mult            ....    2
 Number of Electrons    NEL             ....    1
 Basis Dimension        Dim             ....   17

ORBITAL ENERGIES
----------------
                 SPIN UP ORBITALS
  NO   OCC          E(Eh)            E(eV)
   0   1.0000      -0.414167       -11.2701
   1   0.0000       0.174154         4.7390
   2   0.0000       0.174745         4.7551
   3   0.0000       0.174983         4.7615
   4   0.0000       0.309750         8.4287
   5   0.0000       0.880942        23.9717

                 SPIN DOWN ORBITALS
  NO   OCC          E(Eh)            E(eV)

MULLIKEN ATOMIC CHARGES AND SPIN POPULATIONS
--------------------------------------------
   0 H :   -0.000000    1.000000
Sum of atomic charges         :   -0.0000000

LOEWDIN ATOMIC CHARGES AND SPIN POPULATIONS
-------------------------------------------
   0 H :   -0.000000    1.000000

Dispersion correction            0.000000000
FINAL SINGLE POINT ENERGY        -0.498643406364

DIPOLE MOMENT
-------------

Method             : SCF
Type of density    : Electron Density
Multiplicity       :   2
Irrep              :   0
Energy             :    -0.4986434063642846 Eh
Relativity type    :
Basis              : AO
                                X                 Y                 Z
Electronic contribution:     -0.002330227      -0.003664166      -0.000013209
Nuclear contribution   :      0.000000000       0.000000000       0.000000000
                        -----------------------------------------
Total Dipole Moment    :     -0.002330227      -0.003664166      -0.000013209
                        -----------------------------------------
Magnitude (a.u.)       :      0.004342378
Magnitude (Debye)      :      0.011037448

Rotational constants in cm-1:             0.000000             0.000000             0.000000
Rotational constants in MHz :             0.000000             0.000000             0.000000

                             ****ORCA TERMINATED NORMALLY****
TOTAL RUN TIME: 0 days 0 hours 0 minutes 1 seconds 883 msec
