                         Program Version 6.0.0  -   RELEASE  -
|  1> ! Engrad def2-TZVPPD wB97M-D3BJ
|  2> %pal nprocs 8 end%pal nprocs 64 end
|  3> %tddft Nroots 2 Iroot 2
|  4> sf true
|  5> end
|  6> *xyz 0 3
|  7> O   2.45971483 1.33729753 -0.25423241
|  8> O   -0.61437811 0.80003984 -2.37387304
|  9> O   0.74019195 -2.60867226 -1.67865811
| 10> O   -2.85717692 -1.45286993 1.07672367
| 11> N   0.67002336 -2.09557692 0.57054402
| 12> N   -2.08201101 0.64693276 1.36707701
| 13> N   1.74734197 -0.75769945 -0.94051601
| 14> N   -1.69511562 -0.40069972 -0.67644494
| 15> C   1.43882753 -0.0164154 1.34825863
| 16> C   -0.80598248 1.84722821 -0.2783615
| 17> C   0.79790997 -1.23637755 1.62750814
| 18> C   -1.30890981 1.69836531 1.01777616
| 19> C   1.65703709 1.08741226 2.4080893
| 20> C   0.06608831 2.9961113 -0.69909645
| 21> C   1.94904395 0.2866575 0.03293605
| 22> C   -1.00394839 0.75533214 -1.19994389
| 23> C   0.99697657 -1.86179209 -0.76363157
| 24> C   -2.26065017 -0.50759365 0.60753265
| 25> H   0.34293884 -1.48634941 2.53618255
| 26> H   -1.04185888 2.3905486 1.73004525
| 27> H   1.82880681 1.99965356 1.86543852
| 28> H   0.80818901 1.29544096 3.12890815
| 29> H   2.47412218 0.83341431 3.09781833
| 30> H   0.03026828 3.08001899 -1.77286108
| 31> H   -0.1794001 3.90450479 -0.22778838
| 32> H   1.09068871 2.6658094 -0.4396309
| 33> H   0.01311209 -2.85574972 0.5574913
| 34> H   -2.38134188 0.56241079 2.28312642
| 35> H   1.80413134 -0.41963224 -1.8877687
| 36> H   -2.08103973 -1.10611373 -1.32932042
| 37> *
| 38>
| 39>                          ****END OF INPUT****

CARTESIAN COORDINATES (ANGSTROEM)
---------------------------------
  O      2.459715    1.337298   -0.254232
  O     -0.614378    0.800040   -2.373873
  O      0.740192   -2.608672   -1.678658
  O     -2.857177   -1.452870    1.076724
  N      0.670023   -2.095577    0.570544
  N     -2.082011    0.646933    1.367077
  N      1.747342   -0.757699   -0.940516
  N     -1.695116   -0.400700   -0.676445
  C      1.438828   -0.016415    1.348259
  C     -0.805982    1.847228   -0.278361
  C      0.797910   -1.236378    1.627508
  C     -1.308910    1.698365    1.017776
  C      1.657037    1.087412    2.408089
  C      0.066088    2.996111   -0.699096
  C      1.949044    0.286658    0.032936
  C     -1.003948    0.755332   -1.199944
  C      0.996977   -1.861792   -0.763632
  C     -2.260650   -0.507594    0.607533
  H      0.342939   -1.486349    2.536183
  H     -1.041859    2.390549    1.730045
  H      1.828807    1.999654    1.865439
  H      0.808189    1.295441    3.128908
  H      2.474122    0.833414    3.097818
  H      0.030268    3.080019   -1.772861
  H     -0.179400    3.904505   -0.227788
  H      1.090689    2.665809   -0.439631
  H      0.013112   -2.855750    0.557491
  H     -2.381342    0.562411    2.283126
  H      1.804131   -0.419632   -1.887769
  H     -2.081040   -1.106114   -1.329320

 Total Charge           Charge          ....    0
 Multiplicity           Mult            ....    3
 Number of Electrons    NEL             ....  132
 Basis Dimension        Dim             ....  882

ORBITAL ENERGIES
----------------
                 SPIN UP ORBITALS
  NO   OCC          E(Eh)            E(eV)
   0   1.0000     -19.344462      -526.3896
   1   1.0000     -19.331179      -526.0281
   2   1.0000     -19.325692      -525.8788
   3   1.0000     -19.317961      -525.6684
   4   1.0000     -14.589352      -396.9964
   5   1.0000     -14.579908      -396.7395
   6   1.0000     -14.563122      -396.2827
   7   1.0000     -14.561339      -396.2342
   8   1.0000     -10.521089      -286.2934
   9   1.0000     -10.503189      -285.8063
  10   1.0000     -10.483291      -285.2649
  11   1.0000     -10.464867      -284.7635
  12   1.0000     -10.447707      -284.2965
  13   1.0000     -10.413001      -283.3522
  14   1.0000     -10.397831      -282.9394
  15   1.0000     -10.389796      -282.7207
  16   1.0000     -10.365570      -282.0615
  17   1.0000     -10.349971      -281.6370
  18   1.0000      -1.230055       -33.4715
  19   1.0000      -1.222898       -33.2767
  20   1.0000      -1.201887       -32.7050
  21   1.0000      -1.181194       -32.1419
  22   1.0000      -1.128673       -30.7128
  23   1.0000      -1.118691       -30.4411
  24   1.0000      -1.065975       -29.0067
  25   1.0000      -1.057394       -28.7732
  26   1.0000      -0.965943       -26.2846
  27   1.0000      -0.944225       -25.6937
  28   1.0000      -0.853508       -23.2251
  29   1.0000      -0.850093       -23.1322
  30   1.0000      -0.813615       -22.1396
  31   1.0000      -0.807245       -21.9663
  32   1.0000      -0.786400       -21.3990
  33   1.0000      -0.782256       -21.2863
  34   1.0000      -0.699430       -19.0325
  35   1.0000      -0.690763       -18.7966
  36   1.0000      -0.689536       -18.7632
  37   1.0000      -0.685857       -18.6631
  38   1.0000      -0.647883       -17.6298
  39   1.0000      -0.645226       -17.5575
  40   1.0000      -0.626228       -17.0405
  41   1.0000      -0.600858       -16.3502
  42   1.0000      -0.598538       -16.2871
  43   1.0000      -0.596203       -16.2235
  44   1.0000      -0.582104       -15.8399
  45   1.0000      -0.576234       -15.6801
  46   1.0000      -0.561489       -15.2789
  47   1.0000      -0.557618       -15.1736
  48   1.0000      -0.552588       -15.0367
  49   1.0000      -0.544801       -14.8248
  50   1.0000      -0.523425       -14.2431
  51   1.0000      -0.522684       -14.2230
  52   1.0000      -0.513220       -13.9654
  53   1.0000      -0.511617       -13.9218
  54   1.0000      -0.503044       -13.6885
  55   1.0000      -0.494680       -13.4609
  56   1.0000      -0.485946       -13.2233
  57   1.0000      -0.476424       -12.9641
  58   1.0000      -0.428853       -11.6697
  59   1.0000      -0.420511       -11.4427
  60   1.0000      -0.413201       -11.2438
  61   1.0000      -0.399538       -10.8720
  62   1.0000      -0.391196       -10.6450
  63   1.0000      -0.389604       -10.6017
  64   1.0000      -0.379149       -10.3172
  65   1.0000      -0.338079        -9.1996
  66   1.0000      -0.222374        -6.0511
  67   0.0000       0.002688         0.0731
  68   0.0000       0.013695         0.3727
  69   0.0000       0.032465         0.8834
  70   0.0000       0.038507         1.0478
  71   0.0000       0.041424         1.1272

                 SPIN DOWN ORBITALS
  NO   OCC          E(Eh)            E(eV)
   0   1.0000     -19.342655      -526.3404
   1   1.0000     -19.331274      -526.0307
   2   1.0000     -19.318334      -525.6786
   3   1.0000     -19.317901      -525.6668
   4   1.0000     -14.585324      -396.8869
   5   1.0000     -14.579675      -396.7331
   6   1.0000     -14.562206      -396.2578
   7   1.0000     -14.561301      -396.2332
   8   1.0000     -10.521215      -286.2968
   9   1.0000     -10.503203      -285.8067
  10   1.0000     -10.483253      -285.2638
  11   1.0000     -10.464344      -284.7493
  12   1.0000     -10.447368      -284.2873
  13   1.0000     -10.404246      -283.1139
  14   1.0000     -10.389894      -282.7234
  15   1.0000     -10.387324      -282.6535
  16   1.0000     -10.365488      -282.0593
  17   1.0000     -10.350141      -281.6417
  18   1.0000      -1.226312       -33.3696
  19   1.0000      -1.222670       -33.2705
  20   1.0000      -1.201937       -32.7064
  21   1.0000      -1.169898       -31.8346
  22   1.0000      -1.118992       -30.4493
  23   1.0000      -1.117727       -30.4149
  24   1.0000      -1.065807       -29.0021
  25   1.0000      -1.052606       -28.6429
  26   1.0000      -0.945868       -25.7384
  27   1.0000      -0.941044       -25.6071
  28   1.0000      -0.850205       -23.1353
  29   1.0000      -0.840787       -22.8790
  30   1.0000      -0.809717       -22.0335
  31   1.0000      -0.799531       -21.7564
  32   1.0000      -0.782456       -21.2917
  33   1.0000      -0.779517       -21.2117
  34   1.0000      -0.690144       -18.7798
  35   1.0000      -0.689153       -18.7528
  36   1.0000      -0.685786       -18.6612
  37   1.0000      -0.681035       -18.5319
  38   1.0000      -0.647338       -17.6150
  39   1.0000      -0.635332       -17.2883
  40   1.0000      -0.620770       -16.8920
  41   1.0000      -0.597929       -16.2705
  42   1.0000      -0.592832       -16.1318
  43   1.0000      -0.585617       -15.9355
  44   1.0000      -0.575820       -15.6689
  45   1.0000      -0.569933       -15.5087
  46   1.0000      -0.560216       -15.2442
  47   1.0000      -0.553018       -15.0484
  48   1.0000      -0.544837       -14.8258
  49   1.0000      -0.536074       -14.5873
  50   1.0000      -0.517745       -14.0886
  51   1.0000      -0.512016       -13.9327
  52   1.0000      -0.503854       -13.7106
  53   1.0000      -0.497160       -13.5284
  54   1.0000      -0.493883       -13.4392
  55   1.0000      -0.492115       -13.3911
  56   1.0000      -0.475021       -12.9260
  57   1.0000      -0.453643       -12.3443
  58   1.0000      -0.424946       -11.5634
  59   1.0000      -0.419548       -11.4165
  60   1.0000      -0.400472       -10.8974
  61   1.0000      -0.390120       -10.6157
  62   1.0000      -0.385795       -10.4980
  63   1.0000      -0.380723       -10.3600
  64   1.0000      -0.339098        -9.2273
  65   0.0000      -0.098058        -2.6683
  66   0.0000       0.006040         0.1644
  67   0.0000       0.013330         0.3627
  68   0.0000       0.030086         0.8187
  69   0.0000       0.036746         0.9999

----------------------------------------------------------------------------------------------------
          SPIN FLIP ABSORPTION SPECTRUM VIA TRANSITION ELECTRIC DIPOLE MOMENTS
----------------------------------------------------------------------------------------------------
     Transition      Energy     Energy  Wavelength fosc(D2)      D2        DX        DY        DZ
                      (eV)      (cm-1)    (nm)                 (au**2)    (au)      (au)      (au)
----------------------------------------------------------------------------------------------------
  1-3A  ->  2-3A    3.542175   28569.6   350.0   0.000767388   0.00884   0.01172  -0.04122  -0.08370

Dispersion correction             ... done (  0.1 sec)

MULLIKEN ATOMIC CHARGES AND SPIN DENSITIES
------------------------------------------
   0 O :   -0.653858   -0.001001
   1 O :   -0.702661    0.009156
   2 O :   -0.640638   -0.000243
   3 O :   -0.634983   -0.000411
   4 N :   -0.069223   -0.000380
   5 N :    0.050589    0.026238
   6 N :   -0.054670   -0.003261
   7 N :    0.082211   -0.006078
   8 C :    0.769384   -0.014950
   9 C :    1.175247    0.059798
  10 C :   -0.013295    0.008722
  11 C :   -0.529181    0.051868
  12 C :   -1.465966   -0.004290
  13 C :   -1.208752   -0.010792
  14 C :    0.303512    0.005553
  15 C :    0.147760   -0.133689
  16 C :    0.494684    0.001826
  17 C :    0.388965    0.003475
  18 H :    0.231701    0.000518
  19 H :    0.239346   -0.008659
  20 H :    0.278216    0.001536
  21 H :    0.279337   -0.001848
  22 H :    0.388734   -0.001006
  23 H :    0.309150    0.001369
  24 H :    0.400701   -0.001803
  25 H :    0.228604    0.014797
  26 H :    0.044790   -0.000080
  27 H :   -0.005577    0.002395
  28 H :    0.081343    0.000332
  29 H :    0.084528    0.000909
Sum of atomic charges       :   -0.0000000

LOEWDIN ATOMIC CHARGES AND SPIN DENSITIES
-----------------------------------------
   0 O :    0.076467   -0.000396
   1 O :    0.044957    0.007073
   2 O :    0.094305   -0.000095
   3 O :    0.093193   -0.000834
   4 N :    0.272408   -0.000168
   5 N :    0.314550    0.012623
   6 N :    0.348724   -0.000244
   7 N :    0.306799   -0.004917
   8 C :   -0.101600   -0.000540
   9 C :   -0.058090    0.005222
  10 C :    0.107775   -0.000049
  11 C :    0.034638   -0.007322
  12 C :    0.170795   -0.000582
  13 C :    0.246267    0.001342
  14 C :   -0.387295   -0.000261
  15 C :   -0.402111   -0.005472
  16 C :   -0.509076   -0.000030
  17 C :   -0.452815   -0.003002
  18 H :    0.014549    0.000014
  19 H :   -0.038105   -0.004321
  20 H :   -0.038586   -0.000044
  21 H :    0.009350   -0.000177
  22 H :   -0.006951   -0.000171
  23 H :   -0.000175    0.000266
  24 H :   -0.022604   -0.000083
  25 H :   -0.028699    0.001137
  26 H :   -0.026209   -0.000017
  27 H :   -0.056331    0.001688
  28 H :   -0.012976   -0.000065
  29 H :    0.006851   -0.000573

  Mayer bond orders larger than 0.100000
B(  0-O , 14-C ) :   1.4419 B(  1-O , 15-C ) :   1.2309 B(  2-O , 16-C ) :   1.5109
B(  3-O , 17-C ) :   1.5484 B(  4-N , 10-C ) :   0.9385 B(  4-N , 16-C ) :   0.9581
B(  4-N , 26-H ) :   1.1018 B(  5-N , 11-C ) :   0.9045 B(  5-N , 17-C ) :   0.9845
B(  5-N , 27-H ) :   1.1311 B(  6-N , 14-C ) :   0.9614 B(  6-N , 16-C ) :   0.9237
B(  6-N , 28-H ) :   1.0551 B(  7-N , 15-C ) :   0.8525 B(  7-N , 17-C ) :   1.0184
B(  7-N , 29-H ) :   1.0779 B(  8-C , 10-C ) :   0.9816 B(  8-C , 12-C ) :   0.5245
B(  8-C , 14-C ) :   0.7366 B(  9-C , 11-C ) :   0.4348 B(  9-C , 13-C ) :   0.4910
B(  9-C , 15-C ) :   0.9731 B(  9-C , 19-H ) :  -0.1071 B(  9-C , 24-H ) :  -0.1011
B( 10-C , 12-C ) :  -0.1053 B( 10-C , 18-H ) :   1.0468 B( 11-C , 17-C ) :  -0.1022
B( 11-C , 19-H ) :   1.0881 B( 12-C , 14-C ) :  -0.1431 B( 12-C , 20-H ) :   1.0157
B( 12-C , 21-H ) :   0.9556 B( 12-C , 22-H ) :   0.8576 B( 13-C , 23-H ) :   0.9793
B( 13-C , 24-H ) :   0.9868 B( 13-C , 25-H ) :   0.8783 B( 14-C , 15-C ) :   0.1152

Dispersion correction           -0.059350047
FINAL SINGLE POINT ENERGY      -908.750054828927

DIPOLE MOMENT
-------------

Method             : TDA/CIS
Type of density    : Electron Density
Level              : Relaxed density
State              :   2
Multiplicity       :   3
Irrep              :   0
Energy             :     0.0000000000000000 Eh
Relativity type    :
Basis              : AO
                                X                 Y                 Z
Electronic contribution:     -3.026612814      -9.255712992      -5.900034921
Nuclear contribution   :      2.634335113       9.956571837       8.380201614
                        -----------------------------------------
Total Dipole Moment    :     -0.392277702       0.700858845       2.480166693
                        -----------------------------------------
Magnitude (a.u.)       :      2.606973675
Magnitude (Debye)      :      6.626400472

Rotational constants in cm-1:             0.016830             0.015855             0.013664
Rotational constants in MHz :           504.540633           475.323670           409.623513

                             ****ORCA TERMINATED NORMALLY****
TOTAL RUN TIME: 0 days 0 hours 7 minutes 8 seconds 718 msec
