                         Program Version 6.0.0  -   RELEASE  -
|  1> ! Engrad def2-TZVPPD wB97M-D3BJ
|  2> %pal nprocs 8 end%pal nprocs 32 end
|  3>  %tddft nroots 2 Iroot 2
|  4> sf true
|  5> end
|  6> *xyz 0 3
|  7> O   3.32076942498541 0.75615831179987 -0.26182454640181
|  8> O   -0.67801469523041 0.82733505231357 -2.51464866119424
|  9> O   0.68085997241618 -2.82849942782569 -1.14992905285421
| 10> O   -3.54973156114307 -1.08701724417698 0.39167309772223
| 11> N   0.22173569747999 -1.60619579381341 0.70172329614437
| 12> N   -2.00898307557333 0.35723081344428 1.25879607414174
| 13> N   2.01571746012643 -1.05339845212461 -0.67203447234659
| 14> N   -1.91734045131562 -0.3119336266772 -0.98392961412579
| 15> C   1.47130265726682 0.42103520670468 1.16680025053564
| 16> C   -0.4847546668131 1.42721442535979 -0.21936105727805
| 17> C   0.33178639567568 -0.41340043631614 1.4879253331047
| 18> C   -0.56150112960477 0.73837677436942 1.15283634213281
| 19> C   1.96474039310342 1.47380848017373 2.08505253056155
| 20> C   -0.37663996075656 2.89596300931568 -0.3242840955126
| 21> C   2.35088973856756 0.08845393978389 0.03569919633442
| 22> C   -0.97842687401819 0.64139757673904 -1.35674417075285
| 23> C   0.94003076904 -1.89504673671567 -0.4276836250733
| 24> C   -2.56524604679914 -0.39505491387453 0.25436815784165
| 25> H   0.26183191767999 -0.65261575271725 2.55100530799673
| 26> H   -0.41973572697748 1.50626551455049 1.90576356296376
| 27> H   1.80472359182064 2.47161568364074 1.66633522936845
| 28> H   1.48086399405405 1.42428451875248 3.05753008820097
| 29> H   3.04301224620922 1.37545055155419 2.19875226414108
| 30> H   -1.2727339783609 3.38371748317963 0.07479441448976
| 31> H   0.47074911068175 3.27402348711345 0.25235162000116
| 32> H   -0.25984985356744 3.18981145223906 -1.36340180643272
| 33> H   -0.59993440090388 -2.17495529413146 0.81076322149564
| 34> H   -2.45346195742579 0.19897563589061 2.14903387321901
| 35> H   2.54698499633726 -1.25169439007258 -1.50373712270334
| 36> H   -2.32704398695476 -0.86630584847911 -1.71902563572017
| 37> *
| 38>
| 39>                          ****END OF INPUT****

CARTESIAN COORDINATES (ANGSTROEM)
---------------------------------
  O      3.320769    0.756158   -0.261825
  O     -0.678015    0.827335   -2.514649
  O      0.680860   -2.828499   -1.149929
  O     -3.549732   -1.087017    0.391673
  N      0.221736   -1.606196    0.701723
  N     -2.008983    0.357231    1.258796
  N      2.015717   -1.053398   -0.672034
  N     -1.917340   -0.311934   -0.983930
  C      1.471303    0.421035    1.166800
  C     -0.484755    1.427214   -0.219361
  C      0.331786   -0.413400    1.487925
  C     -0.561501    0.738377    1.152836
  C      1.964740    1.473808    2.085053
  C     -0.376640    2.895963   -0.324284
  C      2.350890    0.088454    0.035699
  C     -0.978427    0.641398   -1.356744
  C      0.940031   -1.895047   -0.427684
  C     -2.565246   -0.395055    0.254368
  H      0.261832   -0.652616    2.551005
  H     -0.419736    1.506266    1.905764
  H      1.804724    2.471616    1.666335
  H      1.480864    1.424285    3.057530
  H      3.043012    1.375451    2.198752
  H     -1.272734    3.383717    0.074794
  H      0.470749    3.274023    0.252352
  H     -0.259850    3.189811   -1.363402
  H     -0.599934   -2.174955    0.810763
  H     -2.453462    0.198976    2.149034
  H      2.546985   -1.251694   -1.503737
  H     -2.327044   -0.866306   -1.719026

 Total Charge           Charge          ....    0
 Multiplicity           Mult            ....    3
 Number of Electrons    NEL             ....  132
 Basis Dimension        Dim             ....  882

ORBITAL ENERGIES
----------------
                 SPIN UP ORBITALS
  NO   OCC          E(Eh)            E(eV)
   0   1.0000     -19.334072      -526.1068
   1   1.0000     -19.330629      -526.0132
   2   1.0000     -19.322869      -525.8020
   3   1.0000     -19.318453      -525.6818
   4   1.0000     -14.562918      -396.2771
   5   1.0000     -14.562482      -396.2653
   6   1.0000     -14.562242      -396.2588
   7   1.0000     -14.561011      -396.2253
   8   1.0000     -10.506094      -285.8854
   9   1.0000     -10.505759      -285.8762
  10   1.0000     -10.481672      -285.2208
  11   1.0000     -10.480613      -285.1920
  12   1.0000     -10.450222      -284.3650
  13   1.0000     -10.441925      -284.1392
  14   1.0000     -10.419247      -283.5221
  15   1.0000     -10.414749      -283.3997
  16   1.0000     -10.379097      -282.4296
  17   1.0000     -10.375622      -282.3350
  18   1.0000      -1.222486       -33.2655
  19   1.0000      -1.218230       -33.1497
  20   1.0000      -1.198773       -32.6203
  21   1.0000      -1.196583       -32.5607
  22   1.0000      -1.125251       -30.6196
  23   1.0000      -1.097683       -29.8695
  24   1.0000      -1.067650       -29.0522
  25   1.0000      -1.057265       -28.7696
  26   1.0000      -1.006398       -27.3855
  27   1.0000      -0.952571       -25.9208
  28   1.0000      -0.897372       -24.4187
  29   1.0000      -0.841578       -22.9005
  30   1.0000      -0.830986       -22.6123
  31   1.0000      -0.802037       -21.8245
  32   1.0000      -0.787292       -21.4233
  33   1.0000      -0.783120       -21.3098
  34   1.0000      -0.710818       -19.3423
  35   1.0000      -0.699481       -19.0339
  36   1.0000      -0.694651       -18.9024
  37   1.0000      -0.677859       -18.4455
  38   1.0000      -0.661005       -17.9869
  39   1.0000      -0.637508       -17.3475
  40   1.0000      -0.623912       -16.9775
  41   1.0000      -0.599952       -16.3255
  42   1.0000      -0.595457       -16.2032
  43   1.0000      -0.588567       -16.0157
  44   1.0000      -0.584130       -15.8950
  45   1.0000      -0.576331       -15.6828
  46   1.0000      -0.566612       -15.4183
  47   1.0000      -0.565966       -15.4007
  48   1.0000      -0.557812       -15.1788
  49   1.0000      -0.552961       -15.0468
  50   1.0000      -0.549047       -14.9403
  51   1.0000      -0.544800       -14.8247
  52   1.0000      -0.537591       -14.6286
  53   1.0000      -0.523809       -14.2536
  54   1.0000      -0.513364       -13.9693
  55   1.0000      -0.511381       -13.9154
  56   1.0000      -0.497104       -13.5269
  57   1.0000      -0.424839       -11.5605
  58   1.0000      -0.420771       -11.4498
  59   1.0000      -0.411790       -11.2054
  60   1.0000      -0.404546       -11.0083
  61   1.0000      -0.399215       -10.8632
  62   1.0000      -0.393972       -10.7205
  63   1.0000      -0.391125       -10.6431
  64   1.0000      -0.383699       -10.4410
  65   1.0000      -0.350833        -9.5467
  66   1.0000      -0.311445        -8.4748
  67   0.0000       0.006777         0.1844
  68   0.0000       0.027987         0.7616
  69   0.0000       0.032723         0.8904
  70   0.0000       0.036172         0.9843
  71   0.0000       0.054420         1.4809

                 SPIN DOWN ORBITALS
  NO   OCC          E(Eh)            E(eV)
   0   1.0000     -19.330706      -526.0152
   1   1.0000     -19.327058      -525.9160
   2   1.0000     -19.322486      -525.7916
   3   1.0000     -19.318495      -525.6830
   4   1.0000     -14.562163      -396.2566
   5   1.0000     -14.562126      -396.2556
   6   1.0000     -14.560815      -396.2199
   7   1.0000     -14.560707      -396.2170
   8   1.0000     -10.506113      -285.8859
   9   1.0000     -10.505809      -285.8776
  10   1.0000     -10.482591      -285.2458
  11   1.0000     -10.481242      -285.2091
  12   1.0000     -10.449474      -284.3446
  13   1.0000     -10.441977      -284.1406
  14   1.0000     -10.406683      -283.1803
  15   1.0000     -10.403092      -283.0825
  16   1.0000     -10.379677      -282.4454
  17   1.0000     -10.376246      -282.3520
  18   1.0000      -1.220721       -33.2175
  19   1.0000      -1.216614       -33.1058
  20   1.0000      -1.194630       -32.5075
  21   1.0000      -1.192418       -32.4474
  22   1.0000      -1.121523       -30.5182
  23   1.0000      -1.095069       -29.7984
  24   1.0000      -1.065554       -28.9952
  25   1.0000      -1.055226       -28.7142
  26   1.0000      -0.994258       -27.0551
  27   1.0000      -0.935338       -25.4518
  28   1.0000      -0.890601       -24.2345
  29   1.0000      -0.835955       -22.7475
  30   1.0000      -0.821973       -22.3670
  31   1.0000      -0.797045       -21.6887
  32   1.0000      -0.785449       -21.3732
  33   1.0000      -0.781026       -21.2528
  34   1.0000      -0.705183       -19.1890
  35   1.0000      -0.691324       -18.8119
  36   1.0000      -0.686626       -18.6840
  37   1.0000      -0.668009       -18.1775
  38   1.0000      -0.651555       -17.7297
  39   1.0000      -0.633502       -17.2385
  40   1.0000      -0.619223       -16.8499
  41   1.0000      -0.594961       -16.1897
  42   1.0000      -0.589454       -16.0399
  43   1.0000      -0.583432       -15.8760
  44   1.0000      -0.576937       -15.6993
  45   1.0000      -0.566506       -15.4154
  46   1.0000      -0.563150       -15.3241
  47   1.0000      -0.562738       -15.3129
  48   1.0000      -0.551357       -15.0032
  49   1.0000      -0.545148       -14.8342
  50   1.0000      -0.539568       -14.6824
  51   1.0000      -0.536930       -14.6106
  52   1.0000      -0.531915       -14.4742
  53   1.0000      -0.515283       -14.0216
  54   1.0000      -0.507911       -13.8210
  55   1.0000      -0.503602       -13.7037
  56   1.0000      -0.490098       -13.3362
  57   1.0000      -0.419524       -11.4158
  58   1.0000      -0.417204       -11.3527
  59   1.0000      -0.407493       -11.0885
  60   1.0000      -0.394275       -10.7288
  61   1.0000      -0.390023       -10.6131
  62   1.0000      -0.388218       -10.5640
  63   1.0000      -0.385235       -10.4828
  64   1.0000      -0.375673       -10.2226
  65   0.0000      -0.068230        -1.8566
  66   0.0000      -0.026076        -0.7096
  67   0.0000       0.006271         0.1706
  68   0.0000       0.027986         0.7615
  69   0.0000       0.032591         0.8869

----------------------------------------------------------------------------------------------------
          SPIN FLIP ABSORPTION SPECTRUM VIA TRANSITION ELECTRIC DIPOLE MOMENTS
----------------------------------------------------------------------------------------------------
     Transition      Energy     Energy  Wavelength fosc(D2)      D2        DX        DY        DZ
                      (eV)      (cm-1)    (nm)                 (au**2)    (au)      (au)      (au)
----------------------------------------------------------------------------------------------------
  1-3A  ->  2-3A    0.514162    4147.0  2411.4   0.000054626   0.00434  -0.01050  -0.04607   0.04586

Dispersion correction             ... done (  0.1 sec)

MULLIKEN ATOMIC CHARGES AND SPIN DENSITIES
------------------------------------------
   0 O :   -0.694186    0.029530
   1 O :   -0.657721   -0.027751
   2 O :   -0.658226   -0.000240
   3 O :   -0.646539   -0.000280
   4 N :   -0.204260    0.007307
   5 N :   -0.360305   -0.008395
   6 N :   -0.015199    0.003956
   7 N :    0.067529   -0.002947
   8 C :    0.302700    0.405123
   9 C :    0.860186    0.281136
  10 C :    0.749482   -0.198548
  11 C :    0.193088   -0.180570
  12 C :   -1.574254    0.035660
  13 C :   -1.462078    0.033085
  14 C :    0.274277   -0.163455
  15 C :   -0.222300   -0.296836
  16 C :    0.498924    0.021853
  17 C :    0.354829    0.013319
  18 H :    0.330801    0.000887
  19 H :    0.659090    0.004732
  20 H :    0.258074    0.005397
  21 H :    0.358726    0.001862
  22 H :    0.394432    0.008530
  23 H :    0.360906    0.007449
  24 H :    0.267914    0.029045
  25 H :    0.364820   -0.012333
  26 H :    0.034963    0.000113
  27 H :    0.107394    0.000918
  28 H :    0.023302   -0.000164
  29 H :    0.033631    0.001618
Sum of atomic charges       :   -0.0000000

LOEWDIN ATOMIC CHARGES AND SPIN DENSITIES
-----------------------------------------
   0 O :    0.091575    0.025259
   1 O :    0.101755   -0.027791
   2 O :    0.095060   -0.000460
   3 O :    0.083307   -0.000106
   4 N :    0.304979   -0.000327
   5 N :    0.298950   -0.004377
   6 N :    0.339365    0.003067
   7 N :    0.324463   -0.004400
   8 C :   -0.078698    0.124316
   9 C :    0.008741   -0.117894
  10 C :   -0.129418    0.012337
  11 C :   -0.128585   -0.000873
  12 C :    0.191035    0.017079
  13 C :    0.203108   -0.020305
  14 C :   -0.392931    0.013663
  15 C :   -0.418272   -0.020637
  16 C :   -0.480670   -0.000131
  17 C :   -0.494161   -0.000143
  18 H :    0.075741    0.003068
  19 H :    0.041533    0.000275
  20 H :   -0.000026    0.005285
  21 H :    0.005749    0.000260
  22 H :    0.013789    0.004026
  23 H :    0.020589   -0.006938
  24 H :   -0.009934   -0.003129
  25 H :    0.006746   -0.000252
  26 H :   -0.026663   -0.000049
  27 H :   -0.032555   -0.000682
  28 H :   -0.007129    0.000330
  29 H :   -0.007442   -0.000470

  Mayer bond orders larger than 0.100000
B(  0-O , 12-C ) :   0.1051 B(  0-O , 14-C ) :   1.2688 B(  1-O , 15-C ) :   1.4336
B(  2-O , 16-C ) :   1.5181 B(  3-O , 17-C ) :   1.5772 B(  4-N ,  8-C ) :   0.1761
B(  4-N ,  9-C ) :   0.1117 B(  4-N , 10-C ) :   0.5016 B(  4-N , 16-C ) :   1.0250
B(  4-N , 26-H ) :   1.0922 B(  5-N ,  9-C ) :   0.2240 B(  5-N , 10-C ) :   0.1721
B(  5-N , 11-C ) :  -0.2068 B(  5-N , 15-C ) :   0.1204 B(  5-N , 17-C ) :   1.2298
B(  5-N , 27-H ) :   1.0177 B(  6-N , 14-C ) :   0.9898 B(  6-N , 16-C ) :   0.9278
B(  6-N , 28-H ) :   1.1066 B(  7-N , 10-C ) :  -0.1330 B(  7-N , 11-C ) :   0.1642
B(  7-N , 15-C ) :   0.9465 B(  7-N , 17-C ) :   0.9825 B(  7-N , 29-H ) :   1.1012
B(  8-C ,  9-C ) :   0.2142 B(  8-C , 10-C ) :   0.2929 B(  8-C , 11-C ) :   0.5837
B(  8-C , 12-C ) :   0.3835 B(  8-C , 14-C ) :   0.6847 B(  8-C , 18-H ) :  -0.2634
B(  8-C , 21-H ) :  -0.1925 B(  9-C , 11-C ) :   0.8177 B(  9-C , 13-C ) :   0.3043
B(  9-C , 15-C ) :   0.3562 B(  9-C , 25-H ) :  -0.1024 B( 10-C , 11-C ) :   0.1911
B( 10-C , 12-C ) :  -0.4524 B( 10-C , 15-C ) :  -0.1020 B( 10-C , 18-H ) :   1.1572
B( 10-C , 19-H ) :  -0.1404 B( 11-C , 12-C ) :   0.2266 B( 11-C , 13-C ) :  -0.1779
B( 11-C , 17-C ) :  -0.2121 B( 11-C , 18-H ) :  -0.1817 B( 11-C , 19-H ) :   0.7366
B( 12-C , 20-H ) :   0.8315 B( 12-C , 21-H ) :   1.1380 B( 12-C , 22-H ) :   0.8640
B( 13-C , 23-H ) :   0.8528 B( 13-C , 24-H ) :   1.0208 B( 13-C , 25-H ) :   0.9623

Dispersion correction           -0.059748153
FINAL SINGLE POINT ENERGY      -908.768129286562

DIPOLE MOMENT
-------------

Method             : TDA/CIS
Type of density    : Electron Density
Level              : Relaxed density
State              :   2
Multiplicity       :   3
Irrep              :   0
Energy             :     0.0000000000000000 Eh
Relativity type    :
Basis              : AO
                                X                 Y                 Z
Electronic contribution:     -2.183045754      -9.783414433      -6.650072953
Nuclear contribution   :      2.115382960      11.190040170       9.218803850
                        -----------------------------------------
Total Dipole Moment    :     -0.067662795       1.406625737       2.568730897
                        -----------------------------------------
Magnitude (a.u.)       :      2.929428722
Magnitude (Debye)      :      7.446016067

Rotational constants in cm-1:             0.020241             0.014259             0.012488
Rotational constants in MHz :           606.806077           427.484007           374.367603

                             ****ORCA TERMINATED NORMALLY****
TOTAL RUN TIME: 0 days 0 hours 5 minutes 52 seconds 500 msec
