                         Program Version 6.0.0  -   RELEASE  -
|  1> ! Opt wB97M-D3BJ def2-TZVPPD
|  2> %pal nprocs 8 end %pal nprocs 64 end
|  3> %geom
|  4> Constraints
|  5>     {A 2 1 0 57.27272727272727 C }
|  6> end
|  7> MaxIter 500
|  8> end
|  9> *xyz 0 1
| 10> O   -0.0007 0.8141 0.0
| 11> C   0.7509 -0.4065 0.0
| 12> C   -0.7502 -0.4076 0.0
| 13> H   1.2625 -0.6786 0.9136
| 14> H   1.2625 -0.6787 -0.9136
| 15> H   -1.2614 -0.6806 -0.9136
| 16> H   -1.2614 -0.6805 0.9136
| 17> *
| 18>
| 19>                          ****END OF INPUT****
 Total Charge           Charge          ....    0
 Multiplicity           Mult            ....    1
 Number of Electrons    NEL             ....   24
Dispersion correction           -0.005197768
FINAL SINGLE POINT ENERGY      -153.887005564256
Dispersion correction             ... done (  0.1 sec)
Dispersion correction           -0.005209533
FINAL SINGLE POINT ENERGY      -153.888843798781
Dispersion correction             ... done (  0.1 sec)
Dispersion correction           -0.005218341
FINAL SINGLE POINT ENERGY      -153.889117780822
Dispersion correction             ... done (  0.1 sec)
Dispersion correction           -0.005219001
FINAL SINGLE POINT ENERGY      -153.889139285344
Dispersion correction             ... done (  0.1 sec)
Dispersion correction           -0.005219534
FINAL SINGLE POINT ENERGY      -153.889150746124
Dispersion correction             ... done (  0.1 sec)
                    ***********************HURRAY********************

CARTESIAN COORDINATES (ANGSTROEM)
---------------------------------
  O     -0.017153    0.774245   -0.000037
  C      0.740622   -0.449096    0.000026
  C     -0.732315   -0.424622   -0.000017
  H      1.269410   -0.654496    0.920544
  H      1.269340   -0.654702   -0.920497
  H     -1.263875   -0.654825   -0.916236
  H     -1.263829   -0.654903    0.916217

 Multiplicity           Mult            ....    1
 Number of Electrons    NEL             ....   24
 Basis Dimension        Dim             ....  182

ORBITAL ENERGIES
----------------

  NO   OCC          E(Eh)            E(eV)
   0   2.0000     -19.352628      -526.6118
   1   2.0000     -10.400314      -283.0069
   2   2.0000     -10.399425      -282.9827
   3   2.0000      -1.213263       -33.0146
   4   2.0000      -0.801378       -21.8066
   5   2.0000      -0.758621       -20.6431
   6   2.0000      -0.631962       -17.1966
   7   2.0000      -0.595478       -16.2038
   8   2.0000      -0.509845       -13.8736
   9   2.0000      -0.492147       -13.3920
  10   2.0000      -0.418945       -11.4001
  11   2.0000      -0.385618       -10.4932
  12   0.0000       0.042734         1.1628
  13   0.0000       0.058755         1.5988
  14   0.0000       0.075529         2.0553
  15   0.0000       0.078075         2.1245
  16   0.0000       0.113489         3.0882

MULLIKEN ATOMIC CHARGES
-----------------------
   0 O :   -0.379828
   1 C :   -0.185423
   2 C :   -0.160692
   3 H :    0.180793
   4 H :    0.180763
   5 H :    0.182211
   6 H :    0.182176
Sum of atomic charges:   -0.0000000

LOEWDIN ATOMIC CHARGES
----------------------
   0 O :   -0.030990
   1 C :    0.024920
   2 C :   -0.033019
   3 H :    0.007606
   4 H :    0.007607
   5 H :    0.011938
   6 H :    0.011939

  Mayer bond orders larger than 0.100000
B(  0-O ,  1-C ) :   0.8378 B(  0-O ,  2-C ) :   0.8159 B(  1-C ,  2-C ) :   0.8153
B(  1-C ,  3-H ) :   1.0120 B(  1-C ,  4-H ) :   1.0120 B(  2-C ,  5-H ) :   1.0207
B(  2-C ,  6-H ) :   1.0208

Dispersion correction           -0.005219544
FINAL SINGLE POINT ENERGY      -153.889151014727

DIPOLE MOMENT
-------------

Method             : SCF
Type of density    : Electron Density
Multiplicity       :   1
Irrep              :   0
Energy             :  -153.8839314706580410 Eh
Relativity type    :
Basis              : AO
                                X                 Y                 Z
Electronic contribution:     -0.006255507       1.650835536      -0.000041762
Nuclear contribution   :      0.024092872      -2.381682958       0.000065462
                        -----------------------------------------
Total Dipole Moment    :      0.017837365      -0.730847422       0.000023700
                        -----------------------------------------
Magnitude (a.u.)       :      0.731065063
Magnitude (Debye)      :      1.858219715

Rotational constants in cm-1:             0.876546             0.734018             0.476247
Rotational constants in MHz :         26278.192131         22005.318495         14277.529030

                             ****ORCA TERMINATED NORMALLY****
TOTAL RUN TIME: 0 days 0 hours 1 minutes 20 seconds 749 msec
