                         Program Version 6.0.0  -   RELEASE  -
|  1> ! Engrad def2-TZVPPD wB97M-D3BJ
|  2> %pal nprocs 8 end%pal nprocs 64 end
|  3> %tddft
|  4>  Iroot 1 Nroots 3
|  5> sf true
|  6> end
|  7> *xyz 0 3
|  8> O   1.1675093 0.84843977 0.45046803
|  9> C   0.16014761 -0.11572114 0.52829926
| 10> C   -0.15772139 -0.61149946 -0.81960192
| 11> H   -0.68497463 0.42182865 1.05588128
| 12> H   0.40823033 -0.94912845 1.23862983
| 13> H   -1.12665229 -0.41703133 -1.27754267
| 14> H   0.58420601 -0.92071308 -1.50144735
| 15> *
| 16>
| 17>                          ****END OF INPUT****

CARTESIAN COORDINATES (ANGSTROEM)
---------------------------------
  O      1.167509    0.848440    0.450468
  C      0.160148   -0.115721    0.528299
  C     -0.157721   -0.611499   -0.819602
  H     -0.684975    0.421829    1.055881
  H      0.408230   -0.949128    1.238630
  H     -1.126652   -0.417031   -1.277543
  H      0.584206   -0.920713   -1.501447

 Total Charge           Charge          ....    0
 Multiplicity           Mult            ....    3
 Number of Electrons    NEL             ....   24
 Basis Dimension        Dim             ....  182

ORBITAL ENERGIES
----------------
                 SPIN UP ORBITALS
  NO   OCC          E(Eh)            E(eV)
   0   1.0000     -19.390091      -527.6312
   1   1.0000     -10.418930      -283.5135
   2   1.0000     -10.361625      -281.9542
   3   1.0000      -1.161082       -31.5947
   4   1.0000      -0.875468       -23.8227
   5   1.0000      -0.737611       -20.0714
   6   1.0000      -0.612001       -16.6534
   7   1.0000      -0.581097       -15.8125
   8   1.0000      -0.555135       -15.1060
   9   1.0000      -0.514648       -14.0043
  10   1.0000      -0.437902       -11.9159
  11   1.0000      -0.418535       -11.3889
  12   1.0000      -0.323876        -8.8131
  13   0.0000       0.041478         1.1287
  14   0.0000       0.061538         1.6745
  15   0.0000       0.077884         2.1193
  16   0.0000       0.087179         2.3723
  17   0.0000       0.114762         3.1228

                 SPIN DOWN ORBITALS
  NO   OCC          E(Eh)            E(eV)
   0   1.0000     -19.365461      -526.9610
   1   1.0000     -10.420338      -283.5518
   2   1.0000     -10.348662      -281.6014
   3   1.0000      -1.105133       -30.0722
   4   1.0000      -0.842327       -22.9209
   5   1.0000      -0.712876       -19.3983
   6   1.0000      -0.577679       -15.7195
   7   1.0000      -0.552361       -15.0305
   8   1.0000      -0.530965       -14.4483
   9   1.0000      -0.480440       -13.0734
  10   1.0000      -0.385134       -10.4800
  11   0.0000      -0.054791        -1.4909
  12   0.0000       0.000130         0.0035
  13   0.0000       0.040404         1.0994
  14   0.0000       0.061856         1.6832
  15   0.0000       0.077690         2.1141

----------------------------------------------------------------------------------------------------
          SPIN FLIP ABSORPTION SPECTRUM VIA TRANSITION ELECTRIC DIPOLE MOMENTS
----------------------------------------------------------------------------------------------------
     Transition      Energy     Energy  Wavelength fosc(D2)      D2        DX        DY        DZ
                      (eV)      (cm-1)    (nm)                 (au**2)    (au)      (au)      (au)
----------------------------------------------------------------------------------------------------
  1-3A  ->  2-3A    0.305600    2464.8  4057.1   0.000251354   0.03357  -0.02774  -0.09543  -0.15393
  1-3A  ->  3-3A    1.068732    8619.9  1160.1   0.014909432   0.56942  -0.50157  -0.46576  -0.31767

Dispersion correction             ... done (  0.1 sec)

MULLIKEN ATOMIC CHARGES AND SPIN DENSITIES
------------------------------------------
   0 O :   -0.446607   -0.540858
   1 C :   -0.010681   -0.000041
   2 C :   -0.461995    0.381334
   3 H :    0.201822    0.008107
   4 H :    0.211897    0.071762
   5 H :    0.209188    0.037164
   6 H :    0.296377    0.042532
Sum of atomic charges       :   -0.0000000

LOEWDIN ATOMIC CHARGES AND SPIN DENSITIES
-----------------------------------------
   0 O :   -0.062248   -0.543160
   1 C :   -0.302865    0.046333
   2 C :    0.356737    0.378095
   3 H :    0.049968   -0.006749
   4 H :    0.034786    0.033249
   5 H :   -0.023405    0.043201
   6 H :   -0.052972    0.049031

  Mayer bond orders larger than 0.100000
B(  0-O ,  1-C ) :   0.8915 B(  0-O ,  2-C ) :   0.4348 B(  1-C ,  2-C ) :   0.8115
B(  1-C ,  3-H ) :   0.9612 B(  1-C ,  4-H ) :   0.9769 B(  2-C ,  5-H ) :   0.9663
B(  2-C ,  6-H ) :   0.9239

Dispersion correction           -0.005490138
FINAL SINGLE POINT ENERGY      -153.758948781147

DIPOLE MOMENT
-------------

Method             : TDA/CIS
Type of density    : Electron Density
Level              : Relaxed density
State              :   1
Multiplicity       :   3
Irrep              :   0
Energy             :     0.0000000000000000 Eh
Relativity type    :
Basis              : AO
                                X                 Y                 Z
Electronic contribution:      1.287871361       1.093580834       0.327152070
Nuclear contribution   :     -2.280613100      -1.990301199      -0.723231922
                        -----------------------------------------
Total Dipole Moment    :     -0.992741739      -0.896720366      -0.396079852
                        -----------------------------------------
Magnitude (a.u.)       :      1.395178420
Magnitude (Debye)      :      3.546261718

Rotational constants in cm-1:             1.314494             0.363329             0.313151
Rotational constants in MHz :         39407.551250         10892.316370          9388.033151

                             ****ORCA TERMINATED NORMALLY****
TOTAL RUN TIME: 0 days 0 hours 0 minutes 26 seconds 485 msec
