                         Program Version 6.0.0  -   RELEASE  -
|  1> ! Opt wB97M-D3BJ def2-TZVPPD
|  2> %pal nprocs 8 end %pal nprocs 64 end
|  3> %geom
|  4> Constraints
|  5>     {A 2 1 0 87.45762711864407 C }
|  6> end
|  7> MaxIter 200
|  8> end
|  9> *xyz 0 1
| 10> O   0.6862655261302899 1.0254878856986136 0.0
| 11> C   0.7509 -0.4065 0.0
| 12> C   -0.7502 -0.4076 0.0
| 13> H   1.2625 -0.6786 0.9136
| 14> H   1.2625 -0.6787 -0.9136
| 15> H   -1.2614 -0.6806 -0.9136
| 16> H   -1.2614 -0.6805 0.9136
| 17> *
| 18>
| 19>                          ****END OF INPUT****
 Total Charge           Charge          ....    0
 Multiplicity           Mult            ....    1
 Number of Electrons    NEL             ....   24
Dispersion correction           -0.005561824
FINAL SINGLE POINT ENERGY      -153.802155662555
Dispersion correction             ... done (  0.1 sec)
Dispersion correction           -0.005612897
FINAL SINGLE POINT ENERGY      -153.819578597430
Dispersion correction             ... done (  0.1 sec)
Dispersion correction           -0.005606775
FINAL SINGLE POINT ENERGY      -153.827349468043
Dispersion correction             ... done (  0.1 sec)
FINAL SINGLE POINT ENERGY      -153.831939520063
FINAL SINGLE POINT ENERGY      -153.832249744077
FINAL SINGLE POINT ENERGY      -153.832280284262
Dispersion correction             ... done (  0.1 sec)
Dispersion correction           -0.005609275
FINAL SINGLE POINT ENERGY      -153.832287763170
Dispersion correction             ... done (  0.1 sec)
Dispersion correction           -0.005608394
FINAL SINGLE POINT ENERGY      -153.832287895017
Dispersion correction             ... done (  0.1 sec)
                    ***********************HURRAY********************

CARTESIAN COORDINATES (ANGSTROEM)
---------------------------------
  O      0.484291    0.962149   -0.000314
  C      0.745132   -0.354537   -0.000032
  C     -0.660155   -0.568649    0.000109
  H      1.270629   -0.722652    0.889174
  H      1.270322   -0.723107   -0.889240
  H     -1.210604   -0.550253   -0.926987
  H     -1.210448   -0.549963    0.927290

 Multiplicity           Mult            ....    1
 Number of Electrons    NEL             ....   24
 Basis Dimension        Dim             ....  182

ORBITAL ENERGIES
----------------

  NO   OCC          E(Eh)            E(eV)
   0   2.0000     -19.339025      -526.2416
   1   2.0000     -10.427830      -283.7557
   2   2.0000     -10.396809      -282.9116
   3   2.0000      -1.148694       -31.2576
   4   2.0000      -0.863315       -23.4920
   5   2.0000      -0.735529       -20.0148
   6   2.0000      -0.625674       -17.0255
   7   2.0000      -0.581266       -15.8170
   8   2.0000      -0.513561       -13.9747
   9   2.0000      -0.505849       -13.7648
  10   2.0000      -0.389835       -10.6079
  11   2.0000      -0.364969        -9.9313
  12   0.0000      -0.008639        -0.2351
  13   0.0000       0.040871         1.1122
  14   0.0000       0.060764         1.6535
  15   0.0000       0.076647         2.0857
  16   0.0000       0.098544         2.6815

MULLIKEN ATOMIC CHARGES
-----------------------
   0 O :   -0.476288
   1 C :   -0.082828
   2 C :   -0.307906
   3 H :    0.216321
   4 H :    0.216319
   5 H :    0.217201
   6 H :    0.217181
Sum of atomic charges:    0.0000000

LOEWDIN ATOMIC CHARGES
----------------------
   0 O :   -0.018137
   1 C :   -0.335084
   2 C :    0.315978
   3 H :    0.024686
   4 H :    0.024681
   5 H :   -0.006061
   6 H :   -0.006065

  Mayer bond orders larger than 0.100000
B(  0-O ,  1-C ) :   0.6685 B(  0-O ,  2-C ) :   0.9476 B(  1-C ,  2-C ) :   0.7662
B(  1-C ,  3-H ) :   1.0494 B(  1-C ,  4-H ) :   1.0494 B(  2-C ,  5-H ) :   0.9644
B(  2-C ,  6-H ) :   0.9644

Dispersion correction           -0.005608197
FINAL SINGLE POINT ENERGY      -153.832288037241

DIPOLE MOMENT
-------------

Method             : SCF
Type of density    : Electron Density
Multiplicity       :   1
Irrep              :   0
Energy             :  -153.8266798398667277 Eh
Relativity type    :
Basis              : AO
                                X                 Y                 Z
Electronic contribution:      0.187359486       1.431559389      -0.000265929
Nuclear contribution   :     -0.640613602      -2.523041033       0.000547863
                        -----------------------------------------
Total Dipole Moment    :     -0.453254116      -1.091481643       0.000281934
                        -----------------------------------------
Magnitude (a.u.)       :      1.181850900
Magnitude (Debye)      :      3.004026255

Rotational constants in cm-1:             1.035247             0.522888             0.402626
Rotational constants in MHz :         31035.934692         15675.790888         12070.415544

                             ****ORCA TERMINATED NORMALLY****
TOTAL RUN TIME: 0 days 0 hours 1 minutes 57 seconds 433 msec
