                         Program Version 6.0.0  -   RELEASE  -
|  1> ! Opt wB97M-D3BJ def2-TZVPPD
|  2> %pal nprocs 8 end %pal nprocs 64 end
|  3> %geom
|  4> Constraints
|  5>     {A 2 1 0 78.30508474576271 C }
|  6> end
|  7> MaxIter 200
|  8> end
|  9> *xyz 0 1
| 10> O   0.4593114299681907 0.9969753385174979 0.0
| 11> C   0.7509 -0.4065 0.0
| 12> C   -0.7502 -0.4076 0.0
| 13> H   1.2625 -0.6786 0.9136
| 14> H   1.2625 -0.6787 -0.9136
| 15> H   -1.2614 -0.6806 -0.9136
| 16> H   -1.2614 -0.6805 0.9136
| 17> *
| 18>
| 19>                          ****END OF INPUT****
 Total Charge           Charge          ....    0
 Multiplicity           Mult            ....    1
 Number of Electrons    NEL             ....   24
Dispersion correction           -0.005410616
FINAL SINGLE POINT ENERGY      -153.834390819944
Dispersion correction             ... done (  0.1 sec)
Dispersion correction           -0.005330096
FINAL SINGLE POINT ENERGY      -153.848964802276
Dispersion correction             ... done (  0.1 sec)
Dispersion correction           -0.005298500
FINAL SINGLE POINT ENERGY      -153.854574985344
Dispersion correction             ... done (  0.1 sec)
FINAL SINGLE POINT ENERGY      -153.855949263724
FINAL SINGLE POINT ENERGY      -153.856244821671
FINAL SINGLE POINT ENERGY      -153.856289492648
Dispersion correction             ... done (  0.1 sec)
Dispersion correction           -0.005298524
FINAL SINGLE POINT ENERGY      -153.856308326027
Dispersion correction             ... done (  0.1 sec)
Dispersion correction           -0.005299205
FINAL SINGLE POINT ENERGY      -153.856310694737
Dispersion correction             ... done (  0.1 sec)
                    ***********************HURRAY********************

CARTESIAN COORDINATES (ANGSTROEM)
---------------------------------
  O      0.312059    0.912146   -0.000317
  C      0.731030   -0.373311   -0.000065
  C     -0.676585   -0.530143   -0.000079
  H      1.268218   -0.695987    0.895562
  H      1.268416   -0.696284   -0.895466
  H     -1.220844   -0.576584   -0.928015
  H     -1.220083   -0.575361    0.928380

 Multiplicity           Mult            ....    1
 Number of Electrons    NEL             ....   24
 Basis Dimension        Dim             ....  182

ORBITAL ENERGIES
----------------

  NO   OCC          E(Eh)            E(eV)
   0   2.0000     -19.344354      -526.3866
   1   2.0000     -10.415574      -283.4222
   2   2.0000     -10.396575      -282.9052
   3   2.0000      -1.166341       -31.7378
   4   2.0000      -0.845416       -23.0049
   5   2.0000      -0.739599       -20.1255
   6   2.0000      -0.627372       -17.0716
   7   2.0000      -0.587085       -15.9754
   8   2.0000      -0.505416       -13.7531
   9   2.0000      -0.499451       -13.5908
  10   2.0000      -0.407549       -11.0900
  11   2.0000      -0.372965       -10.1489
  12   0.0000       0.030013         0.8167
  13   0.0000       0.046612         1.2684
  14   0.0000       0.060893         1.6570
  15   0.0000       0.076852         2.0912
  16   0.0000       0.102770         2.7965

MULLIKEN ATOMIC CHARGES
-----------------------
   0 O :   -0.437063
   1 C :   -0.095499
   2 C :   -0.292396
   3 H :    0.206992
   4 H :    0.207025
   5 H :    0.205413
   6 H :    0.205528
Sum of atomic charges:   -0.0000000

LOEWDIN ATOMIC CHARGES
----------------------
   0 O :   -0.024438
   1 C :   -0.257367
   2 C :    0.237516
   3 H :    0.024437
   4 H :    0.024441
   5 H :   -0.002289
   6 H :   -0.002300

  Mayer bond orders larger than 0.100000
B(  0-O ,  1-C ) :   0.6916 B(  0-O ,  2-C ) :   0.9295 B(  1-C ,  2-C ) :   0.7794
B(  1-C ,  3-H ) :   1.0506 B(  1-C ,  4-H ) :   1.0504 B(  2-C ,  5-H ) :   0.9736
B(  2-C ,  6-H ) :   0.9736

Dispersion correction           -0.005299364
FINAL SINGLE POINT ENERGY      -153.856310944488

DIPOLE MOMENT
-------------

Method             : SCF
Type of density    : Electron Density
Multiplicity       :   1
Irrep              :   0
Energy             :  -153.8510115802142764 Eh
Relativity type    :
Basis              : AO
                                X                 Y                 Z
Electronic contribution:      0.117817769       1.496780695      -0.000789475
Nuclear contribution   :     -0.396750424      -2.474132403       0.000970524
                        -----------------------------------------
Total Dipole Moment    :     -0.278932655      -0.977351708       0.000181050
                        -----------------------------------------
Magnitude (a.u.)       :      1.016375826
Magnitude (Debye)      :      2.583422041

Rotational constants in cm-1:             0.950558             0.603782             0.432832
Rotational constants in MHz :         28497.020091         18100.917761         12975.965046

                             ****ORCA TERMINATED NORMALLY****
TOTAL RUN TIME: 0 days 0 hours 1 minutes 55 seconds 678 msec
