                         Program Version 6.0.0  -   RELEASE  -
|  1> ! Engrad def2-TZVPPD wB97M-D3BJ
|  2> %pal nprocs 8 end%pal nprocs 64 end
|  3>  %tddft nroots 2 Iroot 1
|  4> sf true
|  5> end
|  6> *xyz 0 3
|  7> O   2.15877510993491 0.06242199058778 -1.18489691523957
|  8> O   -0.36268759804439 2.55382216276361 -2.41798450433951
|  9> O   0.38989915601579 -3.72363493284621 0.51701787169303
| 10> O   -2.34958898273395 -1.21433534083905 -1.1541598936605
| 11> N   0.41268830157869 -1.89579309422249 1.86211859559998
| 12> N   -1.43912296452956 -0.15061038529992 0.6113207920852
| 13> N   1.10028277152819 -1.74761149244223 -0.35374677531903
| 14> N   -0.9806857403531 0.51395073711198 -1.62729788676894
| 15> C   1.11636303306345 0.33045508212857 0.93779693977364
| 16> C   -0.10674314418132 2.42486773255234 -0.24856173213
| 17> C   0.56755691538374 -0.49826829571881 2.05645238294016
| 18> C   -0.36763025006478 0.45016028249022 1.33258490844145
| 19> C   2.08874767563347 1.41697099258084 1.32698420415944
| 20> C   -1.1213083995001 3.30017977597558 0.36500016398916
| 21> C   1.50593709757108 -0.42756643826011 -0.29857238569071
| 22> C   -0.52551096516364 1.80224254117468 -1.46388532376774
| 23> C   0.60684154298693 -2.54686778603697 0.6772217622632
| 24> C   -1.62840463176677 -0.33722812873533 -0.73769364502121
| 25> H   0.8755396267088 -0.22467958833201 3.05369071404424
| 26> H   -0.60640333843949 1.35288208471962 1.87379798505288
| 27> H   2.35660692020461 2.0124892075139 0.4654359593797
| 28> H   1.64696665301367 2.06875693188275 2.07811359582236
| 29> H   2.98293004311999 0.9582627887879 1.7480936850786
| 30> H   -2.13003195162476 2.88370130063916 0.43329158962904
| 31> H   -0.80727743911594 3.73903549970511 1.30819300915444
| 32> H   -1.17536578700652 4.11261716016729 -0.37358863764894
| 33> H   0.01050097550585 -2.46091914288144 2.58799256514878
| 34> H   -1.94678797657553 -0.85996390356185 1.11604138049126
| 35> H   1.33629822406175 -2.25057426977152 -1.19475553768887
| 36> H   -1.15578487721113 0.27023652816657 -2.59140486747155
| 37> *
| 38>
| 39>                          ****END OF INPUT****

CARTESIAN COORDINATES (ANGSTROEM)
---------------------------------
  O      2.158775    0.062422   -1.184897
  O     -0.362688    2.553822   -2.417985
  O      0.389899   -3.723635    0.517018
  O     -2.349589   -1.214335   -1.154160
  N      0.412688   -1.895793    1.862119
  N     -1.439123   -0.150610    0.611321
  N      1.100283   -1.747611   -0.353747
  N     -0.980686    0.513951   -1.627298
  C      1.116363    0.330455    0.937797
  C     -0.106743    2.424868   -0.248562
  C      0.567557   -0.498268    2.056452
  C     -0.367630    0.450160    1.332585
  C      2.088748    1.416971    1.326984
  C     -1.121308    3.300180    0.365000
  C      1.505937   -0.427566   -0.298572
  C     -0.525511    1.802243   -1.463885
  C      0.606842   -2.546868    0.677222
  C     -1.628405   -0.337228   -0.737694
  H      0.875540   -0.224680    3.053691
  H     -0.606403    1.352882    1.873798
  H      2.356607    2.012489    0.465436
  H      1.646967    2.068757    2.078114
  H      2.982930    0.958263    1.748094
  H     -2.130032    2.883701    0.433292
  H     -0.807277    3.739035    1.308193
  H     -1.175366    4.112617   -0.373589
  H      0.010501   -2.460919    2.587993
  H     -1.946788   -0.859964    1.116041
  H      1.336298   -2.250574   -1.194756
  H     -1.155785    0.270237   -2.591405

 Total Charge           Charge          ....    0
 Multiplicity           Mult            ....    3
 Number of Electrons    NEL             ....  132
 Basis Dimension        Dim             ....  882

ORBITAL ENERGIES
----------------
                 SPIN UP ORBITALS
  NO   OCC          E(Eh)            E(eV)
   0   1.0000     -19.337835      -526.2092
   1   1.0000     -19.333778      -526.0989
   2   1.0000     -19.322186      -525.7834
   3   1.0000     -19.320884      -525.7480
   4   1.0000     -14.568662      -396.4334
   5   1.0000     -14.567504      -396.4019
   6   1.0000     -14.566893      -396.3853
   7   1.0000     -14.563845      -396.3024
   8   1.0000     -10.510469      -286.0044
   9   1.0000     -10.508578      -285.9529
  10   1.0000     -10.492634      -285.5191
  11   1.0000     -10.480816      -285.1975
  12   1.0000     -10.437253      -284.0121
  13   1.0000     -10.435398      -283.9616
  14   1.0000     -10.416736      -283.4538
  15   1.0000     -10.396437      -282.9014
  16   1.0000     -10.373128      -282.2672
  17   1.0000     -10.368747      -282.1480
  18   1.0000      -1.227439       -33.4003
  19   1.0000      -1.220287       -33.2057
  20   1.0000      -1.204478       -32.7755
  21   1.0000      -1.199180       -32.6314
  22   1.0000      -1.129707       -30.7409
  23   1.0000      -1.091382       -29.6980
  24   1.0000      -1.074637       -29.2424
  25   1.0000      -1.063508       -28.9395
  26   1.0000      -1.013253       -27.5720
  27   1.0000      -0.937411       -25.5082
  28   1.0000      -0.881527       -23.9876
  29   1.0000      -0.823326       -22.4039
  30   1.0000      -0.818072       -22.2609
  31   1.0000      -0.809607       -22.0305
  32   1.0000      -0.791874       -21.5480
  33   1.0000      -0.775523       -21.1030
  34   1.0000      -0.727607       -19.7992
  35   1.0000      -0.702350       -19.1119
  36   1.0000      -0.695569       -18.9274
  37   1.0000      -0.666354       -18.1324
  38   1.0000      -0.642477       -17.4827
  39   1.0000      -0.630863       -17.1667
  40   1.0000      -0.614396       -16.7186
  41   1.0000      -0.610205       -16.6045
  42   1.0000      -0.598215       -16.2782
  43   1.0000      -0.590291       -16.0626
  44   1.0000      -0.579987       -15.7822
  45   1.0000      -0.569240       -15.4898
  46   1.0000      -0.564742       -15.3674
  47   1.0000      -0.562596       -15.3090
  48   1.0000      -0.555277       -15.1099
  49   1.0000      -0.553741       -15.0681
  50   1.0000      -0.544744       -14.8233
  51   1.0000      -0.541425       -14.7329
  52   1.0000      -0.536317       -14.5939
  53   1.0000      -0.512717       -13.9517
  54   1.0000      -0.505711       -13.7611
  55   1.0000      -0.481909       -13.1134
  56   1.0000      -0.450471       -12.2579
  57   1.0000      -0.427915       -11.6442
  58   1.0000      -0.419387       -11.4121
  59   1.0000      -0.410269       -11.1640
  60   1.0000      -0.403517       -10.9802
  61   1.0000      -0.400120       -10.8878
  62   1.0000      -0.395135       -10.7522
  63   1.0000      -0.390024       -10.6131
  64   1.0000      -0.383935       -10.4474
  65   1.0000      -0.370997       -10.0953
  66   1.0000      -0.297080        -8.0840
  67   0.0000       0.009393         0.2556
  68   0.0000       0.029787         0.8105
  69   0.0000       0.032252         0.8776
  70   0.0000       0.036797         1.0013
  71   0.0000       0.045817         1.2467

                 SPIN DOWN ORBITALS
  NO   OCC          E(Eh)            E(eV)
   0   1.0000     -19.337796      -526.2082
   1   1.0000     -19.328231      -525.9479
   2   1.0000     -19.322224      -525.7844
   3   1.0000     -19.320881      -525.7479
   4   1.0000     -14.568619      -396.4323
   5   1.0000     -14.567412      -396.3994
   6   1.0000     -14.566786      -396.3824
   7   1.0000     -14.563823      -396.3018
   8   1.0000     -10.510487      -286.0049
   9   1.0000     -10.508582      -285.9530
  10   1.0000     -10.492653      -285.5196
  11   1.0000     -10.481388      -285.2131
  12   1.0000     -10.436943      -284.0037
  13   1.0000     -10.435031      -283.9516
  14   1.0000     -10.416082      -283.4360
  15   1.0000     -10.373419      -282.2751
  16   1.0000     -10.368742      -282.1478
  17   1.0000     -10.368490      -282.1410
  18   1.0000      -1.227130       -33.3919
  19   1.0000      -1.219186       -33.1757
  20   1.0000      -1.204370       -32.7726
  21   1.0000      -1.191202       -32.4142
  22   1.0000      -1.129149       -30.7257
  23   1.0000      -1.090528       -29.6748
  24   1.0000      -1.073487       -29.2111
  25   1.0000      -1.062870       -28.9222
  26   1.0000      -1.011970       -27.5371
  27   1.0000      -0.908905       -24.7326
  28   1.0000      -0.880537       -23.9606
  29   1.0000      -0.822606       -22.3842
  30   1.0000      -0.814323       -22.1589
  31   1.0000      -0.803845       -21.8737
  32   1.0000      -0.788332       -21.4516
  33   1.0000      -0.770506       -20.9665
  34   1.0000      -0.722661       -19.6646
  35   1.0000      -0.700254       -19.0549
  36   1.0000      -0.687127       -18.6977
  37   1.0000      -0.665299       -18.1037
  38   1.0000      -0.635631       -17.2964
  39   1.0000      -0.626801       -17.0561
  40   1.0000      -0.612146       -16.6573
  41   1.0000      -0.606943       -16.5158
  42   1.0000      -0.588912       -16.0251
  43   1.0000      -0.580553       -15.7976
  44   1.0000      -0.575991       -15.6735
  45   1.0000      -0.563042       -15.3212
  46   1.0000      -0.560239       -15.2449
  47   1.0000      -0.553509       -15.0618
  48   1.0000      -0.551864       -15.0170
  49   1.0000      -0.551550       -15.0084
  50   1.0000      -0.540093       -14.6967
  51   1.0000      -0.531868       -14.4729
  52   1.0000      -0.526856       -14.3365
  53   1.0000      -0.511647       -13.9226
  54   1.0000      -0.493725       -13.4349
  55   1.0000      -0.480595       -13.0776
  56   1.0000      -0.442038       -12.0285
  57   1.0000      -0.422007       -11.4834
  58   1.0000      -0.418219       -11.3803
  59   1.0000      -0.406385       -11.0583
  60   1.0000      -0.399172       -10.8620
  61   1.0000      -0.393027       -10.6948
  62   1.0000      -0.388214       -10.5638
  63   1.0000      -0.381454       -10.3799
  64   1.0000      -0.369629       -10.0581
  65   0.0000      -0.052647        -1.4326
  66   0.0000       0.008860         0.2411
  67   0.0000       0.025424         0.6918
  68   0.0000       0.031879         0.8675
  69   0.0000       0.035645         0.9700

----------------------------------------------------------------------------------------------------
          SPIN FLIP ABSORPTION SPECTRUM VIA TRANSITION ELECTRIC DIPOLE MOMENTS
----------------------------------------------------------------------------------------------------
     Transition      Energy     Energy  Wavelength fosc(D2)      D2        DX        DY        DZ
                      (eV)      (cm-1)    (nm)                 (au**2)    (au)      (au)      (au)
----------------------------------------------------------------------------------------------------
  1-3A  ->  2-3A    2.043299   16480.3   606.8   0.000309793   0.00619  -0.02831  -0.04978   0.05393

Dispersion correction             ... done (  0.1 sec)

MULLIKEN ATOMIC CHARGES AND SPIN DENSITIES
------------------------------------------
   0 O :   -0.628198   -0.001667
   1 O :   -0.642253   -0.030285
   2 O :   -0.648171   -0.000056
   3 O :   -0.663139   -0.000225
   4 N :   -0.129939    0.000384
   5 N :   -0.091236   -0.001393
   6 N :    0.009975    0.000585
   7 N :    0.067097   -0.005857
   8 C :    1.967210   -0.105213
   9 C :    0.296507    0.116400
  10 C :   -0.396761   -0.012927
  11 C :   -0.861937   -0.029947
  12 C :   -1.516934    0.085072
  13 C :   -1.188768    0.132491
  14 C :   -0.089353   -0.010428
  15 C :    0.417902   -0.128484
  16 C :    0.454902    0.001196
  17 C :    0.576706    0.005317
  18 H :    0.242896    0.001839
  19 H :    0.441810    0.025253
  20 H :    0.359765   -0.027715
  21 H :    0.320607   -0.003589
  22 H :    0.454569   -0.016440
  23 H :    0.336003   -0.005268
  24 H :    0.317737    0.014564
  25 H :    0.402340   -0.008477
  26 H :    0.035245   -0.000199
  27 H :    0.093137   -0.000098
  28 H :    0.037431   -0.000196
  29 H :    0.024849    0.005363
Sum of atomic charges       :   -0.0000000

LOEWDIN ATOMIC CHARGES AND SPIN DENSITIES
-----------------------------------------
   0 O :    0.126640   -0.001089
   1 O :    0.097319   -0.033330
   2 O :    0.097279    0.000013
   3 O :    0.096516   -0.000353
   4 N :    0.290311    0.000069
   5 N :    0.288909    0.000221
   6 N :    0.344568   -0.000071
   7 N :    0.335891    0.000100
   8 C :   -0.223040   -0.000358
   9 C :    0.164839    0.055107
  10 C :   -0.046951    0.000457
  11 C :   -0.074548    0.000118
  12 C :    0.183112   -0.007834
  13 C :    0.115007    0.001739
  14 C :   -0.371215   -0.000305
  15 C :   -0.509404   -0.008850
  16 C :   -0.474473    0.000016
  17 C :   -0.475690   -0.000259
  18 H :    0.056182    0.000022
  19 H :    0.024518    0.000115
  20 H :   -0.017349   -0.003574
  21 H :    0.003794   -0.000498
  22 H :    0.009929   -0.001486
  23 H :    0.005695    0.000380
  24 H :   -0.012354   -0.000159
  25 H :    0.023293   -0.000168
  26 H :   -0.024399   -0.000009
  27 H :   -0.026073   -0.000030
  28 H :   -0.004031   -0.000000
  29 H :   -0.004274    0.000016

  Mayer bond orders larger than 0.100000
B(  0-O ,  8-C ) :  -0.1799 B(  0-O , 14-C ) :   1.6468 B(  1-O ,  9-C ) :   0.3015
B(  1-O , 15-C ) :   1.1547 B(  2-O , 16-C ) :   1.5710 B(  3-O , 17-C ) :   1.4743
B(  4-N , 10-C ) :   0.6547 B(  4-N , 16-C ) :   1.0986 B(  4-N , 26-H ) :   1.1249
B(  5-N , 11-C ) :   0.7367 B(  5-N , 17-C ) :   0.9313 B(  5-N , 19-H ) :  -0.1263
B(  5-N , 27-H ) :   1.0617 B(  6-N , 14-C ) :   1.0570 B(  6-N , 16-C ) :   0.9416
B(  6-N , 28-H ) :   1.1069 B(  7-N , 15-C ) :   0.9530 B(  7-N , 17-C ) :   0.9782
B(  7-N , 29-H ) :   1.1129 B(  8-C ,  9-C ) :   0.2314 B(  8-C , 10-C ) :   0.4710
B(  8-C , 11-C ) :  -0.1324 B(  8-C , 12-C ) :   0.2112 B(  8-C , 14-C ) :   0.1420
B(  8-C , 21-H ) :  -0.1176 B(  9-C , 11-C ) :  -0.1517 B(  9-C , 12-C ) :  -0.3521
B(  9-C , 13-C ) :   0.5159 B(  9-C , 15-C ) :   0.9127 B(  9-C , 20-H ) :  -0.1524
B( 10-C , 11-C ) :   0.6342 B( 10-C , 12-C ) :  -0.1375 B( 10-C , 16-C ) :  -0.1133
B( 10-C , 18-H ) :   1.1629 B( 11-C , 15-C ) :   0.1039 B( 11-C , 19-H ) :   1.0644
B( 12-C , 14-C ) :   0.1089 B( 12-C , 20-H ) :   0.9960 B( 12-C , 21-H ) :   1.0540
B( 12-C , 22-H ) :   0.7225 B( 13-C , 23-H ) :   0.9576 B( 13-C , 24-H ) :   1.0290
B( 13-C , 25-H ) :   0.8540 B( 15-C , 17-C ) :  -0.1409

Dispersion correction           -0.059466462
FINAL SINGLE POINT ENERGY      -908.735833526590

DIPOLE MOMENT
-------------

Method             : TDA/CIS
Type of density    : Electron Density
Level              : Relaxed density
State              :   1
Multiplicity       :   3
Irrep              :   0
Energy             :     0.0000000000000000 Eh
Relativity type    :
Basis              : AO
                                X                 Y                 Z
Electronic contribution:     -1.085203808      -9.885836146      -7.242527204
Nuclear contribution   :      0.766571739      10.847916514       9.927575835
                        -----------------------------------------
Total Dipole Moment    :     -0.318632069       0.962080368       2.685048632
                        -----------------------------------------
Magnitude (a.u.)       :      2.869949683
Magnitude (Debye)      :      7.294832365

Rotational constants in cm-1:             0.022525             0.013611             0.011993
Rotational constants in MHz :           675.268967           408.040923           359.552178

                             ****ORCA TERMINATED NORMALLY****
TOTAL RUN TIME: 0 days 0 hours 4 minutes 52 seconds 53 msec
