                         Program Version 6.0.0  -   RELEASE  -
|  1> ! EnGrad wB97M-D3BJ def2-TZVPPD
|  2> %pal nprocs 8 end%pal nprocs 16 end
|  3> %tddft
|  4>  sf true
|  5>  nroots 2 Iroot 1 end
|  6> *xyz 0 3
|  7> O   0.49431985671645 1.09692239228989 -0.00250852246792
|  8> C   0.60172921163147 -0.23942271194348 -0.00045474753711
|  9> C   -0.75040551220503 -0.75734514760562 0.00112991051326
| 10> H   1.14811907960449 -0.61902503256131 0.87854045605398
| 11> H   1.14645831311969 -0.6217774420315 -0.87931041580561
| 12> H   -1.3191496384691 -0.79131455334272 -0.92036500931963
| 13> H   -1.31887131039797 -0.78643750480525 0.92296832856301
| 14> *
| 15>
| 16>                          ****END OF INPUT****

CARTESIAN COORDINATES (ANGSTROEM)
---------------------------------
  O      0.494320    1.096922   -0.002509
  C      0.601729   -0.239423   -0.000455
  C     -0.750406   -0.757345    0.001130
  H      1.148119   -0.619025    0.878540
  H      1.146458   -0.621777   -0.879310
  H     -1.319150   -0.791315   -0.920365
  H     -1.318871   -0.786438    0.922968

 Total Charge           Charge          ....    0
 Multiplicity           Mult            ....    3
 Number of Electrons    NEL             ....   24
 Basis Dimension        Dim             ....  182

ORBITAL ENERGIES
----------------
                 SPIN UP ORBITALS
  NO   OCC          E(Eh)            E(eV)
   0   1.0000     -19.392940      -527.7087
   1   1.0000     -10.407715      -283.2083
   2   1.0000     -10.355527      -281.7882
   3   1.0000      -1.187556       -32.3150
   4   1.0000      -0.877874       -23.8882
   5   1.0000      -0.734127       -19.9766
   6   1.0000      -0.631976       -17.1970
   7   1.0000      -0.589685       -16.0461
   8   1.0000      -0.557381       -15.1671
   9   1.0000      -0.517458       -14.0808
  10   1.0000      -0.435722       -11.8566
  11   1.0000      -0.419272       -11.4090
  12   1.0000      -0.320048        -8.7089
  13   0.0000       0.041021         1.1162
  14   0.0000       0.063082         1.7166
  15   0.0000       0.074110         2.0166
  16   0.0000       0.087346         2.3768
  17   0.0000       0.116849         3.1796

                 SPIN DOWN ORBITALS
  NO   OCC          E(Eh)            E(eV)
   0   1.0000     -19.367739      -527.0230
   1   1.0000     -10.409057      -283.2449
   2   1.0000     -10.342646      -281.4377
   3   1.0000      -1.132185       -30.8083
   4   1.0000      -0.844377       -22.9767
   5   1.0000      -0.709691       -19.3117
   6   1.0000      -0.594184       -16.1686
   7   1.0000      -0.557857       -15.1801
   8   1.0000      -0.535334       -14.5672
   9   1.0000      -0.478956       -13.0330
  10   1.0000      -0.383031       -10.4228
  11   0.0000      -0.063067        -1.7161
  12   0.0000       0.003740         0.1018
  13   0.0000       0.039976         1.0878
  14   0.0000       0.063681         1.7328
  15   0.0000       0.073761         2.0071

----------------------------------------------------------------------------------------------------
          SPIN FLIP ABSORPTION SPECTRUM VIA TRANSITION ELECTRIC DIPOLE MOMENTS
----------------------------------------------------------------------------------------------------
     Transition      Energy     Energy  Wavelength fosc(D2)      D2        DX        DY        DZ
                      (eV)      (cm-1)    (nm)                 (au**2)    (au)      (au)      (au)
----------------------------------------------------------------------------------------------------
  1-3A  ->  2-3A    0.729502    5883.8  1699.6   0.000084087   0.00470   0.00016  -0.00010  -0.06859

Dispersion correction             ... done (  0.0 sec)

MULLIKEN ATOMIC CHARGES AND SPIN DENSITIES
------------------------------------------
   0 O :   -0.498084   -0.482585
   1 C :   -0.103573   -0.038790
   2 C :   -0.335549    0.355065
   3 H :    0.220382    0.044087
   4 H :    0.220275    0.043987
   5 H :    0.248215    0.039110
   6 H :    0.248335    0.039126
Sum of atomic charges       :    0.0000000

LOEWDIN ATOMIC CHARGES AND SPIN DENSITIES
-----------------------------------------
   0 O :   -0.034323   -0.483474
   1 C :   -0.386220    0.030741
   2 C :    0.387974    0.354438
   3 H :    0.027112    0.008890
   4 H :    0.027106    0.008814
   5 H :   -0.010819    0.040294
   6 H :   -0.010830    0.040297

  Mayer bond orders larger than 0.100000
B(  0-O ,  1-C ) :   0.8372 B(  0-O ,  2-C ) :   0.6142 B(  1-C ,  2-C ) :   0.7509
B(  1-C ,  3-H ) :   1.0156 B(  1-C ,  4-H ) :   1.0155 B(  2-C ,  5-H ) :   0.9442
B(  2-C ,  6-H ) :   0.9442

Dispersion correction           -0.005615667
FINAL SINGLE POINT ENERGY      -153.771763895096

DIPOLE MOMENT
-------------

Method             : TDA/CIS
Type of density    : Electron Density
Level              : Relaxed density
State              :   1
Multiplicity       :   3
Irrep              :   0
Energy             :     0.0000000000000000 Eh
Relativity type    :
Basis              : AO
                                X                 Y                 Z
Electronic contribution:      0.214151084       1.432745035      -0.001818086
Nuclear contribution   :     -0.808932586      -2.862098983       0.004263661
                        -----------------------------------------
Total Dipole Moment    :     -0.594781502      -1.429353948       0.002445575
                        -----------------------------------------
Magnitude (a.u.)       :      1.548167861
Magnitude (Debye)      :      3.935129972

Rotational constants in cm-1:             1.281136             0.396690             0.343233
Rotational constants in MHz :         38407.486147         11892.455997         10289.861546

                             ****ORCA TERMINATED NORMALLY****
TOTAL RUN TIME: 0 days 0 hours 0 minutes 16 seconds 350 msec
