                         Program Version 6.0.0  -   RELEASE  -
|  1> ! Engrad def2-TZVPPD wB97M-D3BJ
|  2> %pal nprocs 8 end%pal nprocs 32 end
|  3> %tddft Nroots 2 Iroot 2
|  4> sf true
|  5> end
|  6> *xyz 0 3
|  7> O   0.75880175 1.37081039 -0.4859805
|  8> C   0.35993002 0.408031 0.38720787
|  9> C   -0.2290876 -0.97765957 0.11430266
| 10> H   0.3995695 0.7741828 1.38899362
| 11> H   0.3902846 -1.71500331 -0.48710488
| 12> H   -1.15660584 -0.96519621 -0.44378087
| 13> H   -0.47731722 -1.50187671 1.06665944
| 14> *
| 15>
| 16>                          ****END OF INPUT****

CARTESIAN COORDINATES (ANGSTROEM)
---------------------------------
  O      0.758802    1.370810   -0.485980
  C      0.359930    0.408031    0.387208
  C     -0.229088   -0.977660    0.114303
  H      0.399570    0.774183    1.388994
  H      0.390285   -1.715003   -0.487105
  H     -1.156606   -0.965196   -0.443781
  H     -0.477317   -1.501877    1.066659

 Total Charge           Charge          ....    0
 Multiplicity           Mult            ....    3
 Number of Electrons    NEL             ....   24
 Basis Dimension        Dim             ....  182

ORBITAL ENERGIES
----------------
                 SPIN UP ORBITALS
  NO   OCC          E(Eh)            E(eV)
   0   1.0000     -19.427945      -528.6613
   1   1.0000     -10.404065      -283.1090
   2   1.0000     -10.373981      -282.2904
   3   1.0000      -1.189127       -32.3578
   4   1.0000      -0.874841       -23.8056
   5   1.0000      -0.731537       -19.9061
   6   1.0000      -0.609696       -16.5907
   7   1.0000      -0.576354       -15.6834
   8   1.0000      -0.551822       -15.0158
   9   1.0000      -0.502163       -13.6646
  10   1.0000      -0.498098       -13.5539
  11   1.0000      -0.461805       -12.5664
  12   1.0000      -0.264692        -7.2026
  13   0.0000       0.040039         1.0895
  14   0.0000       0.058639         1.5957
  15   0.0000       0.080548         2.1918
  16   0.0000       0.090442         2.4610
  17   0.0000       0.105371         2.8673

                 SPIN DOWN ORBITALS
  NO   OCC          E(Eh)            E(eV)
   0   1.0000     -19.399311      -527.8821
   1   1.0000     -10.392220      -282.7867
   2   1.0000     -10.373496      -282.2772
   3   1.0000      -1.120410       -30.4879
   4   1.0000      -0.858156       -23.3516
   5   1.0000      -0.692156       -18.8345
   6   1.0000      -0.566716       -15.4211
   7   1.0000      -0.529752       -14.4153
   8   1.0000      -0.518164       -14.1000
   9   1.0000      -0.488751       -13.2996
  10   1.0000      -0.451190       -12.2775
  11   0.0000      -0.078127        -2.1259
  12   0.0000       0.040434         1.1003
  13   0.0000       0.048374         1.3163
  14   0.0000       0.059292         1.6134
  15   0.0000       0.080850         2.2000

----------------------------------------------------------------------------------------------------
          SPIN FLIP ABSORPTION SPECTRUM VIA TRANSITION ELECTRIC DIPOLE MOMENTS
----------------------------------------------------------------------------------------------------
     Transition      Energy     Energy  Wavelength fosc(D2)      D2        DX        DY        DZ
                      (eV)      (cm-1)    (nm)                 (au**2)    (au)      (au)      (au)
----------------------------------------------------------------------------------------------------
  1-3A  ->  2-3A    3.207472   25870.0   386.5   0.000045378   0.00058   0.01694  -0.01687   0.00241

Dispersion correction             ... done (  0.1 sec)

MULLIKEN ATOMIC CHARGES AND SPIN DENSITIES
------------------------------------------
   0 O :   -0.243824    0.811097
   1 C :    0.263115   -0.649797
   2 C :   -0.703695    0.013770
   3 H :    0.081765   -0.061793
   4 H :    0.190954   -0.044865
   5 H :    0.198659   -0.056368
   6 H :    0.213026   -0.012044
Sum of atomic charges       :    0.0000000

LOEWDIN ATOMIC CHARGES AND SPIN DENSITIES
-----------------------------------------
   0 O :    0.092145    0.636989
   1 C :   -0.100609   -0.486570
   2 C :    0.092442   -0.068242
   3 H :   -0.050412   -0.042553
   4 H :    0.006785   -0.021661
   5 H :   -0.039076   -0.021845
   6 H :   -0.001276    0.003882

  Mayer bond orders larger than 0.100000
B(  0-O ,  1-C ) :   1.0505 B(  1-C ,  2-C ) :   0.8441 B(  1-C ,  3-H ) :   1.0229
B(  2-C ,  4-H ) :   0.9908 B(  2-C ,  5-H ) :   0.9790 B(  2-C ,  6-H ) :   0.9719

Dispersion correction           -0.005290025
FINAL SINGLE POINT ENERGY      -153.760909984495

DIPOLE MOMENT
-------------

Method             : TDA/CIS
Type of density    : Electron Density
Level              : Relaxed density
State              :   2
Multiplicity       :   3
Irrep              :   0
Energy             :     0.0000000000000000 Eh
Relativity type    :
Basis              : AO
                                X                 Y                 Z
Electronic contribution:      1.581464825       3.688535484      -1.194522933
Nuclear contribution   :     -1.880542777      -4.173657689       1.441665866
                        -----------------------------------------
Total Dipole Moment    :     -0.299077952      -0.485122204       0.247142933
                        -----------------------------------------
Magnitude (a.u.)       :      0.621185000
Magnitude (Debye)      :      1.578926790

Rotational constants in cm-1:             1.956911             0.286117             0.261143
Rotational constants in MHz :         58666.702809          8577.563166          7828.868357

                             ****ORCA TERMINATED NORMALLY****
TOTAL RUN TIME: 0 days 0 hours 0 minutes 16 seconds 537 msec
