                         Program Version 6.0.0  -   RELEASE  -
|  1> ! Engrad def2-TZVPPD wB97M-D3BJ
|  2> %pal nprocs 8 end%pal nprocs 64 end
|  3> %tddft
|  4>  Iroot 2 Nroots 3
|  5> sf true
|  6> end
|  7> *xyz 0 3
|  8> O   0.62093624 -0.64549925 1.00972739
|  9> C   0.51918233 -0.22204464 -0.34374321
| 10> C   0.03176072 1.14622331 -0.50029576
| 11> H   -0.23397557 -1.01175128 -0.83702498
| 12> H   1.45528186 -0.23887121 -0.77702294
| 13> H   0.62017723 1.86498949 -0.90726946
| 14> H   -0.99701476 1.36856034 -0.31559833
| 15> *
| 16>
| 17>                          ****END OF INPUT****

CARTESIAN COORDINATES (ANGSTROEM)
---------------------------------
  O      0.620936   -0.645499    1.009727
  C      0.519182   -0.222045   -0.343743
  C      0.031761    1.146223   -0.500296
  H     -0.233976   -1.011751   -0.837025
  H      1.455282   -0.238871   -0.777023
  H      0.620177    1.864989   -0.907269
  H     -0.997015    1.368560   -0.315598

 Total Charge           Charge          ....    0
 Multiplicity           Mult            ....    3
 Number of Electrons    NEL             ....   24
 Basis Dimension        Dim             ....  182

ORBITAL ENERGIES
----------------
                 SPIN UP ORBITALS
  NO   OCC          E(Eh)            E(eV)
   0   1.0000     -19.389638      -527.6189
   1   1.0000     -10.412233      -283.3313
   2   1.0000     -10.360516      -281.9240
   3   1.0000      -1.150789       -31.3146
   4   1.0000      -0.889714       -24.2104
   5   1.0000      -0.734417       -19.9845
   6   1.0000      -0.624052       -16.9813
   7   1.0000      -0.576422       -15.6852
   8   1.0000      -0.549370       -14.9491
   9   1.0000      -0.523011       -14.2319
  10   1.0000      -0.443926       -12.0798
  11   1.0000      -0.413309       -11.2467
  12   1.0000      -0.332114        -9.0373
  13   0.0000       0.041410         1.1268
  14   0.0000       0.062245         1.6938
  15   0.0000       0.076050         2.0694
  16   0.0000       0.088934         2.4200
  17   0.0000       0.114768         3.1230

                 SPIN DOWN ORBITALS
  NO   OCC          E(Eh)            E(eV)
   0   1.0000     -19.364368      -526.9312
   1   1.0000     -10.413908      -283.3768
   2   1.0000     -10.347627      -281.5732
   3   1.0000      -1.092311       -29.7233
   4   1.0000      -0.856962       -23.3191
   5   1.0000      -0.710187       -19.3252
   6   1.0000      -0.601734       -16.3740
   7   1.0000      -0.539808       -14.6889
   8   1.0000      -0.517505       -14.0820
   9   1.0000      -0.496373       -13.5070
  10   1.0000      -0.383004       -10.4221
  11   0.0000      -0.052117        -1.4182
  12   0.0000      -0.009290        -0.2528
  13   0.0000       0.040822         1.1108
  14   0.0000       0.061889         1.6841
  15   0.0000       0.075838         2.0637

----------------------------------------------------------------------------------------------------
          SPIN FLIP ABSORPTION SPECTRUM VIA TRANSITION ELECTRIC DIPOLE MOMENTS
----------------------------------------------------------------------------------------------------
     Transition      Energy     Energy  Wavelength fosc(D2)      D2        DX        DY        DZ
                      (eV)      (cm-1)    (nm)                 (au**2)    (au)      (au)      (au)
----------------------------------------------------------------------------------------------------
  1-3A  ->  2-3A    0.090160     727.2  13751.6   0.000053757   0.02434  -0.03584  -0.14463   0.04619
  1-3A  ->  3-1A    0.994431    8020.6  1246.8   0.024040748   0.98677   0.26624  -0.72897   0.62007

Dispersion correction             ... done (  0.1 sec)

MULLIKEN ATOMIC CHARGES AND SPIN DENSITIES
------------------------------------------
   0 O :   -0.322025    0.466734
   1 C :   -0.155078    0.029503
   2 C :   -0.263162   -0.448831
   3 H :    0.211698    0.026674
   4 H :    0.215629    0.017221
   5 H :    0.179008   -0.026426
   6 H :    0.133929   -0.064875
Sum of atomic charges       :    0.0000000

LOEWDIN ATOMIC CHARGES AND SPIN DENSITIES
-----------------------------------------
   0 O :    0.021785    0.439626
   1 C :   -0.216808   -0.006280
   2 C :    0.310898   -0.363082
   3 H :    0.097396    0.022610
   4 H :   -0.031669    0.015917
   5 H :   -0.119509   -0.061065
   6 H :   -0.062093   -0.047727

  Mayer bond orders larger than 0.100000
B(  0-O ,  1-C ) :   0.9160 B(  1-C ,  2-C ) :   0.8506 B(  1-C ,  3-H ) :   0.9311
B(  1-C ,  4-H ) :   0.9655 B(  2-C ,  5-H ) :   0.9976 B(  2-C ,  6-H ) :   1.0158

Dispersion correction           -0.005535734
FINAL SINGLE POINT ENERGY      -153.739344777268

DIPOLE MOMENT
-------------

Method             : TDA/CIS
Type of density    : Electron Density
Level              : Relaxed density
State              :   2
Multiplicity       :   3
Irrep              :   0
Energy             :     0.0000000000000000 Eh
Relativity type    :
Basis              : AO
                                X                 Y                 Z
Electronic contribution:      0.642184083      -1.381938114       2.094768145
Nuclear contribution   :     -0.686889839       1.613743234      -2.916609499
                        -----------------------------------------
Total Dipole Moment    :     -0.044705756       0.231805119      -0.821841354
                        -----------------------------------------
Magnitude (a.u.)       :      0.855076271
Magnitude (Debye)      :      2.173431154

Rotational constants in cm-1:             1.447895             0.339110             0.305951
Rotational constants in MHz :         43406.805006         10166.271596          9172.188149

                             ****ORCA TERMINATED NORMALLY****
TOTAL RUN TIME: 0 days 0 hours 0 minutes 27 seconds 317 msec
