                         Program Version 6.0.0  -   RELEASE  -
|  1> ! Opt wB97M-D3BJ def2-TZVPPD
|  2> %pal nprocs 8 end %pal nprocs 64 end
|  3> %geom
|  4> Constraints
|  5>     {A 2 1 0 102.71186440677965 C }
|  6> end
|  7> MaxIter 200
|  8> end
|  9> *xyz 0 1
| 10> O   1.0653024210628241 0.9920413964662739 0.0
| 11> C   0.7509 -0.4065 0.0
| 12> C   -0.7502 -0.4076 0.0
| 13> H   1.2625 -0.6786 0.9136
| 14> H   1.2625 -0.6787 -0.9136
| 15> H   -1.2614 -0.6806 -0.9136
| 16> H   -1.2614 -0.6805 0.9136
| 17> *
| 18>
| 19>                          ****END OF INPUT****
 Total Charge           Charge          ....    0
 Multiplicity           Mult            ....    1
 Number of Electrons    NEL             ....   24
Dispersion correction           -0.005489042
FINAL SINGLE POINT ENERGY      -153.748761490637
Dispersion correction             ... done (  0.1 sec)
Dispersion correction           -0.005567152
FINAL SINGLE POINT ENERGY      -153.768348019713
Dispersion correction             ... done (  0.1 sec)
Dispersion correction           -0.005621976
FINAL SINGLE POINT ENERGY      -153.779536544474
Dispersion correction             ... done (  0.1 sec)
FINAL SINGLE POINT ENERGY      -153.788571436388
FINAL SINGLE POINT ENERGY      -153.790793449905
FINAL SINGLE POINT ENERGY      -153.790888794073
Dispersion correction             ... done (  0.1 sec)
Dispersion correction           -0.005640685
FINAL SINGLE POINT ENERGY      -153.790897198295
Dispersion correction             ... done (  0.1 sec)
Dispersion correction           -0.005639632
FINAL SINGLE POINT ENERGY      -153.790899009268
Dispersion correction             ... done (  0.1 sec)
                    ***********************HURRAY********************

CARTESIAN COORDINATES (ANGSTROEM)
---------------------------------
  O      0.819002    1.010525    0.000226
  C      0.775352   -0.327852   -0.000017
  C     -0.641324   -0.599222   -0.000053
  H      1.261293   -0.777685    0.880094
  H      1.261055   -0.777152   -0.880575
  H     -1.204026   -0.535551   -0.922586
  H     -1.203149   -0.533520    0.922911

 Multiplicity           Mult            ....    1
 Number of Electrons    NEL             ....   24
 Basis Dimension        Dim             ....  182

ORBITAL ENERGIES
----------------

  NO   OCC          E(Eh)            E(eV)
   0   2.0000     -19.327088      -525.9168
   1   2.0000     -10.449354      -284.3414
   2   2.0000     -10.397225      -282.9229
   3   2.0000      -1.124283       -30.5933
   4   2.0000      -0.886119       -24.1125
   5   2.0000      -0.733643       -19.9634
   6   2.0000      -0.625086       -17.0095
   7   2.0000      -0.572675       -15.5833
   8   2.0000      -0.517671       -14.0865
   9   2.0000      -0.512538       -13.9469
  10   2.0000      -0.365425        -9.9437
  11   2.0000      -0.351634        -9.5684
  12   0.0000      -0.066146        -1.7999
  13   0.0000       0.035581         0.9682
  14   0.0000       0.061296         1.6679
  15   0.0000       0.076220         2.0741
  16   0.0000       0.098544         2.6815

MULLIKEN ATOMIC CHARGES
-----------------------
   0 O :   -0.512837
   1 C :   -0.117543
   2 C :   -0.225119
   3 H :    0.211584
   4 H :    0.211619
   5 H :    0.215997
   6 H :    0.216298
Sum of atomic charges:    0.0000000

LOEWDIN ATOMIC CHARGES
----------------------
   0 O :   -0.019477
   1 C :   -0.409388
   2 C :    0.402381
   3 H :    0.021551
   4 H :    0.021566
   5 H :   -0.008306
   6 H :   -0.008328

  Mayer bond orders larger than 0.100000
B(  0-O ,  1-C ) :   0.7532 B(  0-O ,  2-C ) :   0.8759 B(  1-C ,  2-C ) :   0.7890
B(  1-C ,  3-H ) :   1.0413 B(  1-C ,  4-H ) :   1.0412 B(  2-C ,  5-H ) :   0.9686
B(  2-C ,  6-H ) :   0.9685

Dispersion correction           -0.005639624
FINAL SINGLE POINT ENERGY      -153.790899479040

DIPOLE MOMENT
-------------

Method             : SCF
Type of density    : Electron Density
Multiplicity       :   1
Irrep              :   0
Energy             :  -153.7852598547042078 Eh
Relativity type    :
Basis              : AO
                                X                 Y                 Z
Electronic contribution:      0.325845174       1.380909543       0.000009550
Nuclear contribution   :     -1.148048874      -2.650920257      -0.000367794
                        -----------------------------------------
Total Dipole Moment    :     -0.822203700      -1.270010714      -0.000358244
                        -----------------------------------------
Magnitude (a.u.)       :      1.512926392
Magnitude (Debye)      :      3.845553277

Rotational constants in cm-1:             1.223894             0.417083             0.353900
Rotational constants in MHz :         36691.425770         12503.825889         10609.659499

                             ****ORCA TERMINATED NORMALLY****
TOTAL RUN TIME: 0 days 0 hours 1 minutes 59 seconds 894 msec
