                         Program Version 6.0.0  -   RELEASE  -
|  1> ! Engrad def2-TZVPPD wB97M-D3BJ
|  2> %pal nprocs 8 end%pal nprocs 64 end
|  3> %tddft Nroots 2 Iroot 1
|  4> sf true
|  5> end
|  6> *xyz 0 3
|  7> O   3.09215661 0.56396616 -0.82967763
|  8> O   -0.49476191 1.33929764 -2.31247215
|  9> O   0.39561671 -3.04803779 -0.52495195
| 10> O   -3.15578352 -1.60890054 -0.19981409
| 11> N   0.2637998 -1.49442365 1.09640675
| 12> N   -2.06474351 -0.02904285 0.99123095
| 13> N   1.62133293 -1.16492766 -0.75762254
| 14> N   -1.51890278 -0.3106042 -1.17161323
| 15> C   1.71437781 0.42653422 1.00869306
| 16> C   -0.78515061 1.61151704 0.00712953
| 17> C   0.43247203 -0.12421434 1.51282458
| 18> C   -0.90394701 0.76109926 1.19574381
| 19> C   2.28142687 1.58869515 1.69539315
| 20> C   -0.54477285 3.04106538 0.07984581
| 21> C   2.22746295 -0.01831354 -0.24629935
| 22> C   -0.88313135 0.91684427 -1.24537788
| 23> C   0.75784843 -2.00024596 -0.0662855
| 24> C   -2.3403862 -0.74021016 -0.12669623
| 25> H   0.49340921 -0.160526 2.6157683
| 26> H   -1.13312463 1.38472462 2.07376018
| 27> H   2.87518657 2.19376301 1.02852292
| 28> H   1.50012778 2.20562322 2.14392544
| 29> H   2.94317096 1.22671813 2.49008999
| 30> H   -1.47334834 3.56663412 0.40085062
| 31> H   0.16653053 3.27162825 0.84921615
| 32> H   -0.25579922 3.4562129 -0.89384664
| 33> H   -0.43003991 -2.0858681 1.52160017
| 34> H   -2.54842054 -0.35447502 1.82869561
| 35> H   2.03449936 -1.55598265 -1.61166731
| 36> H   -1.5953694 -0.77880071 -2.05303958
| 37> *
| 38>
| 39>                          ****END OF INPUT****

CARTESIAN COORDINATES (ANGSTROEM)
---------------------------------
  O      3.092157    0.563966   -0.829678
  O     -0.494762    1.339298   -2.312472
  O      0.395617   -3.048038   -0.524952
  O     -3.155784   -1.608901   -0.199814
  N      0.263800   -1.494424    1.096407
  N     -2.064744   -0.029043    0.991231
  N      1.621333   -1.164928   -0.757623
  N     -1.518903   -0.310604   -1.171613
  C      1.714378    0.426534    1.008693
  C     -0.785151    1.611517    0.007130
  C      0.432472   -0.124214    1.512825
  C     -0.903947    0.761099    1.195744
  C      2.281427    1.588695    1.695393
  C     -0.544773    3.041065    0.079846
  C      2.227463   -0.018314   -0.246299
  C     -0.883131    0.916844   -1.245378
  C      0.757848   -2.000246   -0.066285
  C     -2.340386   -0.740210   -0.126696
  H      0.493409   -0.160526    2.615768
  H     -1.133125    1.384725    2.073760
  H      2.875187    2.193763    1.028523
  H      1.500128    2.205623    2.143925
  H      2.943171    1.226718    2.490090
  H     -1.473348    3.566634    0.400851
  H      0.166531    3.271628    0.849216
  H     -0.255799    3.456213   -0.893847
  H     -0.430040   -2.085868    1.521600
  H     -2.548421   -0.354475    1.828696
  H      2.034499   -1.555983   -1.611667
  H     -1.595369   -0.778801   -2.053040

 Total Charge           Charge          ....    0
 Multiplicity           Mult            ....    3
 Number of Electrons    NEL             ....  132
 Basis Dimension        Dim             ....  882

ORBITAL ENERGIES
----------------
                 SPIN UP ORBITALS
  NO   OCC          E(Eh)            E(eV)
   0   1.0000     -19.330256      -526.0030
   1   1.0000     -19.327920      -525.9394
   2   1.0000     -19.321285      -525.7589
   3   1.0000     -19.311367      -525.4890
   4   1.0000     -14.560572      -396.2133
   5   1.0000     -14.557189      -396.1212
   6   1.0000     -14.554930      -396.0598
   7   1.0000     -14.552752      -396.0005
   8   1.0000     -10.500990      -285.7465
   9   1.0000     -10.496075      -285.6127
  10   1.0000     -10.472646      -284.9752
  11   1.0000     -10.471386      -284.9409
  12   1.0000     -10.443682      -284.1870
  13   1.0000     -10.441777      -284.1352
  14   1.0000     -10.411736      -283.3177
  15   1.0000     -10.405354      -283.1441
  16   1.0000     -10.373257      -282.2707
  17   1.0000     -10.371466      -282.2219
  18   1.0000      -1.226208       -33.3668
  19   1.0000      -1.220791       -33.2194
  20   1.0000      -1.203105       -32.7381
  21   1.0000      -1.198125       -32.6026
  22   1.0000      -1.127058       -30.6688
  23   1.0000      -1.100869       -29.9562
  24   1.0000      -1.062633       -28.9157
  25   1.0000      -1.052618       -28.6432
  26   1.0000      -0.985909       -26.8280
  27   1.0000      -0.960677       -26.1413
  28   1.0000      -0.887291       -24.1444
  29   1.0000      -0.844227       -22.9726
  30   1.0000      -0.831935       -22.6381
  31   1.0000      -0.806409       -21.9435
  32   1.0000      -0.783855       -21.3298
  33   1.0000      -0.777527       -21.1576
  34   1.0000      -0.699212       -19.0265
  35   1.0000      -0.692290       -18.8382
  36   1.0000      -0.688237       -18.7279
  37   1.0000      -0.669520       -18.2186
  38   1.0000      -0.659705       -17.9515
  39   1.0000      -0.645127       -17.5548
  40   1.0000      -0.613856       -16.7039
  41   1.0000      -0.603867       -16.4321
  42   1.0000      -0.591421       -16.0934
  43   1.0000      -0.584247       -15.8982
  44   1.0000      -0.582786       -15.8584
  45   1.0000      -0.573366       -15.6021
  46   1.0000      -0.567945       -15.4546
  47   1.0000      -0.560571       -15.2539
  48   1.0000      -0.558314       -15.1925
  49   1.0000      -0.554056       -15.0766
  50   1.0000      -0.542746       -14.7689
  51   1.0000      -0.540471       -14.7070
  52   1.0000      -0.533076       -14.5057
  53   1.0000      -0.528634       -14.3849
  54   1.0000      -0.517945       -14.0940
  55   1.0000      -0.510297       -13.8859
  56   1.0000      -0.492675       -13.4064
  57   1.0000      -0.419863       -11.4250
  58   1.0000      -0.418124       -11.3777
  59   1.0000      -0.407323       -11.0838
  60   1.0000      -0.404493       -11.0068
  61   1.0000      -0.399276       -10.8648
  62   1.0000      -0.391689       -10.6584
  63   1.0000      -0.387399       -10.5417
  64   1.0000      -0.383262       -10.4291
  65   1.0000      -0.333956        -9.0874
  66   1.0000      -0.327142        -8.9020
  67   0.0000       0.004296         0.1169
  68   0.0000       0.029060         0.7908
  69   0.0000       0.031084         0.8458
  70   0.0000       0.039017         1.0617
  71   0.0000       0.056970         1.5502

                 SPIN DOWN ORBITALS
  NO   OCC          E(Eh)            E(eV)
   0   1.0000     -19.325816      -525.8822
   1   1.0000     -19.323507      -525.8194
   2   1.0000     -19.320961      -525.7501
   3   1.0000     -19.311240      -525.4856
   4   1.0000     -14.559820      -396.1928
   5   1.0000     -14.556682      -396.1074
   6   1.0000     -14.554678      -396.0529
   7   1.0000     -14.552427      -395.9917
   8   1.0000     -10.501005      -285.7469
   9   1.0000     -10.496098      -285.6133
  10   1.0000     -10.473634      -285.0021
  11   1.0000     -10.472354      -284.9672
  12   1.0000     -10.443513      -284.1824
  13   1.0000     -10.441219      -284.1200
  14   1.0000     -10.400443      -283.0104
  15   1.0000     -10.394033      -282.8360
  16   1.0000     -10.373797      -282.2854
  17   1.0000     -10.372035      -282.2374
  18   1.0000      -1.224550       -33.3217
  19   1.0000      -1.218049       -33.1448
  20   1.0000      -1.198998       -32.6264
  21   1.0000      -1.192580       -32.4517
  22   1.0000      -1.124106       -30.5885
  23   1.0000      -1.098516       -29.8921
  24   1.0000      -1.060840       -28.8669
  25   1.0000      -1.051062       -28.6009
  26   1.0000      -0.971886       -26.4464
  27   1.0000      -0.943868       -25.6840
  28   1.0000      -0.882637       -24.0178
  29   1.0000      -0.839399       -22.8412
  30   1.0000      -0.822829       -22.3903
  31   1.0000      -0.800469       -21.7819
  32   1.0000      -0.782197       -21.2847
  33   1.0000      -0.776027       -21.1168
  34   1.0000      -0.694704       -18.9039
  35   1.0000      -0.685271       -18.6472
  36   1.0000      -0.682809       -18.5802
  37   1.0000      -0.660430       -17.9712
  38   1.0000      -0.648640       -17.6504
  39   1.0000      -0.641632       -17.4597
  40   1.0000      -0.610359       -16.6087
  41   1.0000      -0.599370       -16.3097
  42   1.0000      -0.582652       -15.8548
  43   1.0000      -0.577662       -15.7190
  44   1.0000      -0.573013       -15.5925
  45   1.0000      -0.566862       -15.4251
  46   1.0000      -0.563624       -15.3370
  47   1.0000      -0.555436       -15.1142
  48   1.0000      -0.551949       -15.0193
  49   1.0000      -0.542189       -14.7537
  50   1.0000      -0.538116       -14.6429
  51   1.0000      -0.531160       -14.4536
  52   1.0000      -0.524216       -14.2646
  53   1.0000      -0.520693       -14.1688
  54   1.0000      -0.508438       -13.8353
  55   1.0000      -0.504236       -13.7210
  56   1.0000      -0.487431       -13.2637
  57   1.0000      -0.416852       -11.3431
  58   1.0000      -0.413418       -11.2497
  59   1.0000      -0.400227       -10.8907
  60   1.0000      -0.391529       -10.6541
  61   1.0000      -0.387503       -10.5445
  62   1.0000      -0.385090       -10.4788
  63   1.0000      -0.382126       -10.3982
  64   1.0000      -0.373985       -10.1766
  65   0.0000      -0.059015        -1.6059
  66   0.0000      -0.044001        -1.1973
  67   0.0000       0.003947         0.1074
  68   0.0000       0.028871         0.7856
  69   0.0000       0.030602         0.8327

----------------------------------------------------------------------------------------------------
          SPIN FLIP ABSORPTION SPECTRUM VIA TRANSITION ELECTRIC DIPOLE MOMENTS
----------------------------------------------------------------------------------------------------
     Transition      Energy     Energy  Wavelength fosc(D2)      D2        DX        DY        DZ
                      (eV)      (cm-1)    (nm)                 (au**2)    (au)      (au)      (au)
----------------------------------------------------------------------------------------------------
  1-3A  ->  2-3A    0.017434     140.6  71114.9   0.000000127   0.00030   0.01391   0.01016   0.00013

Dispersion correction             ... done (  0.1 sec)

MULLIKEN ATOMIC CHARGES AND SPIN DENSITIES
------------------------------------------
   0 O :   -0.664706   -0.063841
   1 O :   -0.687063    0.058280
   2 O :   -0.654112   -0.002276
   3 O :   -0.623714    0.000511
   4 N :   -0.260345    0.000549
   5 N :   -0.374635    0.007964
   6 N :    0.028426   -0.007731
   7 N :    0.053262    0.014495
   8 C :    0.844188    0.449619
   9 C :    0.303338    0.452303
  10 C :   -0.260246   -0.328117
  11 C :    0.693161   -0.122376
  12 C :   -1.376268    0.011127
  13 C :   -1.211062    0.011336
  14 C :    0.130990   -0.395586
  15 C :    0.033410   -0.168927
  16 C :    0.416430    0.021774
  17 C :    0.381865    0.007433
  18 H :    0.604741   -0.001197
  19 H :    0.472778    0.005078
  20 H :    0.287386   -0.001662
  21 H :    0.369233    0.003725
  22 H :    0.382309    0.000835
  23 H :    0.323155    0.020339
  24 H :    0.236689    0.016964
  25 H :    0.315382    0.001857
  26 H :    0.067447    0.001390
  27 H :    0.089739    0.000260
  28 H :    0.060515    0.004645
  29 H :    0.017709    0.001228
Sum of atomic charges       :    0.0000000

LOEWDIN ATOMIC CHARGES AND SPIN DENSITIES
-----------------------------------------
   0 O :    0.115265   -0.056142
   1 O :    0.105645    0.050501
   2 O :    0.098208   -0.001931
   3 O :    0.119791    0.000862
   4 N :    0.274264    0.000793
   5 N :    0.254638    0.004410
   6 N :    0.326605   -0.008525
   7 N :    0.336607    0.004574
   8 C :   -0.020420   -0.169007
   9 C :   -0.047802    0.183058
  10 C :   -0.088763   -0.011303
  11 C :   -0.110805    0.008656
  12 C :    0.190547   -0.027970
  13 C :    0.196776    0.030069
  14 C :   -0.442881   -0.036249
  15 C :   -0.419389    0.027033
  16 C :   -0.513637   -0.000054
  17 C :   -0.503727   -0.000013
  18 H :    0.057209   -0.002438
  19 H :    0.063397   -0.000069
  20 H :    0.001471   -0.001318
  21 H :   -0.006887   -0.003109
  22 H :    0.022507   -0.010156
  23 H :    0.032908    0.012147
  24 H :   -0.029423    0.005430
  25 H :    0.017524    0.000424
  26 H :   -0.023895   -0.000055
  27 H :   -0.005303    0.000534
  28 H :    0.012794   -0.000614
  29 H :   -0.013222    0.000461

  Mayer bond orders larger than 0.100000
B(  0-O , 14-C ) :   1.3345 B(  1-O , 15-C ) :   1.3816 B(  2-O , 16-C ) :   1.5408
B(  3-O , 17-C ) :   1.5909 B(  4-N ,  8-C ) :   0.2012 B(  4-N , 10-C ) :   0.3529
B(  4-N , 16-C ) :   1.0601 B(  4-N , 26-H ) :   1.0990 B(  5-N ,  9-C ) :   0.3725
B(  5-N , 11-C ) :  -0.1960 B(  5-N , 15-C ) :   0.1136 B(  5-N , 17-C ) :   1.1172
B(  5-N , 27-H ) :   1.0727 B(  6-N ,  8-C ) :  -0.1005 B(  6-N , 14-C ) :   1.0646
B(  6-N , 16-C ) :   0.9691 B(  6-N , 28-H ) :   1.0780 B(  7-N ,  9-C ) :  -0.1143
B(  7-N , 11-C ) :   0.1735 B(  7-N , 15-C ) :   0.9957 B(  7-N , 17-C ) :   0.9664
B(  7-N , 29-H ) :   1.0936 B(  8-C ,  9-C ) :   0.1786 B(  8-C , 10-C ) :   0.1997
B(  8-C , 12-C ) :   0.3899 B(  8-C , 14-C ) :   0.6076 B(  8-C , 16-C ) :   0.1010
B(  8-C , 18-H ) :  -0.1684 B(  8-C , 20-H ) :  -0.1267 B(  9-C , 10-C ) :   0.1609
B(  9-C , 11-C ) :  -0.1618 B(  9-C , 13-C ) :   0.5509 B(  9-C , 15-C ) :   0.8843
B(  9-C , 19-H ) :  -0.1211 B(  9-C , 25-H ) :  -0.1027 B( 10-C , 11-C ) :   0.6168
B( 10-C , 16-C ) :  -0.1729 B( 10-C , 18-H ) :   0.6662 B( 11-C , 15-C ) :  -0.3336
B( 11-C , 17-C ) :  -0.1976 B( 11-C , 19-H ) :   0.9566 B( 12-C , 20-H ) :   1.0700
B( 12-C , 21-H ) :   0.8128 B( 12-C , 22-H ) :   0.8743 B( 13-C , 23-H ) :   0.9070
B( 13-C , 24-H ) :   0.9291 B( 13-C , 25-H ) :   0.9727

Dispersion correction           -0.060158546
FINAL SINGLE POINT ENERGY      -908.794447921355

DIPOLE MOMENT
-------------

Method             : TDA/CIS
Type of density    : Electron Density
Level              : Relaxed density
State              :   1
Multiplicity       :   3
Irrep              :   0
Energy             :     0.0000000000000000 Eh
Relativity type    :
Basis              : AO
                                X                 Y                 Z
Electronic contribution:     -2.496492242     -10.329193580      -7.033188487
Nuclear contribution   :      2.419326490      11.906474002       9.845549085
                        -----------------------------------------
Total Dipole Moment    :     -0.077165752       1.577280422       2.812360599
                        -----------------------------------------
Magnitude (a.u.)       :      3.225389933
Magnitude (Debye)      :      8.198289680

Rotational constants in cm-1:             0.019573             0.015676             0.012662
Rotational constants in MHz :           586.798083           469.940965           379.610310

                             ****ORCA TERMINATED NORMALLY****
TOTAL RUN TIME: 0 days 0 hours 4 minutes 32 seconds 675 msec
