                         Program Version 6.0.0  -   RELEASE  -
|  1> ! Engrad wB97M-D3BJ def2-TZVPPD
|  2> %pal nprocs 8 end%pal nprocs 16 end
|  3> %tddft nroots 2 Iroot 2
|  4>  sf true
|  5> end
|  6> *xyz 0 3
|  7> O   0.339241717353 0.92124285473991 -0.00033194531848
|  8> C   0.73299369449276 -0.36990221922225 -9.462842522e-05
|  9> C   -0.67360617604485 -0.53738732832943 -0.00010950090105
| 10> H   1.26883982222058 -0.70001345893618 0.89438458150587
| 11> H   1.26910218405052 -0.70036752246112 -0.89428655942047
| 12> H   -1.21894498650908 -0.57158971385458 -0.92808866715096
| 13> H   -1.21795024451261 -0.57024240968779 0.92852671971031
| 14> *
| 15>
| 16>                          ****END OF INPUT****

CARTESIAN COORDINATES (ANGSTROEM)
---------------------------------
  O      0.339242    0.921243   -0.000332
  C      0.732994   -0.369902   -0.000095
  C     -0.673606   -0.537387   -0.000110
  H      1.268840   -0.700013    0.894385
  H      1.269102   -0.700368   -0.894287
  H     -1.218945   -0.571590   -0.928089
  H     -1.217950   -0.570242    0.928527

 Total Charge           Charge          ....    0
 Multiplicity           Mult            ....    3
 Number of Electrons    NEL             ....   24
 Basis Dimension        Dim             ....  182

ORBITAL ENERGIES
----------------
                 SPIN UP ORBITALS
  NO   OCC          E(Eh)            E(eV)
   0   1.0000     -19.425190      -528.5863
   1   1.0000     -10.409118      -283.2465
   2   1.0000     -10.334284      -281.2102
   3   1.0000      -1.238335       -33.6968
   4   1.0000      -0.860654       -23.4196
   5   1.0000      -0.749120       -20.3846
   6   1.0000      -0.656761       -17.8714
   7   1.0000      -0.620724       -16.8908
   8   1.0000      -0.550215       -14.9721
   9   1.0000      -0.500153       -13.6099
  10   1.0000      -0.467377       -12.7180
  11   1.0000      -0.451681       -12.2909
  12   1.0000      -0.227145        -6.1809
  13   0.0000       0.039979         1.0879
  14   0.0000       0.063514         1.7283
  15   0.0000       0.072022         1.9598
  16   0.0000       0.085578         2.3287
  17   0.0000       0.114525         3.1164

                 SPIN DOWN ORBITALS
  NO   OCC          E(Eh)            E(eV)
   0   1.0000     -19.394257      -527.7446
   1   1.0000     -10.410053      -283.2719
   2   1.0000     -10.322221      -280.8819
   3   1.0000      -1.174081       -31.9484
   4   1.0000      -0.826019       -22.4771
   5   1.0000      -0.729174       -19.8418
   6   1.0000      -0.609429       -16.5834
   7   1.0000      -0.584177       -15.8963
   8   1.0000      -0.521570       -14.1926
   9   1.0000      -0.471001       -12.8166
  10   1.0000      -0.402985       -10.9658
  11   0.0000      -0.086620        -2.3571
  12   0.0000       0.037132         1.0104
  13   0.0000       0.050303         1.3688
  14   0.0000       0.062400         1.6980
  15   0.0000       0.069243         1.8842

----------------------------------------------------------------------------------------------------
          SPIN FLIP ABSORPTION SPECTRUM VIA TRANSITION ELECTRIC DIPOLE MOMENTS
----------------------------------------------------------------------------------------------------
     Transition      Energy     Energy  Wavelength fosc(D2)      D2        DX        DY        DZ
                      (eV)      (cm-1)    (nm)                 (au**2)    (au)      (au)      (au)
----------------------------------------------------------------------------------------------------
  1-3A  ->  2-3A    3.975701   32066.2   311.9   0.002149349   0.02207  -0.00002  -0.00012  -0.14855

Dispersion correction             ... done (  0.0 sec)

MULLIKEN ATOMIC CHARGES AND SPIN DENSITIES
------------------------------------------
   0 O :   -0.289847    0.629906
   1 C :    0.144059    0.249498
   2 C :   -0.387375   -0.582282
   3 H :    0.206205    0.024532
   4 H :    0.206115    0.024368
   5 H :    0.060285   -0.173118
   6 H :    0.060558   -0.172903
Sum of atomic charges       :   -0.0000000

LOEWDIN ATOMIC CHARGES AND SPIN DENSITIES
-----------------------------------------
   0 O :    0.109882    0.611967
   1 C :   -0.175756    0.049232
   2 C :    0.135002   -0.522211
   3 H :    0.036761    0.023030
   4 H :    0.036760    0.023025
   5 H :   -0.071342   -0.092555
   6 H :   -0.071307   -0.092486

  Mayer bond orders larger than 0.100000
B(  0-O ,  1-C ) :   0.8056 B(  0-O ,  2-C ) :   0.4224 B(  1-C ,  2-C ) :   0.5950
B(  1-C ,  3-H ) :   0.9879 B(  1-C ,  4-H ) :   0.9877 B(  2-C ,  5-H ) :   1.1534
B(  2-C ,  6-H ) :   1.1533

Dispersion correction           -0.005336760
FINAL SINGLE POINT ENERGY      -153.688473862929

DIPOLE MOMENT
-------------

Method             : TDA/CIS
Type of density    : Electron Density
Level              : Relaxed density
State              :   2
Multiplicity       :   3
Irrep              :   0
Energy             :     0.0000000000000000 Eh
Relativity type    :
Basis              : AO
                                X                 Y                 Z
Electronic contribution:      1.005799685       2.402259794      -0.001212534
Nuclear contribution   :     -0.434069410      -2.480798800       0.001115682
                        -----------------------------------------
Total Dipole Moment    :      0.571730275      -0.078539006      -0.000096852
                        -----------------------------------------
Magnitude (a.u.)       :      0.577099551
Magnitude (Debye)      :      1.466870485

Rotational constants in cm-1:             0.963572             0.589381             0.427884
Rotational constants in MHz :         28887.161654         17669.210588         12827.645414

                             ****ORCA TERMINATED NORMALLY****
TOTAL RUN TIME: 0 days 0 hours 0 minutes 17 seconds 808 msec
