                         Program Version 6.0.0  -   RELEASE  -
|  1> ! Opt wB97M-D3BJ def2-TZVPPD
|  2> %pal nprocs 8 end %pal nprocs 64 end
|  3> %geom
|  4> Constraints
|  5>     {A 2 1 0 81.35593220338983 C }
|  6> end
|  7> MaxIter 200
|  8> end
|  9> *xyz 0 1
| 10> O   0.5344207095623676 1.010505164708873 0.0
| 11> C   0.7509 -0.4065 0.0
| 12> C   -0.7502 -0.4076 0.0
| 13> H   1.2625 -0.6786 0.9136
| 14> H   1.2625 -0.6787 -0.9136
| 15> H   -1.2614 -0.6806 -0.9136
| 16> H   -1.2614 -0.6805 0.9136
| 17> *
| 18>
| 19>                          ****END OF INPUT****
 Total Charge           Charge          ....    0
 Multiplicity           Mult            ....    1
 Number of Electrons    NEL             ....   24
Dispersion correction           -0.005510729
FINAL SINGLE POINT ENERGY      -153.823687102655
Dispersion correction             ... done (  0.1 sec)
Dispersion correction           -0.005454615
FINAL SINGLE POINT ENERGY      -153.838969051410
Dispersion correction             ... done (  0.1 sec)
Dispersion correction           -0.005382228
FINAL SINGLE POINT ENERGY      -153.845671154835
Dispersion correction             ... done (  0.1 sec)
FINAL SINGLE POINT ENERGY      -153.847898011285
FINAL SINGLE POINT ENERGY      -153.848321736194
FINAL SINGLE POINT ENERGY      -153.848393211316
Dispersion correction             ... done (  0.1 sec)
Dispersion correction           -0.005386331
FINAL SINGLE POINT ENERGY      -153.848422028796
Dispersion correction             ... done (  0.1 sec)
Dispersion correction           -0.005387228
FINAL SINGLE POINT ENERGY      -153.848426717208
Dispersion correction             ... done (  0.0 sec)
                    ***********************HURRAY********************

CARTESIAN COORDINATES (ANGSTROEM)
---------------------------------
  O      0.366978    0.930062   -0.000345
  C      0.735123   -0.366621   -0.000130
  C     -0.670746   -0.544369   -0.000145
  H      1.269356   -0.704192    0.893260
  H      1.269709   -0.704593   -0.893162
  H     -1.217183   -0.566875   -0.928055
  H     -1.215917   -0.565406    0.928578

 Multiplicity           Mult            ....    1
 Number of Electrons    NEL             ....   24
 Basis Dimension        Dim             ....  182

ORBITAL ENERGIES
----------------

  NO   OCC          E(Eh)            E(eV)
   0   2.0000     -19.342647      -526.3402
   1   2.0000     -10.419546      -283.5302
   2   2.0000     -10.396617      -282.9063
   3   2.0000      -1.160055       -31.5667
   4   2.0000      -0.851719       -23.1765
   5   2.0000      -0.737925       -20.0800
   6   2.0000      -0.626738       -17.0544
   7   2.0000      -0.585123       -15.9220
   8   2.0000      -0.508436       -13.8352
   9   2.0000      -0.501759       -13.6535
  10   2.0000      -0.401368       -10.9218
  11   2.0000      -0.370262       -10.0753
  12   0.0000       0.018535         0.5044
  13   0.0000       0.043671         1.1883
  14   0.0000       0.060705         1.6519
  15   0.0000       0.076753         2.0886
  16   0.0000       0.100671         2.7394

MULLIKEN ATOMIC CHARGES
-----------------------
   0 O :   -0.450627
   1 C :   -0.088661
   2 C :   -0.304361
   3 H :    0.210970
   4 H :    0.211084
   5 H :    0.210737
   6 H :    0.210857
Sum of atomic charges:    0.0000000

LOEWDIN ATOMIC CHARGES
----------------------
   0 O :   -0.022259
   1 C :   -0.286138
   2 C :    0.266468
   3 H :    0.024757
   4 H :    0.024766
   5 H :   -0.003791
   6 H :   -0.003802

  Mayer bond orders larger than 0.100000
B(  0-O ,  1-C ) :   0.6779 B(  0-O ,  2-C ) :   0.9402 B(  1-C ,  2-C ) :   0.7723
B(  1-C ,  3-H ) :   1.0514 B(  1-C ,  4-H ) :   1.0511 B(  2-C ,  5-H ) :   0.9690
B(  2-C ,  6-H ) :   0.9690

Dispersion correction           -0.005387342
FINAL SINGLE POINT ENERGY      -153.848427168190

DIPOLE MOMENT
-------------

Method             : SCF
Type of density    : Electron Density
Multiplicity       :   1
Irrep              :   0
Energy             :  -153.8430398262818812 Eh
Relativity type    :
Basis              : AO
                                X                 Y                 Z
Electronic contribution:      0.139009436       1.472535694      -0.001102633
Nuclear contribution   :     -0.472546344      -2.487956880       0.001279509
                        -----------------------------------------
Total Dipole Moment    :     -0.333536908      -1.015421186       0.000176875
                        -----------------------------------------
Magnitude (a.u.)       :      1.068797027
Magnitude (Debye)      :      2.716666146

Rotational constants in cm-1:             0.976983             0.575335             0.422880
Rotational constants in MHz :         29289.209003         17248.096569         12677.623156

                             ****ORCA TERMINATED NORMALLY****
TOTAL RUN TIME: 0 days 0 hours 1 minutes 55 seconds 983 msec
