                         Program Version 6.0.0  -   RELEASE  -
|  1> ! Engrad def2-TZVPPD wB97M-D3BJ
|  2> %pal nprocs 8 end%pal nprocs 32 end
|  3>  %tddft nroots 2 Iroot 1
|  4> sf true
|  5> end
|  6> *xyz 0 3
|  7> O   2.98917576738254 0.45940080439997 -1.07821009752296
|  8> O   -0.40885049768061 1.54518117959733 -2.20183812848078
|  9> O   0.41585943843623 -3.13732372317675 -0.25974512646346
| 10> O   -3.04795622071629 -1.68643672123752 -0.53068200718532
| 11> N   0.35406597545254 -1.46352400884169 1.26988955130532
| 12> N   -2.17459784751025 -0.190187376022 0.94257651408886
| 13> N   1.47174768113369 -1.1943542426072 -0.76545719078875
| 14> N   -1.44605370031104 -0.23874823251929 -1.25851242198395
| 15> C   1.62333138861465 0.59411646546575 0.83388918226389
| 16> C   -0.69317740041508 1.56026106933192 0.1553969586141
| 17> C   0.3685890334422 -0.06236951885158 1.59182172622229
| 18> C   -1.09475257403878 0.67742030534216 1.29134828015639
| 19> C   2.42016462053804 1.62326728043983 1.52341606079361
| 20> C   -0.59803242623718 3.02514496230651 0.3061023228843
| 21> C   2.0982254932751 -0.01168973158988 -0.39946570357853
| 22> C   -0.81276804717047 0.99883178853912 -1.19830724513168
| 23> C   0.71182989051172 -2.00967156360685 0.06024682556306
| 24> C   -2.28303985171464 -0.78602618388883 -0.2874227315682
| 25> H   0.55630364906156 0.02716725621738 2.66364509926834
| 26> H   -1.36935217040908 1.26156722075426 2.16452810040563
| 27> H   3.23031608722139 1.96432602817277 0.88669310447312
| 28> H   1.8093253260016 2.48146975725261 1.81553396237389
| 29> H   2.83757621037277 1.21486890524214 2.45016463228532
| 30> H   -1.59575523446914 3.44317745825346 0.48104752412943
| 31> H   0.00796028592279 3.29876047963825 1.1722023341274
| 32> H   -0.18375961943197 3.47298992073776 -0.59143644768472
| 33> H   -0.23512050181142 -2.0809274338368 1.80173425207835
| 34> H   -2.74825014795179 -0.60209990039601 1.6560820226115
| 35> H   1.79688144315298 -1.62872524042593 -1.61363029760747
| 36> H   -1.54728605065205 -0.64086700469091 -2.17701105564899
| 37> *
| 38>
| 39>                          ****END OF INPUT****

CARTESIAN COORDINATES (ANGSTROEM)
---------------------------------
  O      2.989176    0.459401   -1.078210
  O     -0.408850    1.545181   -2.201838
  O      0.415859   -3.137324   -0.259745
  O     -3.047956   -1.686437   -0.530682
  N      0.354066   -1.463524    1.269890
  N     -2.174598   -0.190187    0.942577
  N      1.471748   -1.194354   -0.765457
  N     -1.446054   -0.238748   -1.258512
  C      1.623331    0.594116    0.833889
  C     -0.693177    1.560261    0.155397
  C      0.368589   -0.062370    1.591822
  C     -1.094753    0.677420    1.291348
  C      2.420165    1.623267    1.523416
  C     -0.598032    3.025145    0.306102
  C      2.098225   -0.011690   -0.399466
  C     -0.812768    0.998832   -1.198307
  C      0.711830   -2.009672    0.060247
  C     -2.283040   -0.786026   -0.287423
  H      0.556304    0.027167    2.663645
  H     -1.369352    1.261567    2.164528
  H      3.230316    1.964326    0.886693
  H      1.809325    2.481470    1.815534
  H      2.837576    1.214869    2.450165
  H     -1.595755    3.443177    0.481048
  H      0.007960    3.298760    1.172202
  H     -0.183760    3.472990   -0.591436
  H     -0.235121   -2.080927    1.801734
  H     -2.748250   -0.602100    1.656082
  H      1.796881   -1.628725   -1.613630
  H     -1.547286   -0.640867   -2.177011

 Total Charge           Charge          ....    0
 Multiplicity           Mult            ....    3
 Number of Electrons    NEL             ....  132
 Basis Dimension        Dim             ....  882

ORBITAL ENERGIES
----------------
                 SPIN UP ORBITALS
  NO   OCC          E(Eh)            E(eV)
   0   1.0000     -19.331073      -526.0252
   1   1.0000     -19.329841      -525.9917
   2   1.0000     -19.318346      -525.6789
   3   1.0000     -19.314683      -525.5792
   4   1.0000     -14.564726      -396.3263
   5   1.0000     -14.558805      -396.1652
   6   1.0000     -14.558662      -396.1613
   7   1.0000     -14.557274      -396.1236
   8   1.0000     -10.503557      -285.8163
   9   1.0000     -10.500597      -285.7358
  10   1.0000     -10.477624      -285.1106
  11   1.0000     -10.476687      -285.0852
  12   1.0000     -10.450599      -284.3752
  13   1.0000     -10.444752      -284.2161
  14   1.0000     -10.422356      -283.6067
  15   1.0000     -10.409398      -283.2541
  16   1.0000     -10.372501      -282.2501
  17   1.0000     -10.371974      -282.2358
  18   1.0000      -1.220293       -33.2059
  19   1.0000      -1.214606       -33.0511
  20   1.0000      -1.196744       -32.5651
  21   1.0000      -1.193691       -32.4820
  22   1.0000      -1.116414       -30.3792
  23   1.0000      -1.095269       -29.8038
  24   1.0000      -1.064923       -28.9780
  25   1.0000      -1.054875       -28.7046
  26   1.0000      -0.978335       -26.6218
  27   1.0000      -0.945997       -25.7419
  28   1.0000      -0.883756       -24.0482
  29   1.0000      -0.834592       -22.7104
  30   1.0000      -0.827021       -22.5044
  31   1.0000      -0.802268       -21.8308
  32   1.0000      -0.786312       -21.3966
  33   1.0000      -0.775825       -21.1113
  34   1.0000      -0.698282       -19.0012
  35   1.0000      -0.693725       -18.8772
  36   1.0000      -0.687610       -18.7108
  37   1.0000      -0.659739       -17.9524
  38   1.0000      -0.652813       -17.7639
  39   1.0000      -0.643822       -17.5193
  40   1.0000      -0.615555       -16.7501
  41   1.0000      -0.602844       -16.4042
  42   1.0000      -0.588365       -16.0102
  43   1.0000      -0.582686       -15.8557
  44   1.0000      -0.580227       -15.7888
  45   1.0000      -0.572415       -15.5762
  46   1.0000      -0.565232       -15.3807
  47   1.0000      -0.559300       -15.2193
  48   1.0000      -0.556118       -15.1327
  49   1.0000      -0.549028       -14.9398
  50   1.0000      -0.546419       -14.8688
  51   1.0000      -0.539361       -14.6768
  52   1.0000      -0.533297       -14.5118
  53   1.0000      -0.524373       -14.2689
  54   1.0000      -0.510710       -13.8971
  55   1.0000      -0.504847       -13.7376
  56   1.0000      -0.485031       -13.1984
  57   1.0000      -0.420041       -11.4299
  58   1.0000      -0.415046       -11.2940
  59   1.0000      -0.408538       -11.1169
  60   1.0000      -0.406470       -11.0606
  61   1.0000      -0.392940       -10.6924
  62   1.0000      -0.391198       -10.6450
  63   1.0000      -0.386569       -10.5191
  64   1.0000      -0.383983       -10.4487
  65   1.0000      -0.350021        -9.5245
  66   1.0000      -0.307538        -8.3685
  67   0.0000       0.006431         0.1750
  68   0.0000       0.028824         0.7843
  69   0.0000       0.029864         0.8126
  70   0.0000       0.039654         1.0791
  71   0.0000       0.054800         1.4912

                 SPIN DOWN ORBITALS
  NO   OCC          E(Eh)            E(eV)
   0   1.0000     -19.327102      -525.9172
   1   1.0000     -19.325243      -525.8666
   2   1.0000     -19.318177      -525.6743
   3   1.0000     -19.314496      -525.5742
   4   1.0000     -14.564296      -396.3146
   5   1.0000     -14.558424      -396.1549
   6   1.0000     -14.558300      -396.1515
   7   1.0000     -14.556956      -396.1149
   8   1.0000     -10.503577      -285.8169
   9   1.0000     -10.500605      -285.7360
  10   1.0000     -10.478466      -285.1335
  11   1.0000     -10.477744      -285.1139
  12   1.0000     -10.449946      -284.3575
  13   1.0000     -10.444647      -284.2133
  14   1.0000     -10.410474      -283.2834
  15   1.0000     -10.397437      -282.9286
  16   1.0000     -10.373104      -282.2665
  17   1.0000     -10.372480      -282.2495
  18   1.0000      -1.218628       -33.1606
  19   1.0000      -1.212790       -33.0017
  20   1.0000      -1.192030       -32.4368
  21   1.0000      -1.188525       -32.3414
  22   1.0000      -1.114085       -30.3158
  23   1.0000      -1.093271       -29.7494
  24   1.0000      -1.063249       -28.9325
  25   1.0000      -1.053459       -28.6661
  26   1.0000      -0.963149       -26.2086
  27   1.0000      -0.929420       -25.2908
  28   1.0000      -0.879189       -23.9239
  29   1.0000      -0.829976       -22.5848
  30   1.0000      -0.818327       -22.2678
  31   1.0000      -0.796570       -21.6758
  32   1.0000      -0.784806       -21.3557
  33   1.0000      -0.774235       -21.0680
  34   1.0000      -0.692479       -18.8433
  35   1.0000      -0.685847       -18.6628
  36   1.0000      -0.681057       -18.5325
  37   1.0000      -0.652441       -17.7538
  38   1.0000      -0.645212       -17.5571
  39   1.0000      -0.637667       -17.3518
  40   1.0000      -0.613393       -16.6913
  41   1.0000      -0.597946       -16.2709
  42   1.0000      -0.582365       -15.8469
  43   1.0000      -0.574292       -15.6273
  44   1.0000      -0.570351       -15.5200
  45   1.0000      -0.564745       -15.3675
  46   1.0000      -0.560741       -15.2585
  47   1.0000      -0.553601       -15.0643
  48   1.0000      -0.552336       -15.0298
  49   1.0000      -0.540902       -14.7187
  50   1.0000      -0.539071       -14.6689
  51   1.0000      -0.530793       -14.4436
  52   1.0000      -0.525691       -14.3048
  53   1.0000      -0.514282       -13.9943
  54   1.0000      -0.501086       -13.6352
  55   1.0000      -0.498502       -13.5649
  56   1.0000      -0.479082       -13.0365
  57   1.0000      -0.415667       -11.3109
  58   1.0000      -0.411944       -11.2096
  59   1.0000      -0.402114       -10.9421
  60   1.0000      -0.396197       -10.7811
  61   1.0000      -0.386085       -10.5059
  62   1.0000      -0.382685       -10.4134
  63   1.0000      -0.379507       -10.3269
  64   1.0000      -0.370288       -10.0760
  65   0.0000      -0.073465        -1.9991
  66   0.0000      -0.021451        -0.5837
  67   0.0000       0.006205         0.1689
  68   0.0000       0.028978         0.7885
  69   0.0000       0.029646         0.8067

----------------------------------------------------------------------------------------------------
          SPIN FLIP ABSORPTION SPECTRUM VIA TRANSITION ELECTRIC DIPOLE MOMENTS
----------------------------------------------------------------------------------------------------
     Transition      Energy     Energy  Wavelength fosc(D2)      D2        DX        DY        DZ
                      (eV)      (cm-1)    (nm)                 (au**2)    (au)      (au)      (au)
----------------------------------------------------------------------------------------------------
  1-3A  ->  2-3A    0.688389    5552.2  1801.1   0.000041086   0.00244  -0.04856   0.00885   0.00031

Dispersion correction             ... done (  0.0 sec)

MULLIKEN ATOMIC CHARGES AND SPIN DENSITIES
------------------------------------------
   0 O :   -0.683647    0.000011
   1 O :   -0.672154   -0.005377
   2 O :   -0.654137   -0.001873
   3 O :   -0.642911   -0.001402
   4 N :   -0.251453    0.009790
   5 N :   -0.250371    0.003239
   6 N :    0.066649   -0.010208
   7 N :    0.058004    0.008848
   8 C :    0.844435    0.608725
   9 C :    1.021750    0.427380
  10 C :   -0.217688   -0.385937
  11 C :    0.106363   -0.119346
  12 C :   -1.262926    0.067821
  13 C :   -1.253726   -0.008150
  14 C :    0.004122   -0.353757
  15 C :   -0.171946   -0.355004
  16 C :    0.447850    0.021372
  17 C :    0.384045    0.012379
  18 H :    0.558860    0.008907
  19 H :    0.474367    0.002218
  20 H :    0.322644   -0.014817
  21 H :    0.265118    0.038202
  22 H :    0.334338    0.012664
  23 H :    0.351616    0.005455
  24 H :    0.328691    0.014556
  25 H :    0.305585    0.004304
  26 H :    0.057439    0.001143
  27 H :    0.062318    0.000450
  28 H :    0.030843    0.005718
  29 H :    0.035923    0.002689
Sum of atomic charges       :   -0.0000000

LOEWDIN ATOMIC CHARGES AND SPIN DENSITIES
-----------------------------------------
   0 O :    0.096558    0.002129
   1 O :    0.101033   -0.005777
   2 O :    0.095220   -0.001238
   3 O :    0.101931   -0.000595
   4 N :    0.265433   -0.000774
   5 N :    0.275858    0.000135
   6 N :    0.322103   -0.000546
   7 N :    0.330949   -0.001107
   8 C :    0.013146    0.016341
   9 C :   -0.033330   -0.001971
  10 C :   -0.051492    0.001683
  11 C :   -0.090667    0.001593
  12 C :    0.181491    0.000410
  13 C :    0.189263   -0.003023
  14 C :   -0.425814   -0.002349
  15 C :   -0.412656   -0.005251
  16 C :   -0.491107    0.000075
  17 C :   -0.483408    0.000057
  18 H :    0.030419    0.000315
  19 H :    0.046517    0.000268
  20 H :    0.000341   -0.000040
  21 H :   -0.013859    0.000332
  22 H :    0.013751    0.000540
  23 H :    0.019153   -0.000591
  24 H :   -0.014635   -0.000372
  25 H :    0.005437   -0.000004
  26 H :   -0.028467   -0.000104
  27 H :   -0.028049    0.000003
  28 H :   -0.008833   -0.000043
  29 H :   -0.006287   -0.000096

  Mayer bond orders larger than 0.100000
B(  0-O , 14-C ) :   1.3340 B(  1-O , 15-C ) :   1.4407 B(  2-O , 16-C ) :   1.5106
B(  3-O , 17-C ) :   1.5452 B(  4-N ,  5-N ) :   0.1252 B(  4-N ,  8-C ) :   0.2521
B(  4-N , 10-C ) :   0.3026 B(  4-N , 11-C ) :  -0.1218 B(  4-N , 16-C ) :   1.0584
B(  4-N , 26-H ) :   1.0856 B(  5-N ,  9-C ) :   0.2904 B(  5-N , 11-C ) :   0.1965
B(  5-N , 17-C ) :   1.1475 B(  5-N , 27-H ) :   1.0721 B(  6-N , 10-C ) :   0.1080
B(  6-N , 14-C ) :   1.0240 B(  6-N , 16-C ) :   0.9559 B(  6-N , 28-H ) :   1.1139
B(  7-N , 11-C ) :   0.1232 B(  7-N , 15-C ) :   0.9490 B(  7-N , 17-C ) :   0.9503
B(  7-N , 29-H ) :   1.1003 B(  8-C ,  9-C ) :   0.6558 B(  8-C , 10-C ) :   0.2198
B(  8-C , 11-C ) :  -0.1205 B(  8-C , 12-C ) :   0.4637 B(  8-C , 14-C ) :   0.4962
B(  8-C , 20-H ) :  -0.1184 B(  9-C , 11-C ) :   0.5035 B(  9-C , 13-C ) :   0.5326
B(  9-C , 15-C ) :   0.2955 B(  9-C , 25-H ) :  -0.1044 B( 10-C , 11-C ) :   0.7697
B( 10-C , 18-H ) :   0.6954 B( 11-C , 17-C ) :  -0.1871 B( 11-C , 19-H ) :   0.8584
B( 12-C , 20-H ) :   1.0278 B( 12-C , 21-H ) :   0.8944 B( 12-C , 22-H ) :   0.9112
B( 13-C , 23-H ) :   0.8599 B( 13-C , 24-H ) :   0.8355 B( 13-C , 25-H ) :   1.0406
B( 14-C , 15-C ) :   0.1549 B( 14-C , 16-C ) :  -0.1187 B( 15-C , 17-C ) :  -0.1481

Dispersion correction           -0.059599612
FINAL SINGLE POINT ENERGY      -908.806839695651

DIPOLE MOMENT
-------------

Method             : TDA/CIS
Type of density    : Electron Density
Level              : Relaxed density
State              :   1
Multiplicity       :   3
Irrep              :   0
Energy             :     0.0000000000000000 Eh
Relativity type    :
Basis              : AO
                                X                 Y                 Z
Electronic contribution:     -2.852633402     -10.227374283      -7.384935182
Nuclear contribution   :      2.501740663      11.787298179      10.218513067
                        -----------------------------------------
Total Dipole Moment    :     -0.350892738       1.559923896       2.833577885
                        -----------------------------------------
Magnitude (a.u.)       :      3.253559882
Magnitude (Debye)      :      8.269892001

Rotational constants in cm-1:             0.019176             0.015825             0.012712
Rotational constants in MHz :           574.873604           474.407156           381.088689

                             ****ORCA TERMINATED NORMALLY****
TOTAL RUN TIME: 0 days 0 hours 24 minutes 36 seconds 810 msec
