                         Program Version 6.0.0  -   RELEASE  -
|  1> ! opt def2-TZVPPD wB97M-D3BJ
|  2> %pal nprocs 8 end%pal nprocs 64 end
|  3>  %geom Constraints
|  4>  {B 9 8 2.6 C}
|  5>  {A 8 9 11 34.0 C}
|  6>  end
|  7>  end
|  8> *xyz 0 1
|  9> O   2.98579685529314 0.88758230159078 -0.86184571092411
| 10> O   -0.03983205397054 0.68929041702508 -2.10362336723772
| 11> O   0.93431434349854 -3.13274393337945 -0.68767288184107
| 12> O   -3.75829998830163 -0.84727300865116 -0.0472717177755
| 13> N   0.21184538946282 -1.54604804365365 0.7617588924445
| 14> N   -2.13631993928911 0.03188773433438 1.27350571071531
| 15> N   2.02598672506387 -1.14318467211666 -0.64531219127023
| 16> N   -1.91814233924584 0.03137116037665 -1.04498946748291
| 17> C   1.18097737274226 0.71693507080484 0.70173889017321
| 18> C   -0.20686880480777 1.27024627933494 0.21345042231937
| 19> C   0.41441080275909 -0.34173258966541 1.52336266615173
| 20> C   -0.82922175114212 0.58960593673968 1.44434972027296
| 21> C   1.92822011286806 1.69488653817281 1.5963734975385
| 22> C   -0.37809776891576 2.77134929626422 0.04819649358288
| 23> C   2.1403947470937 0.1972384729179 -0.35038567829864
| 24> C   -0.67361678962426 0.6214190571346 -1.0793014500539
| 25> C   1.04142578622994 -2.02697492875068 -0.21027082435993
| 26> C   -2.68467002550422 -0.30396816036989 0.07167054343891
| 27> H   0.80817443950001 -0.54572267081061 2.51895215321335
| 28> H   -0.83785272399001 1.27240685039143 2.28901317073582
| 29> H   2.31167340578204 2.52284411740894 1.00913016264629
| 30> H   1.28982602448342 2.08257620823614 2.38710022492991
| 31> H   2.77390820759972 1.19140411795486 2.06045858523949
| 32> H   -1.41857211141493 3.00964947214868 -0.16882755561625
| 33> H   -0.09065531563179 3.29799318042223 0.95389844358819
| 34> H   0.23426221611057 3.12492645074476 -0.77764887675592
| 35> H   -0.46772570547622 -2.21560145172536 1.0787081584806
| 36> H   -2.71769301149571 -0.17090724573546 2.06627440900372
| 37> H   2.60065167263658 -1.49057255715425 -1.3966820077142
| 38> H   -2.27169977231386 -0.32388339999036 -1.91951041514436
| 39> *
| 40>
| 41>                          ****END OF INPUT****
 Total Charge           Charge          ....    0
 Multiplicity           Mult            ....    1
 Number of Electrons    NEL             ....  132
Dispersion correction           -0.056247426
FINAL SINGLE POINT ENERGY      -908.394547813466
Dispersion correction             ... done (  0.2 sec)
Dispersion correction           -0.055859760
FINAL SINGLE POINT ENERGY      -908.497307506864
Dispersion correction             ... done (  0.3 sec)
Dispersion correction           -0.055569494
FINAL SINGLE POINT ENERGY      -908.563679325742
Dispersion correction             ... done (  0.1 sec)
FINAL SINGLE POINT ENERGY      -908.623461904546
FINAL SINGLE POINT ENERGY      -908.670308783170
FINAL SINGLE POINT ENERGY      -908.695480561722
FINAL SINGLE POINT ENERGY      -908.707459342817
FINAL SINGLE POINT ENERGY      -908.714041002849
FINAL SINGLE POINT ENERGY      -908.720616749247
FINAL SINGLE POINT ENERGY      -908.723577258750
FINAL SINGLE POINT ENERGY      -908.746258305936
FINAL SINGLE POINT ENERGY      -908.746318353412
FINAL SINGLE POINT ENERGY      -908.746362100620
FINAL SINGLE POINT ENERGY      -908.746383279765
FINAL SINGLE POINT ENERGY      -908.746400344082
FINAL SINGLE POINT ENERGY      -908.746414930414
FINAL SINGLE POINT ENERGY      -908.746424218133
Dispersion correction             ... done (  0.2 sec)
Dispersion correction           -0.059761587
FINAL SINGLE POINT ENERGY      -908.746429501390
Dispersion correction             ... done (  0.1 sec)
Dispersion correction           -0.059776993
FINAL SINGLE POINT ENERGY      -908.746431931913
Dispersion correction             ... done (  0.2 sec)
                    ***********************HURRAY********************

CARTESIAN COORDINATES (ANGSTROEM)
---------------------------------
  O      2.144993    0.142832   -1.177224
  O     -0.476852    2.483980   -2.466883
  O      0.447923   -3.700845    0.453152
  O     -2.414856   -1.260648   -1.089431
  N      0.446416   -1.898754    1.832965
  N     -1.468345   -0.178901    0.642218
  N      1.103857   -1.692069   -0.385066
  N     -1.057140    0.456054   -1.620858
  C      1.058418    0.374971    0.932093
  C     -0.048861    2.361307   -0.328225
  C      0.564768   -0.501368    2.050047
  C     -0.395741    0.431959    1.357031
  C      2.023926    1.460039    1.356476
  C     -0.961001    3.290720    0.357519
  C      1.483012   -0.364477   -0.308558
  C     -0.581351    1.741700   -1.496497
  C      0.639520   -2.522543    0.634108
  C     -1.682158   -0.379962   -0.700742
  H      0.890780   -0.233815    3.042913
  H     -0.656758    1.320243    1.912706
  H      2.331915    2.047743    0.503210
  H      1.555743    2.117813    2.086589
  H      2.895889    0.998638    1.818732
  H     -1.983862    2.935900    0.509742
  H     -0.547082    3.718221    1.267005
  H     -1.023992    4.100547   -0.383652
  H      0.057347   -2.484176    2.549992
  H     -1.972143   -0.881283    1.160089
  H      1.359989   -2.175929   -1.231377
  H     -1.281753    0.207101   -2.573475

 Multiplicity           Mult            ....    1
 Number of Electrons    NEL             ....  132
 Basis Dimension        Dim             ....  882

ORBITAL ENERGIES
----------------

  NO   OCC          E(Eh)            E(eV)
   0   2.0000     -19.335582      -526.1479
   1   2.0000     -19.332472      -526.0633
   2   2.0000     -19.322844      -525.8013
   3   2.0000     -19.320989      -525.7508
   4   2.0000     -14.568519      -396.4295
   5   2.0000     -14.567750      -396.4086
   6   2.0000     -14.567095      -396.3908
   7   2.0000     -14.566993      -396.3880
   8   2.0000     -10.512299      -286.0542
   9   2.0000     -10.508701      -285.9563
  10   2.0000     -10.491431      -285.4864
  11   2.0000     -10.478023      -285.1215
  12   2.0000     -10.442299      -284.1494
  13   2.0000     -10.438549      -284.0474
  14   2.0000     -10.421105      -283.5727
  15   2.0000     -10.414577      -283.3951
  16   2.0000     -10.380755      -282.4747
  17   2.0000     -10.359686      -281.9014
  18   2.0000      -1.227262       -33.3955
  19   2.0000      -1.220497       -33.2114
  20   2.0000      -1.203141       -32.7391
  21   2.0000      -1.197395       -32.5828
  22   2.0000      -1.132772       -30.8243
  23   2.0000      -1.092084       -29.7171
  24   2.0000      -1.074799       -29.2468
  25   2.0000      -1.064004       -28.9530
  26   2.0000      -1.017515       -27.6880
  27   2.0000      -0.937699       -25.5161
  28   2.0000      -0.877129       -23.8679
  29   2.0000      -0.823008       -22.3952
  30   2.0000      -0.818904       -22.2835
  31   2.0000      -0.810311       -22.0497
  32   2.0000      -0.792615       -21.5681
  33   2.0000      -0.775814       -21.1110
  34   2.0000      -0.728990       -19.8368
  35   2.0000      -0.701461       -19.0877
  36   2.0000      -0.694316       -18.8933
  37   2.0000      -0.668631       -18.1944
  38   2.0000      -0.638481       -17.3739
  39   2.0000      -0.631413       -17.1816
  40   2.0000      -0.614991       -16.7347
  41   2.0000      -0.609210       -16.5774
  42   2.0000      -0.593472       -16.1492
  43   2.0000      -0.589326       -16.0364
  44   2.0000      -0.578536       -15.7428
  45   2.0000      -0.567378       -15.4391
  46   2.0000      -0.562803       -15.3147
  47   2.0000      -0.561925       -15.2908
  48   2.0000      -0.552089       -15.0231
  49   2.0000      -0.551793       -15.0151
  50   2.0000      -0.544132       -14.8066
  51   2.0000      -0.542534       -14.7631
  52   2.0000      -0.531285       -14.4570
  53   2.0000      -0.508445       -13.8355
  54   2.0000      -0.502337       -13.6693
  55   2.0000      -0.479481       -13.0473
  56   2.0000      -0.449481       -12.2310
  57   2.0000      -0.424677       -11.5561
  58   2.0000      -0.418599       -11.3906
  59   2.0000      -0.408703       -11.1214
  60   2.0000      -0.402569       -10.9544
  61   2.0000      -0.394199       -10.7267
  62   2.0000      -0.390012       -10.6128
  63   2.0000      -0.389284       -10.5929
  64   2.0000      -0.370632       -10.0854
  65   2.0000      -0.335830        -9.1384
  66   0.0000      -0.018661        -0.5078
  67   0.0000       0.008449         0.2299
  68   0.0000       0.028336         0.7711
  69   0.0000       0.033325         0.9068
  70   0.0000       0.036740         0.9998

MULLIKEN ATOMIC CHARGES
-----------------------
   0 O :   -0.620880
   1 O :   -0.642885
   2 O :   -0.650008
   3 O :   -0.664832
   4 N :   -0.127454
   5 N :   -0.092171
   6 N :    0.013505
   7 N :    0.060998
   8 C :    1.915389
   9 C :    0.444839
  10 C :   -0.400354
  11 C :   -0.708175
  12 C :   -1.681917
  13 C :   -1.363173
  14 C :   -0.015545
  15 C :    0.415073
  16 C :    0.450363
  17 C :    0.568699
  18 H :    0.237699
  19 H :    0.446695
  20 H :    0.367500
  21 H :    0.338652
  22 H :    0.467372
  23 H :    0.349556
  24 H :    0.283323
  25 H :    0.422450
  26 H :    0.037900
  27 H :    0.085523
  28 H :    0.039243
  29 H :    0.022614
Sum of atomic charges:    0.0000000

LOEWDIN ATOMIC CHARGES
----------------------
   0 O :    0.128140
   1 O :    0.099136
   2 O :    0.096883
   3 O :    0.095649
   4 N :    0.290852
   5 N :    0.292384
   6 N :    0.343789
   7 N :    0.335300
   8 C :   -0.231393
   9 C :    0.147238
  10 C :   -0.044152
  11 C :   -0.080509
  12 C :    0.188544
  13 C :    0.120009
  14 C :   -0.370158
  15 C :   -0.501156
  16 C :   -0.475616
  17 C :   -0.474606
  18 H :    0.055725
  19 H :    0.029112
  20 H :   -0.014347
  21 H :    0.003396
  22 H :    0.011084
  23 H :    0.005033
  24 H :   -0.014255
  25 H :    0.023887
  26 H :   -0.024170
  27 H :   -0.025975
  28 H :   -0.004270
  29 H :   -0.005553

  Mayer bond orders larger than 0.100000
B(  0-O ,  8-C ) :  -0.1766 B(  0-O , 14-C ) :   1.6439 B(  1-O ,  9-C ) :   0.2173
B(  1-O , 15-C ) :   1.2048 B(  2-O , 16-C ) :   1.5687 B(  3-O , 17-C ) :   1.4695
B(  4-N , 10-C ) :   0.6499 B(  4-N , 11-C ) :  -0.1210 B(  4-N , 16-C ) :   1.1004
B(  4-N , 26-H ) :   1.1223 B(  5-N , 10-C ) :  -0.1068 B(  5-N , 11-C ) :   0.7423
B(  5-N , 17-C ) :   0.9339 B(  5-N , 19-H ) :  -0.1211 B(  5-N , 27-H ) :   1.0707
B(  6-N , 14-C ) :   1.0365 B(  6-N , 16-C ) :   0.9406 B(  6-N , 28-H ) :   1.1063
B(  7-N , 15-C ) :   0.9704 B(  7-N , 17-C ) :   0.9860 B(  7-N , 29-H ) :   1.1060
B(  8-C ,  9-C ) :   0.2826 B(  8-C , 10-C ) :   0.5080 B(  8-C , 11-C ) :  -0.1312
B(  8-C , 12-C ) :   0.1171 B(  8-C , 14-C ) :   0.1549 B(  9-C , 11-C ) :  -0.1248
B(  9-C , 12-C ) :  -0.1045 B(  9-C , 13-C ) :   0.4978 B(  9-C , 15-C ) :   1.0263
B(  9-C , 20-H ) :  -0.1054 B( 10-C , 11-C ) :   0.5917 B( 10-C , 16-C ) :  -0.1074
B( 10-C , 18-H ) :   1.1754 B( 11-C , 19-H ) :   1.0722 B( 12-C , 20-H ) :   0.9979
B( 12-C , 21-H ) :   1.0144 B( 12-C , 22-H ) :   0.7144 B( 13-C , 23-H ) :   0.9129
B( 13-C , 24-H ) :   1.1282 B( 13-C , 25-H ) :   0.8428 B( 15-C , 17-C ) :  -0.1281

Dispersion correction           -0.059786794
FINAL SINGLE POINT ENERGY      -908.746433001189

DIPOLE MOMENT
-------------

Method             : SCF
Type of density    : Electron Density
Multiplicity       :   1
Irrep              :   0
Energy             :  -908.6866462073286357 Eh
Relativity type    :
Basis              : AO
                                X                 Y                 Z
Electronic contribution:     -1.334550629      -9.936093798      -7.428126167
Nuclear contribution   :      1.136844406      10.951971229      10.161941241
                        -----------------------------------------
Total Dipole Moment    :     -0.197706223       1.015877431       2.733815075
                        -----------------------------------------
Magnitude (a.u.)       :      2.923155755
Magnitude (Debye)      :      7.430071452

Rotational constants in cm-1:             0.022277             0.013884             0.012065
Rotational constants in MHz :           667.856169           416.242673           361.712153

                             ****ORCA TERMINATED NORMALLY****
TOTAL RUN TIME: 0 days 1 hours 10 minutes 50 seconds 224 msec
