                         Program Version 6.0.0  -   RELEASE  -
|  1> ! Engrad wB97M-D3BJ def2-TZVPPD
|  2> %pal nprocs 8 end%pal nprocs 16 end
|  3> %tddft nroots 2 Iroot 1
|  4>  sf true
|  5> end
|  6> *xyz 0 3
|  7> O   1.2994703922403 1.07735795805639 -0.09698666310581
|  8> C   0.92515318155822 -0.0022537075245 0.27643176542145
|  9> C   -0.31745736226849 -0.67890318696881 -0.2208954490589
| 10> H   1.50669227964229 -0.56244393016164 1.03335211426085
| 11> H   -0.05519201866889 -1.64373724323568 -0.65677260083069
| 12> H   -0.82162570141843 -0.05923788417252 -0.95574604715527
| 13> H   -0.98113278261856 -0.8817627743146 0.62061688046838
| 14> *
| 15>
| 16>                          ****END OF INPUT****

CARTESIAN COORDINATES (ANGSTROEM)
---------------------------------
  O      1.299470    1.077358   -0.096987
  C      0.925153   -0.002254    0.276432
  C     -0.317457   -0.678903   -0.220895
  H      1.506692   -0.562444    1.033352
  H     -0.055192   -1.643737   -0.656773
  H     -0.821626   -0.059238   -0.955746
  H     -0.981133   -0.881763    0.620617

 Total Charge           Charge          ....    0
 Multiplicity           Mult            ....    3
 Number of Electrons    NEL             ....   24
 Basis Dimension        Dim             ....  182

ORBITAL ENERGIES
----------------
                 SPIN UP ORBITALS
  NO   OCC          E(Eh)            E(eV)
   0   1.0000     -19.409841      -528.1686
   1   1.0000     -10.379408      -282.4381
   2   1.0000     -10.366805      -282.0951
   3   1.0000      -1.246338       -33.9146
   4   1.0000      -0.881877       -23.9971
   5   1.0000      -0.718361       -19.5476
   6   1.0000      -0.635499       -17.2928
   7   1.0000      -0.586719       -15.9654
   8   1.0000      -0.582068       -15.8389
   9   1.0000      -0.514861       -14.0101
  10   1.0000      -0.513360       -13.9692
  11   1.0000      -0.434148       -11.8138
  12   1.0000      -0.220802        -6.0083
  13   0.0000       0.041136         1.1194
  14   0.0000       0.060288         1.6405
  15   0.0000       0.078620         2.1393
  16   0.0000       0.087998         2.3945
  17   0.0000       0.107906         2.9363

                 SPIN DOWN ORBITALS
  NO   OCC          E(Eh)            E(eV)
   0   1.0000     -19.382148      -527.4151
   1   1.0000     -10.369128      -282.1583
   2   1.0000     -10.364620      -282.0356
   3   1.0000      -1.188478       -32.3401
   4   1.0000      -0.862613       -23.4729
   5   1.0000      -0.673827       -18.3358
   6   1.0000      -0.585987       -15.9455
   7   1.0000      -0.540741       -14.7143
   8   1.0000      -0.535176       -14.5629
   9   1.0000      -0.499703       -13.5976
  10   1.0000      -0.471157       -12.8208
  11   0.0000      -0.082989        -2.2582
  12   0.0000       0.041449         1.1279
  13   0.0000       0.059951         1.6314
  14   0.0000       0.078552         2.1375
  15   0.0000       0.083931         2.2839

----------------------------------------------------------------------------------------------------
          SPIN FLIP ABSORPTION SPECTRUM VIA TRANSITION ELECTRIC DIPOLE MOMENTS
----------------------------------------------------------------------------------------------------
     Transition      Energy     Energy  Wavelength fosc(D2)      D2        DX        DY        DZ
                      (eV)      (cm-1)    (nm)                 (au**2)    (au)      (au)      (au)
----------------------------------------------------------------------------------------------------
  1-3A  ->  2-3A    4.568009   36843.5   271.4   0.000076210   0.00068  -0.01374   0.01139   0.01904

Dispersion correction             ... done (  0.0 sec)

MULLIKEN ATOMIC CHARGES AND SPIN DENSITIES
------------------------------------------
   0 O :   -0.511928    0.056019
   1 C :    0.202556   -0.174629
   2 C :   -0.683849    0.044482
   3 H :    0.297217    0.077709
   4 H :    0.227490   -0.004258
   5 H :    0.241434    0.004803
   6 H :    0.227079   -0.004126
Sum of atomic charges       :   -0.0000000

LOEWDIN ATOMIC CHARGES AND SPIN DENSITIES
-----------------------------------------
   0 O :    0.040366    0.022183
   1 C :   -0.221223   -0.015049
   2 C :    0.176082   -0.001853
   3 H :    0.030294   -0.003565
   4 H :   -0.009526   -0.001308
   5 H :   -0.006466    0.000886
   6 H :   -0.009526   -0.001295

  Mayer bond orders larger than 0.100000
B(  0-O ,  1-C ) :   1.7870 B(  1-C ,  2-C ) :   0.7411 B(  1-C ,  3-H ) :   0.9296
B(  2-C ,  4-H ) :   0.9928 B(  2-C ,  5-H ) :   0.9596 B(  2-C ,  6-H ) :   0.9940

Dispersion correction           -0.005537290
FINAL SINGLE POINT ENERGY      -153.924624127640

DIPOLE MOMENT
-------------

Method             : TDA/CIS
Type of density    : Electron Density
Level              : Relaxed density
State              :   1
Multiplicity       :   3
Irrep              :   0
Energy             :     0.0000000000000000 Eh
Relativity type    :
Basis              : AO
                                X                 Y                 Z
Electronic contribution:      2.132455212       2.342740245       0.147143717
Nuclear contribution   :     -2.682289512      -3.439796319       0.109536421
                        -----------------------------------------
Total Dipole Moment    :     -0.549834300      -1.097056074       0.256680138
                        -----------------------------------------
Magnitude (a.u.)       :      1.253688351
Magnitude (Debye)      :      3.186622542

Rotational constants in cm-1:             1.901944             0.342081             0.306230
Rotational constants in MHz :         57018.849871         10255.315921          9180.558897

                             ****ORCA TERMINATED NORMALLY****
TOTAL RUN TIME: 0 days 0 hours 0 minutes 16 seconds 244 msec
