                         Program Version 6.0.0  -   RELEASE  -
|  1> ! Engrad def2-TZVPPD wB97M-D3BJ
|  2> %pal nprocs 8 end%pal nprocs 64 end
|  3> %tddft Nroots 2 Iroot 2
|  4> sf true
|  5> end
|  6> *xyz 0 3
|  7> O   2.09098538 -0.17008191 -1.24862206
|  8> O   -0.01811027 2.71143212 -2.1762366
|  9> O   0.48635497 -3.81915724 0.68399371
| 10> O   -1.98411537 -1.07889316 -1.33718626
| 11> N   0.49174886 -2.02046059 1.99886702
| 12> N   -1.3744619 -0.12112186 0.60190774
| 13> N   1.03395 -1.913532 -0.30815915
| 14> N   -0.51784158 0.60062483 -1.5033923
| 15> C   1.16317151 0.17744203 0.90384225
| 16> C   -1.36581754 2.56581835 -0.3737045
| 17> C   0.65895424 -0.59075155 2.11806771
| 18> C   -0.24583217 0.36188437 1.34552822
| 19> C   2.03387744 1.39660605 1.12577099
| 20> C   -1.36875566 3.75698787 0.42279019
| 21> C   1.49434267 -0.61593729 -0.31917017
| 22> C   -0.66044687 1.9625627 -1.43101968
| 23> C   0.64050815 -2.68878161 0.81412906
| 24> C   -1.39250354 -0.19282222 -0.75485566
| 25> H   0.98323179 -0.19869752 3.09287487
| 26> H   -0.35288378 1.36007683 1.71011097
| 27> H   2.15852576 1.98157411 0.25152741
| 28> H   1.71071731 2.01083068 1.92551569
| 29> H   3.08507146 1.13776382 1.35581256
| 30> H   -2.17153485 3.86658538 1.08232415
| 31> H   -0.41780805 3.73341735 1.00053023
| 32> H   -1.34813583 4.56847341 -0.3215638
| 33> H   0.2167794 -2.60237649 2.75521579
| 34> H   -2.14679084 -0.55013186 1.14009939
| 35> H   1.15327937 -2.51856197 -1.14300574
| 36> H   -0.36719279 0.22102726 -2.44990084
| 37> *
| 38>
| 39>                          ****END OF INPUT****

CARTESIAN COORDINATES (ANGSTROEM)
---------------------------------
  O      2.090985   -0.170082   -1.248622
  O     -0.018110    2.711432   -2.176237
  O      0.486355   -3.819157    0.683994
  O     -1.984115   -1.078893   -1.337186
  N      0.491749   -2.020461    1.998867
  N     -1.374462   -0.121122    0.601908
  N      1.033950   -1.913532   -0.308159
  N     -0.517842    0.600625   -1.503392
  C      1.163172    0.177442    0.903842
  C     -1.365818    2.565818   -0.373704
  C      0.658954   -0.590752    2.118068
  C     -0.245832    0.361884    1.345528
  C      2.033877    1.396606    1.125771
  C     -1.368756    3.756988    0.422790
  C      1.494343   -0.615937   -0.319170
  C     -0.660447    1.962563   -1.431020
  C      0.640508   -2.688782    0.814129
  C     -1.392504   -0.192822   -0.754856
  H      0.983232   -0.198698    3.092875
  H     -0.352884    1.360077    1.710111
  H      2.158526    1.981574    0.251527
  H      1.710717    2.010831    1.925516
  H      3.085071    1.137764    1.355813
  H     -2.171535    3.866585    1.082324
  H     -0.417808    3.733417    1.000530
  H     -1.348136    4.568473   -0.321564
  H      0.216779   -2.602376    2.755216
  H     -2.146791   -0.550132    1.140099
  H      1.153279   -2.518562   -1.143006
  H     -0.367193    0.221027   -2.449901

 Total Charge           Charge          ....    0
 Multiplicity           Mult            ....    3
 Number of Electrons    NEL             ....  132
 Basis Dimension        Dim             ....  882

ORBITAL ENERGIES
----------------
                 SPIN UP ORBITALS
  NO   OCC          E(Eh)            E(eV)
   0   1.0000     -19.326511      -525.9011
   1   1.0000     -19.323023      -525.8062
   2   1.0000     -19.319695      -525.7156
   3   1.0000     -19.312044      -525.5074
   4   1.0000     -14.562326      -396.2610
   5   1.0000     -14.560984      -396.2245
   6   1.0000     -14.556541      -396.1036
   7   1.0000     -14.553356      -396.0170
   8   1.0000     -10.496945      -285.6364
   9   1.0000     -10.496805      -285.6326
  10   1.0000     -10.479394      -285.1588
  11   1.0000     -10.473410      -284.9960
  12   1.0000     -10.441500      -284.1277
  13   1.0000     -10.425090      -283.6811
  14   1.0000     -10.407275      -283.1964
  15   1.0000     -10.403382      -283.0904
  16   1.0000     -10.379414      -282.4382
  17   1.0000     -10.358071      -281.8574
  18   1.0000      -1.243950       -33.8496
  19   1.0000      -1.214722       -33.0543
  20   1.0000      -1.205431       -32.8014
  21   1.0000      -1.185625       -32.2625
  22   1.0000      -1.121617       -30.5208
  23   1.0000      -1.084384       -29.5076
  24   1.0000      -1.063080       -28.9279
  25   1.0000      -1.054090       -28.6833
  26   1.0000      -1.008910       -27.4538
  27   1.0000      -0.943241       -25.6669
  28   1.0000      -0.871674       -23.7194
  29   1.0000      -0.828577       -22.5467
  30   1.0000      -0.815025       -22.1780
  31   1.0000      -0.798341       -21.7240
  32   1.0000      -0.778409       -21.1816
  33   1.0000      -0.764457       -20.8019
  34   1.0000      -0.716884       -19.5074
  35   1.0000      -0.699268       -19.0280
  36   1.0000      -0.687304       -18.7025
  37   1.0000      -0.660292       -17.9675
  38   1.0000      -0.638238       -17.3673
  39   1.0000      -0.616756       -16.7828
  40   1.0000      -0.610099       -16.6016
  41   1.0000      -0.605689       -16.4816
  42   1.0000      -0.599350       -16.3091
  43   1.0000      -0.591524       -16.0962
  44   1.0000      -0.579285       -15.7631
  45   1.0000      -0.570584       -15.5264
  46   1.0000      -0.567313       -15.4374
  47   1.0000      -0.562456       -15.3052
  48   1.0000      -0.559029       -15.2120
  49   1.0000      -0.553520       -15.0620
  50   1.0000      -0.541315       -14.7299
  51   1.0000      -0.538370       -14.6498
  52   1.0000      -0.524630       -14.2759
  53   1.0000      -0.515303       -14.0221
  54   1.0000      -0.509640       -13.8680
  55   1.0000      -0.483178       -13.1480
  56   1.0000      -0.434794       -11.8313
  57   1.0000      -0.428382       -11.6569
  58   1.0000      -0.423033       -11.5113
  59   1.0000      -0.414820       -11.2878
  60   1.0000      -0.395788       -10.7699
  61   1.0000      -0.392777       -10.6880
  62   1.0000      -0.386629       -10.5207
  63   1.0000      -0.374039       -10.1781
  64   1.0000      -0.363192        -9.8830
  65   1.0000      -0.342488        -9.3196
  66   1.0000      -0.324860        -8.8399
  67   0.0000       0.011127         0.3028
  68   0.0000       0.030672         0.8346
  69   0.0000       0.033483         0.9111
  70   0.0000       0.039930         1.0866
  71   0.0000       0.053025         1.4429

                 SPIN DOWN ORBITALS
  NO   OCC          E(Eh)            E(eV)
   0   1.0000     -19.322988      -525.8052
   1   1.0000     -19.319692      -525.7155
   2   1.0000     -19.318356      -525.6792
   3   1.0000     -19.312164      -525.5107
   4   1.0000     -14.562290      -396.2601
   5   1.0000     -14.560241      -396.2043
   6   1.0000     -14.556539      -396.1036
   7   1.0000     -14.553021      -396.0078
   8   1.0000     -10.496944      -285.6364
   9   1.0000     -10.496806      -285.6326
  10   1.0000     -10.479397      -285.1589
  11   1.0000     -10.474390      -285.0227
  12   1.0000     -10.441470      -284.1268
  13   1.0000     -10.424998      -283.6786
  14   1.0000     -10.407260      -283.1959
  15   1.0000     -10.379916      -282.4519
  16   1.0000     -10.378819      -282.4220
  17   1.0000     -10.358066      -281.8573
  18   1.0000      -1.243937       -33.8492
  19   1.0000      -1.213380       -33.0177
  20   1.0000      -1.205034       -32.7906
  21   1.0000      -1.174539       -31.9608
  22   1.0000      -1.121382       -30.5144
  23   1.0000      -1.082882       -29.4667
  24   1.0000      -1.060543       -28.8588
  25   1.0000      -1.053642       -28.6711
  26   1.0000      -1.008552       -27.4441
  27   1.0000      -0.914444       -24.8833
  28   1.0000      -0.871586       -23.7171
  29   1.0000      -0.816205       -22.2101
  30   1.0000      -0.806345       -21.9418
  31   1.0000      -0.798006       -21.7148
  32   1.0000      -0.777944       -21.1689
  33   1.0000      -0.762757       -20.7557
  34   1.0000      -0.712753       -19.3950
  35   1.0000      -0.698486       -19.0068
  36   1.0000      -0.681238       -18.5374
  37   1.0000      -0.658097       -17.9077
  38   1.0000      -0.634058       -17.2536
  39   1.0000      -0.615072       -16.7369
  40   1.0000      -0.608933       -16.5699
  41   1.0000      -0.602854       -16.4045
  42   1.0000      -0.584216       -15.8973
  43   1.0000      -0.576449       -15.6860
  44   1.0000      -0.573212       -15.5979
  45   1.0000      -0.562967       -15.3191
  46   1.0000      -0.560510       -15.2523
  47   1.0000      -0.553725       -15.0676
  48   1.0000      -0.551107       -14.9964
  49   1.0000      -0.546877       -14.8813
  50   1.0000      -0.535878       -14.5820
  51   1.0000      -0.533869       -14.5273
  52   1.0000      -0.522619       -14.2212
  53   1.0000      -0.511592       -13.9211
  54   1.0000      -0.501571       -13.6484
  55   1.0000      -0.482560       -13.1311
  56   1.0000      -0.430367       -11.7109
  57   1.0000      -0.423758       -11.5311
  58   1.0000      -0.417331       -11.3562
  59   1.0000      -0.403238       -10.9727
  60   1.0000      -0.392224       -10.6730
  61   1.0000      -0.384287       -10.4570
  62   1.0000      -0.377679       -10.2772
  63   1.0000      -0.366362        -9.9692
  64   1.0000      -0.361911        -9.8481
  65   0.0000      -0.035180        -0.9573
  66   0.0000      -0.001652        -0.0450
  67   0.0000       0.013836         0.3765
  68   0.0000       0.031386         0.8541
  69   0.0000       0.033982         0.9247

----------------------------------------------------------------------------------------------------
          SPIN FLIP ABSORPTION SPECTRUM VIA TRANSITION ELECTRIC DIPOLE MOMENTS
----------------------------------------------------------------------------------------------------
     Transition      Energy     Energy  Wavelength fosc(D2)      D2        DX        DY        DZ
                      (eV)      (cm-1)    (nm)                 (au**2)    (au)      (au)      (au)
----------------------------------------------------------------------------------------------------
  1-3A  ->  2-3A    0.342619    2763.4  3618.7   0.000010153   0.00121   0.03028  -0.01671   0.00366

Dispersion correction             ... done (  0.1 sec)

MULLIKEN ATOMIC CHARGES AND SPIN DENSITIES
------------------------------------------
   0 O :   -0.640473   -0.001253
   1 O :   -0.643224   -0.075122
   2 O :   -0.561190   -0.000002
   3 O :   -0.668677   -0.000077
   4 N :   -0.066363    0.001044
   5 N :    0.049321    0.037941
   6 N :   -0.020737    0.000683
   7 N :    0.109067   -0.019611
   8 C :    1.848664   -0.005428
   9 C :    0.412524    0.285822
  10 C :   -0.119548   -0.007113
  11 C :   -0.980623   -0.015987
  12 C :   -1.818434    0.004472
  13 C :   -0.945667    0.035538
  14 C :    0.124370    0.003530
  15 C :    0.257526   -0.242426
  16 C :    0.414045    0.000397
  17 C :    0.353585    0.002682
  18 H :    0.229691   -0.000090
  19 H :    0.437449   -0.014506
  20 H :    0.311834    0.000514
  21 H :    0.435488   -0.001258
  22 H :    0.346769    0.000507
  23 H :    0.252995   -0.008465
  24 H :    0.240894   -0.003527
  25 H :    0.356954    0.026794
  26 H :    0.016333   -0.000114
  27 H :    0.075671   -0.002765
  28 H :    0.079699   -0.000353
  29 H :    0.112059   -0.001827
Sum of atomic charges       :   -0.0000000

LOEWDIN ATOMIC CHARGES AND SPIN DENSITIES
-----------------------------------------
   0 O :    0.119927   -0.000205
   1 O :    0.080227   -0.072413
   2 O :    0.155627    0.000092
   3 O :    0.086153   -0.001810
   4 N :    0.305287    0.000718
   5 N :    0.274743    0.018085
   6 N :    0.333832   -0.000131
   7 N :    0.276165   -0.006591
   8 C :   -0.208541    0.000295
   9 C :    0.187701    0.069814
  10 C :   -0.004675    0.000066
  11 C :   -0.083656    0.006631
  12 C :    0.222741   -0.000146
  13 C :    0.128632    0.003362
  14 C :   -0.412516   -0.000236
  15 C :   -0.501816   -0.023674
  16 C :   -0.521452    0.000097
  17 C :   -0.505669   -0.001810
  18 H :    0.061085   -0.000012
  19 H :    0.007797    0.003238
  20 H :   -0.017947    0.000054
  21 H :   -0.024109   -0.000174
  22 H :    0.024978    0.000006
  23 H :   -0.035311   -0.005688
  24 H :    0.018695   -0.015300
  25 H :    0.015690    0.024890
  26 H :   -0.044083    0.000044
  27 H :    0.013192    0.000811
  28 H :    0.025495   -0.000015
  29 H :    0.021808    0.000002

  Mayer bond orders larger than 0.100000
B(  0-O , 14-C ) :   1.4497 B(  1-O , 15-C ) :   1.3168 B(  2-O , 16-C ) :   1.6118
B(  3-O , 17-C ) :   1.3890 B(  4-N , 10-C ) :   0.7044 B(  4-N , 16-C ) :   1.1037
B(  4-N , 26-H ) :   1.1289 B(  5-N ,  8-C ) :   0.1020 B(  5-N , 10-C ) :  -0.1431
B(  5-N , 11-C ) :   0.8862 B(  5-N , 17-C ) :   1.0054 B(  5-N , 27-H ) :   1.0393
B(  6-N , 14-C ) :   1.1302 B(  6-N , 16-C ) :   0.9244 B(  6-N , 28-H ) :   1.0636
B(  7-N , 15-C ) :   1.0676 B(  7-N , 17-C ) :   1.0180 B(  7-N , 29-H ) :   1.0283
B(  8-C , 10-C ) :   0.7227 B(  8-C , 14-C ) :   0.3708 B(  8-C , 19-H ) :  -0.1481
B(  8-C , 20-H ) :  -0.1343 B(  9-C , 13-C ) :   0.5529 B(  9-C , 15-C ) :   0.9524
B( 10-C , 11-C ) :   0.6741 B( 10-C , 12-C ) :  -0.1428 B( 10-C , 16-C ) :  -0.1018
B( 10-C , 18-H ) :   1.0992 B( 11-C , 12-C ) :   0.2769 B( 11-C , 19-H ) :   1.0626
B( 12-C , 19-H ) :  -0.1017 B( 12-C , 20-H ) :   1.0506 B( 12-C , 21-H ) :   0.8831
B( 12-C , 22-H ) :   0.8888 B( 13-C , 23-H ) :   1.0608 B( 13-C , 24-H ) :   0.8909
B( 13-C , 25-H ) :   0.8990 B( 14-C , 16-C ) :  -0.1054 B( 14-C , 17-C ) :   0.1527

Dispersion correction           -0.057593706
FINAL SINGLE POINT ENERGY      -908.669178737533

DIPOLE MOMENT
-------------

Method             : TDA/CIS
Type of density    : Electron Density
Level              : Relaxed density
State              :   2
Multiplicity       :   3
Irrep              :   0
Energy             :     0.0000000000000000 Eh
Relativity type    :
Basis              : AO
                                X                 Y                 Z
Electronic contribution:     -1.780086873     -10.939253954      -6.695528563
Nuclear contribution   :      1.541726590      12.120952207       9.585930175
                        -----------------------------------------
Total Dipole Moment    :     -0.238360283       1.181698254       2.890401611
                        -----------------------------------------
Magnitude (a.u.)       :      3.131716440
Magnitude (Debye)      :      7.960190585

Rotational constants in cm-1:             0.024490             0.012075             0.011422
Rotational constants in MHz :           734.192328           361.984521           342.427638

                             ****ORCA TERMINATED NORMALLY****
TOTAL RUN TIME: 0 days 0 hours 4 minutes 27 seconds 954 msec
