                         Program Version 6.0.0  -   RELEASE  -
|  1> ! opt def2-TZVPPD wB97M-D3BJ
|  2> %pal nprocs 8 end%pal nprocs 32 end
|  3> %geom Constraints
|  4> {B 9 8 2.7 C}
|  5> {A 8 9 11 52.285714285714285 C}
|  6> end
|  7> MaxIter 300
|  8> end
|  9> *xyz 0 1
| 10> O   2.98579685529314 0.88758230159078 -0.86184571092411
| 11> O   -0.03983205397054 0.68929041702508 -2.10362336723772
| 12> O   0.93431434349854 -3.13274393337945 -0.68767288184107
| 13> O   -3.75829998830163 -0.84727300865116 -0.0472717177755
| 14> N   0.21184538946282 -1.54604804365365 0.7617588924445
| 15> N   -2.13631993928911 0.03188773433438 1.27350571071531
| 16> N   2.02598672506387 -1.14318467211666 -0.64531219127023
| 17> N   -1.91814233924584 0.03137116037665 -1.04498946748291
| 18> C   1.18097737274226 0.71693507080484 0.70173889017321
| 19> C   -0.20686880480777 1.27024627933494 0.21345042231937
| 20> C   0.41441080275909 -0.34173258966541 1.52336266615173
| 21> C   -0.82922175114212 0.58960593673968 1.44434972027296
| 22> C   1.92822011286806 1.69488653817281 1.5963734975385
| 23> C   -0.37809776891576 2.77134929626422 0.04819649358288
| 24> C   2.1403947470937 0.1972384729179 -0.35038567829864
| 25> C   -0.67361678962426 0.6214190571346 -1.0793014500539
| 26> C   1.04142578622994 -2.02697492875068 -0.21027082435993
| 27> C   -2.68467002550422 -0.30396816036989 0.07167054343891
| 28> H   0.80817443950001 -0.54572267081061 2.51895215321335
| 29> H   -0.83785272399001 1.27240685039143 2.28901317073582
| 30> H   2.31167340578204 2.52284411740894 1.00913016264629
| 31> H   1.28982602448342 2.08257620823614 2.38710022492991
| 32> H   2.77390820759972 1.19140411795486 2.06045858523949
| 33> H   -1.41857211141493 3.00964947214868 -0.16882755561625
| 34> H   -0.09065531563179 3.29799318042223 0.95389844358819
| 35> H   0.23426221611057 3.12492645074476 -0.77764887675592
| 36> H   -0.46772570547622 -2.21560145172536 1.0787081584806
| 37> H   -2.71769301149571 -0.17090724573546 2.06627440900372
| 38> H   2.60065167263658 -1.49057255715425 -1.3966820077142
| 39> H   -2.27169977231386 -0.32388339999036 -1.91951041514436
| 40> *
| 41>
| 42>                          ****END OF INPUT****
 Total Charge           Charge          ....    0
 Multiplicity           Mult            ....    1
 Number of Electrons    NEL             ....  132
Dispersion correction           -0.054634832
FINAL SINGLE POINT ENERGY      -908.686671254998
Dispersion correction             ... done (  0.0 sec)
Dispersion correction           -0.055245568
FINAL SINGLE POINT ENERGY      -908.716182290513
Dispersion correction             ... done (  0.0 sec)
Dispersion correction           -0.055870561
FINAL SINGLE POINT ENERGY      -908.737470944329
Dispersion correction             ... done (  0.0 sec)
FINAL SINGLE POINT ENERGY      -908.758434741505
FINAL SINGLE POINT ENERGY      -908.772367514954
FINAL SINGLE POINT ENERGY      -908.777741275252
FINAL SINGLE POINT ENERGY      -908.779727733792
FINAL SINGLE POINT ENERGY      -908.780582378736
FINAL SINGLE POINT ENERGY      -908.781202363343
FINAL SINGLE POINT ENERGY      -908.781662345792
FINAL SINGLE POINT ENERGY      -908.783280245981
FINAL SINGLE POINT ENERGY      -908.783377401315
FINAL SINGLE POINT ENERGY      -908.783509549238
FINAL SINGLE POINT ENERGY      -908.783589823582
FINAL SINGLE POINT ENERGY      -908.783619492393
FINAL SINGLE POINT ENERGY      -908.783639055688
FINAL SINGLE POINT ENERGY      -908.783648286609
Dispersion correction             ... done (  0.0 sec)
Dispersion correction           -0.059342593
FINAL SINGLE POINT ENERGY      -908.783654561217
Dispersion correction             ... done (  0.0 sec)
Dispersion correction           -0.059341243
FINAL SINGLE POINT ENERGY      -908.783656819473
Dispersion correction             ... done (  0.0 sec)
                    ***********************HURRAY********************

CARTESIAN COORDINATES (ANGSTROEM)
---------------------------------
  O      3.438740    0.670456   -0.182658
  O     -0.771447    0.861610   -2.528564
  O      0.715415   -2.822343   -1.174336
  O     -3.577030   -1.075933    0.425043
  N      0.219687   -1.576688    0.651466
  N     -2.012730    0.358043    1.263049
  N      2.085162   -1.088698   -0.647067
  N     -1.971258   -0.299847   -0.982490
  C      1.530363    0.397132    1.176573
  C     -0.524189    1.435990   -0.233957
  C      0.339050   -0.393382    1.454139
  C     -0.579538    0.746228    1.139844
  C      1.991039    1.464896    2.091348
  C     -0.414831    2.903673   -0.329655
  C      2.435543    0.036131    0.079374
  C     -1.044008    0.661285   -1.366012
  C      0.973555   -1.893550   -0.444758
  C     -2.593149   -0.388423    0.266590
  H      0.253466   -0.656212    2.512938
  H     -0.422844    1.515634    1.889318
  H      1.767331    2.459343    1.689123
  H      1.527077    1.385108    3.072324
  H      3.074496    1.423587    2.181568
  H     -1.298354    3.388500    0.101304
  H      0.448005    3.273451    0.230619
  H     -0.328429    3.208699   -1.368391
  H     -0.608014   -2.138624    0.746670
  H     -2.447791    0.212691    2.159644
  H      2.645541   -1.309196   -1.453541
  H     -2.398256   -0.844562   -1.714906

 Multiplicity           Mult            ....    1
 Number of Electrons    NEL             ....  132
 Basis Dimension        Dim             ....  882

ORBITAL ENERGIES
----------------

  NO   OCC          E(Eh)            E(eV)
   0   2.0000     -19.334827      -526.1274
   1   2.0000     -19.328434      -525.9534
   2   2.0000     -19.325602      -525.8764
   3   2.0000     -19.316632      -525.6323
   4   2.0000     -14.562522      -396.2664
   5   2.0000     -14.559547      -396.1854
   6   2.0000     -14.559396      -396.1813
   7   2.0000     -14.554656      -396.0523
   8   2.0000     -10.507090      -285.9125
   9   2.0000     -10.503806      -285.8231
  10   2.0000     -10.485386      -285.3219
  11   2.0000     -10.484004      -285.2843
  12   2.0000     -10.444377      -284.2059
  13   2.0000     -10.438744      -284.0527
  14   2.0000     -10.436408      -283.9891
  15   2.0000     -10.426362      -283.7157
  16   2.0000     -10.385353      -282.5998
  17   2.0000     -10.376851      -282.3685
  18   2.0000      -1.221932       -33.2504
  19   2.0000      -1.216864       -33.1126
  20   2.0000      -1.198499       -32.6128
  21   2.0000      -1.193793       -32.4848
  22   2.0000      -1.120546       -30.4916
  23   2.0000      -1.095979       -29.8231
  24   2.0000      -1.065552       -28.9951
  25   2.0000      -1.055189       -28.7131
  26   2.0000      -0.997438       -27.1417
  27   2.0000      -0.947287       -25.7770
  28   2.0000      -0.896006       -24.3816
  29   2.0000      -0.840893       -22.8819
  30   2.0000      -0.827866       -22.5274
  31   2.0000      -0.799324       -21.7507
  32   2.0000      -0.785381       -21.3713
  33   2.0000      -0.782048       -21.2806
  34   2.0000      -0.706537       -19.2258
  35   2.0000      -0.695520       -18.9261
  36   2.0000      -0.691759       -18.8237
  37   2.0000      -0.672147       -18.2900
  38   2.0000      -0.653296       -17.7771
  39   2.0000      -0.634314       -17.2606
  40   2.0000      -0.621491       -16.9116
  41   2.0000      -0.599144       -16.3035
  42   2.0000      -0.591666       -16.1001
  43   2.0000      -0.585851       -15.9418
  44   2.0000      -0.579791       -15.7769
  45   2.0000      -0.573173       -15.5968
  46   2.0000      -0.566014       -15.4020
  47   2.0000      -0.564020       -15.3478
  48   2.0000      -0.555886       -15.1264
  49   2.0000      -0.548946       -14.9376
  50   2.0000      -0.547573       -14.9002
  51   2.0000      -0.543406       -14.7868
  52   2.0000      -0.535313       -14.5666
  53   2.0000      -0.521083       -14.1794
  54   2.0000      -0.513815       -13.9816
  55   2.0000      -0.508721       -13.8430
  56   2.0000      -0.492540       -13.4027
  57   2.0000      -0.420688       -11.4475
  58   2.0000      -0.420032       -11.4297
  59   2.0000      -0.408617       -11.1190
  60   2.0000      -0.397256       -10.8099
  61   2.0000      -0.393946       -10.7198
  62   2.0000      -0.391052       -10.6411
  63   2.0000      -0.388557       -10.5732
  64   2.0000      -0.377079       -10.2608
  65   2.0000      -0.296419        -8.0660
  66   0.0000      -0.094091        -2.5603
  67   0.0000       0.007091         0.1930
  68   0.0000       0.028214         0.7677
  69   0.0000       0.032352         0.8804
  70   0.0000       0.035802         0.9742

MULLIKEN ATOMIC CHARGES
-----------------------
   0 O :   -0.684975
   1 O :   -0.644617
   2 O :   -0.662684
   3 O :   -0.638903
   4 N :   -0.212876
   5 N :   -0.355415
   6 N :   -0.031442
   7 N :    0.069777
   8 C :    0.256683
   9 C :    0.458280
  10 C :    0.643364
  11 C :    0.346043
  12 C :   -1.606640
  13 C :   -1.529571
  14 C :    0.512356
  15 C :    0.052354
  16 C :    0.492761
  17 C :    0.342994
  18 H :    0.371145
  19 H :    0.650859
  20 H :    0.255655
  21 H :    0.357653
  22 H :    0.395987
  23 H :    0.356355
  24 H :    0.226928
  25 H :    0.388509
  26 H :    0.031196
  27 H :    0.102540
  28 H :    0.025277
  29 H :    0.030407
Sum of atomic charges:   -0.0000000

LOEWDIN ATOMIC CHARGES
----------------------
   0 O :    0.093399
   1 O :    0.112645
   2 O :    0.093222
   3 O :    0.088656
   4 N :    0.301915
   5 N :    0.291712
   6 N :    0.330583
   7 N :    0.325160
   8 C :   -0.024325
   9 C :    0.012932
  10 C :   -0.152248
  11 C :   -0.156657
  12 C :    0.193923
  13 C :    0.191057
  14 C :   -0.390284
  15 C :   -0.402343
  16 C :   -0.481064
  17 C :   -0.492466
  18 H :    0.070630
  19 H :    0.040886
  20 H :    0.002627
  21 H :    0.007820
  22 H :    0.011486
  23 H :    0.016901
  24 H :   -0.011099
  25 H :    0.004062
  26 H :   -0.027529
  27 H :   -0.035273
  28 H :   -0.008897
  29 H :   -0.007432

  Mayer bond orders larger than 0.100000
B(  0-O , 12-C ) :   0.1061 B(  0-O , 14-C ) :   1.2743 B(  1-O , 15-C ) :   1.4447
B(  2-O , 16-C ) :   1.5167 B(  3-O , 17-C ) :   1.5915 B(  4-N ,  8-C ) :   0.1642
B(  4-N ,  9-C ) :   0.1224 B(  4-N , 10-C ) :   0.5482 B(  4-N , 16-C ) :   1.0277
B(  4-N , 26-H ) :   1.0955 B(  5-N ,  9-C ) :   0.2478 B(  5-N , 10-C ) :   0.1704
B(  5-N , 11-C ) :  -0.1617 B(  5-N , 17-C ) :   1.2282 B(  5-N , 27-H ) :   1.0257
B(  6-N , 14-C ) :   1.0182 B(  6-N , 16-C ) :   0.9252 B(  6-N , 28-H ) :   1.1118
B(  7-N , 10-C ) :  -0.1312 B(  7-N , 11-C ) :   0.1438 B(  7-N , 15-C ) :   0.9870
B(  7-N , 17-C ) :   0.9704 B(  7-N , 29-H ) :   1.0970 B(  8-C ,  9-C ) :   0.6749
B(  8-C , 10-C ) :   0.2471 B(  8-C , 11-C ) :   0.5065 B(  8-C , 12-C ) :   0.3065
B(  8-C , 14-C ) :   0.6954 B(  8-C , 15-C ) :   0.1084 B(  8-C , 18-H ) :  -0.2776
B(  8-C , 21-H ) :  -0.1689 B(  9-C , 11-C ) :   0.4957 B(  9-C , 13-C ) :   0.1851
B(  9-C , 15-C ) :   0.6490 B(  9-C , 24-H ) :  -0.1019 B(  9-C , 25-H ) :  -0.1134
B( 10-C , 11-C ) :   0.3714 B( 10-C , 12-C ) :  -0.4136 B( 10-C , 18-H ) :   1.1369
B( 10-C , 19-H ) :  -0.1450 B( 11-C , 12-C ) :   0.2136 B( 11-C , 13-C ) :  -0.1498
B( 11-C , 15-C ) :  -0.1992 B( 11-C , 17-C ) :  -0.2174 B( 11-C , 18-H ) :  -0.1244
B( 11-C , 19-H ) :   0.7150 B( 12-C , 20-H ) :   0.8788 B( 12-C , 21-H ) :   1.0891
B( 12-C , 22-H ) :   0.8508 B( 13-C , 23-H ) :   0.8672 B( 13-C , 24-H ) :   1.1052
B( 13-C , 25-H ) :   0.9242

Dispersion correction           -0.059331132
FINAL SINGLE POINT ENERGY      -908.783657656180

DIPOLE MOMENT
-------------

Method             : SCF
Type of density    : Electron Density
Multiplicity       :   1
Irrep              :   0
Energy             :  -908.7243265236915022 Eh
Relativity type    :
Basis              : AO
                                X                 Y                 Z
Electronic contribution:     -2.014973055      -9.880790801      -6.663257207
Nuclear contribution   :      2.018808729      11.252159646       9.160255508
                        -----------------------------------------
Total Dipole Moment    :      0.003835674       1.371368845       2.496998301
                        -----------------------------------------
Magnitude (a.u.)       :      2.848801105
Magnitude (Debye)      :      7.241076950

Rotational constants in cm-1:             0.020260             0.013826             0.012120
Rotational constants in MHz :           607.365821           414.478438           363.351009

                             ****ORCA TERMINATED NORMALLY****
TOTAL RUN TIME: 0 days 1 hours 6 minutes 51 seconds 668 msec
