                         Program Version 6.0.0  -   RELEASE  -
|  1> ! Engrad def2-TZVPPD wB97M-D3BJ
|  2> %pal nprocs 8 end%pal nprocs 64 end
|  3> %tddft
|  4>  Iroot 2 Nroots 3
|  5> sf true
|  6> end
|  7> *xyz 0 3
|  8> O   3.26161307 0.8885599 -0.1033369
|  9> O   -0.83043264 0.62620577 -2.70414182
| 10> O   0.6337635 -2.75595981 -1.01373835
| 11> O   -3.50430585 -1.3642755 0.51688988
| 12> N   0.23083682 -1.33331297 0.79043541
| 13> N   -2.1046353 0.34162011 1.08015841
| 14> N   1.8986997 -0.82754455 -0.67933877
| 15> N   -2.09899017 -0.59546369 -1.08267181
| 16> C   1.5455868 0.49368419 1.32834816
| 17> C   -0.51428334 1.21405379 -0.51757574
| 18> C   0.26609567 -0.09232221 1.42733364
| 19> C   -0.82469558 0.97396909 0.8991644
| 20> C   2.13664801 1.41798197 2.28481318
| 21> C   0.44210344 2.23481795 -0.84481087
| 22> C   2.28680896 0.23426297 0.17136486
| 23> C   -1.14821986 0.39103189 -1.49939117
| 24> C   0.86819703 -1.74463309 -0.42200447
| 25> C   -2.63664321 -0.58019445 0.2452574
| 26> H   -0.02141103 -0.30680113 2.45163721
| 27> H   -0.82614422 1.88571889 1.55931005
| 28> H   1.45836547 2.07033285 2.79308441
| 29> H   2.50078848 0.81565651 3.07076293
| 30> H   2.91154606 2.07372492 2.0100376
| 31> H   -0.08470711 2.93833153 -1.42427707
| 32> H   0.66081266 2.66184057 0.10150974
| 33> H   1.3394594 1.81389906 -1.35444117
| 34> H   -0.42783141 -2.01441277 1.17436419
| 35> H   -2.50747674 0.24565576 2.00609722
| 36> H   2.48765409 -0.98643573 -1.47610853
| 37> H   -2.63666998 -1.11690193 -1.81228462
| 38> *
| 39>
| 40>                          ****END OF INPUT****

CARTESIAN COORDINATES (ANGSTROEM)
---------------------------------
  O      3.261613    0.888560   -0.103337
  O     -0.830433    0.626206   -2.704142
  O      0.633763   -2.755960   -1.013738
  O     -3.504306   -1.364275    0.516890
  N      0.230837   -1.333313    0.790435
  N     -2.104635    0.341620    1.080158
  N      1.898700   -0.827545   -0.679339
  N     -2.098990   -0.595464   -1.082672
  C      1.545587    0.493684    1.328348
  C     -0.514283    1.214054   -0.517576
  C      0.266096   -0.092322    1.427334
  C     -0.824696    0.973969    0.899164
  C      2.136648    1.417982    2.284813
  C      0.442103    2.234818   -0.844811
  C      2.286809    0.234263    0.171365
  C     -1.148220    0.391032   -1.499391
  C      0.868197   -1.744633   -0.422004
  C     -2.636643   -0.580194    0.245257
  H     -0.021411   -0.306801    2.451637
  H     -0.826144    1.885719    1.559310
  H      1.458365    2.070333    2.793084
  H      2.500788    0.815657    3.070763
  H      2.911546    2.073725    2.010038
  H     -0.084707    2.938332   -1.424277
  H      0.660813    2.661841    0.101510
  H      1.339459    1.813899   -1.354441
  H     -0.427831   -2.014413    1.174364
  H     -2.507477    0.245656    2.006097
  H      2.487654   -0.986436   -1.476109
  H     -2.636670   -1.116902   -1.812285

 Total Charge           Charge          ....    0
 Multiplicity           Mult            ....    3
 Number of Electrons    NEL             ....  132
 Basis Dimension        Dim             ....  882

ORBITAL ENERGIES
----------------
                 SPIN UP ORBITALS
  NO   OCC          E(Eh)            E(eV)
   0   1.0000     -19.333099      -526.0804
   1   1.0000     -19.332144      -526.0544
   2   1.0000     -19.327648      -525.9321
   3   1.0000     -19.320598      -525.7402
   4   1.0000     -14.565118      -396.3370
   5   1.0000     -14.560832      -396.2204
   6   1.0000     -14.560595      -396.2139
   7   1.0000     -14.553892      -396.0315
   8   1.0000     -10.512450      -286.0583
   9   1.0000     -10.504699      -285.8474
  10   1.0000     -10.476172      -285.0711
  11   1.0000     -10.473944      -285.0105
  12   1.0000     -10.446088      -284.2525
  13   1.0000     -10.436433      -283.9898
  14   1.0000     -10.407525      -283.2032
  15   1.0000     -10.406795      -283.1833
  16   1.0000     -10.365132      -282.0496
  17   1.0000     -10.358765      -281.8763
  18   1.0000      -1.224397       -33.3175
  19   1.0000      -1.217394       -33.1270
  20   1.0000      -1.207074       -32.8461
  21   1.0000      -1.168678       -31.8013
  22   1.0000      -1.128684       -30.7130
  23   1.0000      -1.101792       -29.9813
  24   1.0000      -1.055658       -28.7259
  25   1.0000      -1.044145       -28.4126
  26   1.0000      -0.994297       -27.0562
  27   1.0000      -0.967112       -26.3165
  28   1.0000      -0.891099       -24.2480
  29   1.0000      -0.856304       -23.3012
  30   1.0000      -0.828322       -22.5398
  31   1.0000      -0.806892       -21.9566
  32   1.0000      -0.777486       -21.1565
  33   1.0000      -0.767922       -20.8962
  34   1.0000      -0.702660       -19.1204
  35   1.0000      -0.695693       -18.9308
  36   1.0000      -0.686910       -18.6918
  37   1.0000      -0.678890       -18.4735
  38   1.0000      -0.662148       -18.0180
  39   1.0000      -0.639989       -17.4150
  40   1.0000      -0.621831       -16.9209
  41   1.0000      -0.600990       -16.3538
  42   1.0000      -0.597117       -16.2484
  43   1.0000      -0.587867       -15.9967
  44   1.0000      -0.581740       -15.8300
  45   1.0000      -0.571642       -15.5552
  46   1.0000      -0.568637       -15.4734
  47   1.0000      -0.563904       -15.3446
  48   1.0000      -0.560452       -15.2507
  49   1.0000      -0.553506       -15.0617
  50   1.0000      -0.552086       -15.0230
  51   1.0000      -0.538373       -14.6499
  52   1.0000      -0.531743       -14.4695
  53   1.0000      -0.526028       -14.3139
  54   1.0000      -0.512248       -13.9390
  55   1.0000      -0.504605       -13.7310
  56   1.0000      -0.494406       -13.4535
  57   1.0000      -0.426533       -11.6066
  58   1.0000      -0.415585       -11.3087
  59   1.0000      -0.413753       -11.2588
  60   1.0000      -0.409302       -11.1377
  61   1.0000      -0.398381       -10.8405
  62   1.0000      -0.395838       -10.7713
  63   1.0000      -0.387238       -10.5373
  64   1.0000      -0.377840       -10.2815
  65   1.0000      -0.342139        -9.3101
  66   1.0000      -0.316240        -8.6053
  67   0.0000       0.005903         0.1606
  68   0.0000       0.028426         0.7735
  69   0.0000       0.031882         0.8676
  70   0.0000       0.037640         1.0242
  71   0.0000       0.055200         1.5021

                 SPIN DOWN ORBITALS
  NO   OCC          E(Eh)            E(eV)
   0   1.0000     -19.332054      -526.0519
   1   1.0000     -19.327799      -525.9361
   2   1.0000     -19.321972      -525.7776
   3   1.0000     -19.320480      -525.7370
   4   1.0000     -14.564788      -396.3280
   5   1.0000     -14.560274      -396.2052
   6   1.0000     -14.559993      -396.1976
   7   1.0000     -14.553787      -396.0287
   8   1.0000     -10.512490      -286.0594
   9   1.0000     -10.504744      -285.8486
  10   1.0000     -10.477318      -285.1023
  11   1.0000     -10.474821      -285.0344
  12   1.0000     -10.445331      -284.2319
  13   1.0000     -10.435778      -283.9720
  14   1.0000     -10.396932      -282.9149
  15   1.0000     -10.396191      -282.8947
  16   1.0000     -10.365589      -282.0620
  17   1.0000     -10.359163      -281.8871
  18   1.0000      -1.221802       -33.2469
  19   1.0000      -1.216613       -33.1057
  20   1.0000      -1.201721       -32.7005
  21   1.0000      -1.160563       -31.5805
  22   1.0000      -1.125134       -30.6164
  23   1.0000      -1.099554       -29.9204
  24   1.0000      -1.053493       -28.6670
  25   1.0000      -1.042073       -28.3562
  26   1.0000      -0.981326       -26.7032
  27   1.0000      -0.951113       -25.8811
  28   1.0000      -0.886064       -24.1110
  29   1.0000      -0.850350       -23.1392
  30   1.0000      -0.819376       -22.2963
  31   1.0000      -0.800570       -21.7846
  32   1.0000      -0.775232       -21.0951
  33   1.0000      -0.766157       -20.8482
  34   1.0000      -0.696708       -18.9584
  35   1.0000      -0.690642       -18.7933
  36   1.0000      -0.680718       -18.5233
  37   1.0000      -0.672653       -18.3038
  38   1.0000      -0.647669       -17.6240
  39   1.0000      -0.636449       -17.3187
  40   1.0000      -0.618612       -16.8333
  41   1.0000      -0.592187       -16.1142
  42   1.0000      -0.590357       -16.0644
  43   1.0000      -0.582875       -15.8608
  44   1.0000      -0.576459       -15.6863
  45   1.0000      -0.566978       -15.4282
  46   1.0000      -0.559837       -15.2339
  47   1.0000      -0.558031       -15.1848
  48   1.0000      -0.553036       -15.0489
  49   1.0000      -0.547566       -14.9000
  50   1.0000      -0.543988       -14.8027
  51   1.0000      -0.531370       -14.4593
  52   1.0000      -0.520784       -14.1713
  53   1.0000      -0.514996       -14.0137
  54   1.0000      -0.507984       -13.8229
  55   1.0000      -0.492165       -13.3925
  56   1.0000      -0.487651       -13.2696
  57   1.0000      -0.422795       -11.5048
  58   1.0000      -0.412671       -11.2293
  59   1.0000      -0.407034       -11.0760
  60   1.0000      -0.397075       -10.8049
  61   1.0000      -0.392111       -10.6699
  62   1.0000      -0.382895       -10.4191
  63   1.0000      -0.377958       -10.2848
  64   1.0000      -0.363695        -9.8966
  65   0.0000      -0.062832        -1.7098
  66   0.0000      -0.049224        -1.3395
  67   0.0000       0.005624         0.1530
  68   0.0000       0.028254         0.7688
  69   0.0000       0.031677         0.8620

----------------------------------------------------------------------------------------------------
          SPIN FLIP ABSORPTION SPECTRUM VIA TRANSITION ELECTRIC DIPOLE MOMENTS
----------------------------------------------------------------------------------------------------
     Transition      Energy     Energy  Wavelength fosc(D2)      D2        DX        DY        DZ
                      (eV)      (cm-1)    (nm)                 (au**2)    (au)      (au)      (au)
----------------------------------------------------------------------------------------------------
  1-3A  ->  2-3A    0.067850     547.2  18273.4   0.000029702   0.01787   0.12531   0.00485   0.04627
  1-3A  ->  3-3A    1.925237   15528.1   644.0   0.001131922   0.02400   0.02414   0.08398  -0.12792

Dispersion correction             ... done (  0.1 sec)

MULLIKEN ATOMIC CHARGES AND SPIN DENSITIES
------------------------------------------
   0 O :   -0.670347   -0.019187
   1 O :   -0.693868    0.034700
   2 O :   -0.620592   -0.000725
   3 O :   -0.641725   -0.000080
   4 N :   -0.287371   -0.006554
   5 N :   -0.271769   -0.001941
   6 N :    0.099324   -0.003033
   7 N :    0.060070    0.001955
   8 C :    0.273094    0.331566
   9 C :    0.558098    0.257582
  10 C :    0.411925   -0.163301
  11 C :    0.656225   -0.106514
  12 C :   -1.479402   -0.012982
  13 C :   -1.705515   -0.023013
  14 C :    0.076193   -0.237068
  15 C :    0.086728   -0.089882
  16 C :    0.443424    0.010896
  17 C :    0.360124    0.006550
  18 H :    0.586839   -0.013313
  19 H :    0.360169    0.001260
  20 H :    0.329142    0.004283
  21 H :    0.413137    0.010953
  22 H :    0.323091   -0.002972
  23 H :    0.439937    0.010668
  24 H :    0.402057   -0.000441
  25 H :    0.236753    0.008311
  26 H :    0.047722    0.000435
  27 H :    0.069362    0.000975
  28 H :    0.016460   -0.000032
  29 H :    0.120714    0.000903
Sum of atomic charges       :   -0.0000000

LOEWDIN ATOMIC CHARGES AND SPIN DENSITIES
-----------------------------------------
   0 O :    0.096848   -0.017895
   1 O :    0.043979    0.030285
   2 O :    0.121656   -0.000663
   3 O :    0.089500   -0.000090
   4 N :    0.271252   -0.000510
   5 N :    0.266774   -0.001535
   6 N :    0.348838   -0.005770
   7 N :    0.314631    0.000223
   8 C :   -0.070290   -0.050601
   9 C :   -0.066282    0.068926
  10 C :   -0.162606   -0.006389
  11 C :   -0.085823    0.000244
  12 C :    0.227726   -0.008190
  13 C :    0.211299    0.007210
  14 C :   -0.448111   -0.018238
  15 C :   -0.348921    0.005428
  16 C :   -0.439717   -0.000087
  17 C :   -0.504620   -0.000461
  18 H :    0.065842   -0.002008
  19 H :    0.086321    0.000829
  20 H :   -0.003351   -0.001220
  21 H :   -0.003736   -0.002599
  22 H :   -0.009913   -0.000135
  23 H :   -0.001202    0.002206
  24 H :   -0.016170   -0.000571
  25 H :    0.037195    0.002511
  26 H :   -0.010438   -0.000118
  27 H :   -0.015605   -0.000265
  28 H :   -0.016565   -0.000560
  29 H :    0.021490    0.000040

  Mayer bond orders larger than 0.100000
B(  0-O , 14-C ) :   1.3894 B(  1-O , 15-C ) :   1.3204 B(  2-O , 16-C ) :   1.5690
B(  3-O , 17-C ) :   1.5909 B(  4-N ,  8-C ) :   0.3122 B(  4-N ,  9-C ) :   0.1848
B(  4-N , 10-C ) :   0.2608 B(  4-N , 16-C ) :   0.9365 B(  4-N , 18-H ) :  -0.1024
B(  4-N , 26-H ) :   1.0990 B(  5-N ,  9-C ) :   0.2237 B(  5-N , 10-C ) :   0.1472
B(  5-N , 17-C ) :   1.1667 B(  5-N , 27-H ) :   1.0764 B(  6-N ,  8-C ) :  -0.1489
B(  6-N , 10-C ) :   0.1730 B(  6-N , 14-C ) :   0.9916 B(  6-N , 16-C ) :   0.9765
B(  6-N , 28-H ) :   1.1124 B(  7-N , 11-C ) :   0.1291 B(  7-N , 15-C ) :   1.1272
B(  7-N , 17-C ) :   0.9431 B(  7-N , 29-H ) :   1.0358 B(  8-C ,  9-C ) :   0.1815
B(  8-C , 10-C ) :   0.3273 B(  8-C , 11-C ) :   0.3450 B(  8-C , 12-C ) :   0.4529
B(  8-C , 14-C ) :   0.7144 B(  8-C , 18-H ) :  -0.2127 B(  9-C , 10-C ) :   0.2798
B(  9-C , 11-C ) :   0.3280 B(  9-C , 15-C ) :   0.8287 B(  9-C , 19-H ) :  -0.1506
B(  9-C , 24-H ) :  -0.1851 B(  9-C , 25-H ) :  -0.1001 B( 10-C , 11-C ) :   0.3821
B( 10-C , 14-C ) :  -0.1853 B( 10-C , 18-H ) :   0.7974 B( 11-C , 13-C ) :  -0.2159
B( 11-C , 15-C ) :  -0.1127 B( 11-C , 17-C ) :  -0.1614 B( 11-C , 18-H ) :  -0.1297
B( 11-C , 19-H ) :   1.0154 B( 12-C , 20-H ) :   0.8954 B( 12-C , 21-H ) :   0.8466
B( 12-C , 22-H ) :   0.9408 B( 13-C , 14-C ) :   0.1341 B( 13-C , 23-H ) :   0.8172
B( 13-C , 24-H ) :   1.0597 B( 13-C , 25-H ) :   0.9383

Dispersion correction           -0.061949376
FINAL SINGLE POINT ENERGY      -908.764277696865

DIPOLE MOMENT
-------------

Method             : TDA/CIS
Type of density    : Electron Density
Level              : Relaxed density
State              :   2
Multiplicity       :   3
Irrep              :   0
Energy             :     0.0000000000000000 Eh
Relativity type    :
Basis              : AO
                                X                 Y                 Z
Electronic contribution:     -4.511422455      -8.482098264      -6.185158190
Nuclear contribution   :      4.630852610       9.890392835       8.725707494
                        -----------------------------------------
Total Dipole Moment    :      0.119430155       1.408294571       2.540549304
                        -----------------------------------------
Magnitude (a.u.)       :      2.907223405
Magnitude (Debye)      :      7.389574637

Rotational constants in cm-1:             0.022352             0.013348             0.012792
Rotational constants in MHz :           670.106612           400.158701           383.496846

                             ****ORCA TERMINATED NORMALLY****
TOTAL RUN TIME: 0 days 0 hours 5 minutes 33 seconds 626 msec
