                         Program Version 6.0.0  -   RELEASE  -
|  1> ! EnGrad wB97M-D3BJ def2-TZVPPD
|  2> %pal nprocs 8 end%pal nprocs 16 end
|  3> %tddft
|  4>  sf true
|  5>  nroots 2 Iroot 1 end
|  6> *xyz 0 3
|  7> O   0.03086433783967 0.80148468845819 -5.563858945e-05
|  8> C   0.71416968294912 -0.42017532647479 0.00015599961936
|  9> C   -0.72827687077614 -0.4692024159182 -0.00017815761906
| 10> H   1.25336323103377 -0.65443161655617 0.91204564205151
| 11> H   1.25302916138035 -0.65494399008618 -0.91185132613064
| 12> H   -1.26068461481968 -0.660432345678 -0.9204612135297
| 13> H   -1.26026492760708 -0.66069899374485 0.92034469419798
| 14> *
| 15>
| 16>                          ****END OF INPUT****

CARTESIAN COORDINATES (ANGSTROEM)
---------------------------------
  O      0.030864    0.801485   -0.000056
  C      0.714170   -0.420175    0.000156
  C     -0.728277   -0.469202   -0.000178
  H      1.253363   -0.654432    0.912046
  H      1.253029   -0.654944   -0.911851
  H     -1.260685   -0.660432   -0.920461
  H     -1.260265   -0.660699    0.920345

 Total Charge           Charge          ....    0
 Multiplicity           Mult            ....    3
 Number of Electrons    NEL             ....   24
 Basis Dimension        Dim             ....  182

ORBITAL ENERGIES
----------------
                 SPIN UP ORBITALS
  NO   OCC          E(Eh)            E(eV)
   0   1.0000     -19.494728      -530.4785
   1   1.0000     -10.435875      -283.9746
   2   1.0000     -10.397484      -282.9299
   3   1.0000      -1.320638       -35.9364
   4   1.0000      -0.874339       -23.7920
   5   1.0000      -0.799186       -21.7470
   6   1.0000      -0.705669       -19.2022
   7   1.0000      -0.667811       -18.1721
   8   1.0000      -0.591022       -16.0825
   9   1.0000      -0.523288       -14.2394
  10   1.0000      -0.513416       -13.9708
  11   1.0000      -0.483677       -13.1615
  12   1.0000      -0.127391        -3.4665
  13   0.0000       0.033494         0.9114
  14   0.0000       0.057216         1.5569
  15   0.0000       0.068236         1.8568
  16   0.0000       0.086062         2.3419
  17   0.0000       0.104168         2.8345

                 SPIN DOWN ORBITALS
  NO   OCC          E(Eh)            E(eV)
   0   1.0000     -19.462645      -529.6055
   1   1.0000     -10.435637      -283.9681
   2   1.0000     -10.391794      -282.7751
   3   1.0000      -1.255475       -34.1632
   4   1.0000      -0.842108       -22.9149
   5   1.0000      -0.782184       -21.2843
   6   1.0000      -0.647311       -17.6142
   7   1.0000      -0.637478       -17.3467
   8   1.0000      -0.554819       -15.0974
   9   1.0000      -0.500452       -13.6180
  10   1.0000      -0.460828       -12.5398
  11   0.0000      -0.135403        -3.6845
  12   0.0000       0.033070         0.8999
  13   0.0000       0.055534         1.5112
  14   0.0000       0.064381         1.7519
  15   0.0000       0.070571         1.9203

----------------------------------------------------------------------------------------------------
          SPIN FLIP ABSORPTION SPECTRUM VIA TRANSITION ELECTRIC DIPOLE MOMENTS
----------------------------------------------------------------------------------------------------
     Transition      Energy     Energy  Wavelength fosc(D2)      D2        DX        DY        DZ
                      (eV)      (cm-1)    (nm)                 (au**2)    (au)      (au)      (au)
----------------------------------------------------------------------------------------------------
  1-3A  ->  2-3A    6.796726   54819.3   182.4   0.002076472   0.01247   0.00000  -0.00009  -0.11167

Dispersion correction             ... done (  0.0 sec)

MULLIKEN ATOMIC CHARGES AND SPIN DENSITIES
------------------------------------------
   0 O :   -0.350692    0.063766
   1 C :   -0.106374   -0.073984
   2 C :   -0.409921   -0.050635
   3 H :    0.180687    0.010599
   4 H :    0.180352    0.010850
   5 H :    0.253069    0.019677
   6 H :    0.252878    0.019727
Sum of atomic charges       :    0.0000000

LOEWDIN ATOMIC CHARGES AND SPIN DENSITIES
-----------------------------------------
   0 O :   -0.088999    0.060935
   1 C :   -0.054293   -0.012303
   2 C :    0.065670   -0.030626
   3 H :    0.018311    0.001142
   4 H :    0.018314    0.001134
   5 H :    0.020494   -0.010133
   6 H :    0.020502   -0.010148

  Mayer bond orders larger than 0.100000
B(  0-O ,  1-C ) :   0.8818 B(  0-O ,  2-C ) :   0.9164 B(  1-C ,  2-C ) :   0.7075
B(  1-C ,  3-H ) :   1.0125 B(  1-C ,  4-H ) :   1.0128 B(  2-C ,  5-H ) :   0.9871
B(  2-C ,  6-H ) :   0.9872

Dispersion correction           -0.005232507
FINAL SINGLE POINT ENERGY      -153.875303462873

DIPOLE MOMENT
-------------

Method             : TDA/CIS
Type of density    : Electron Density
Level              : Relaxed density
State              :   1
Multiplicity       :   3
Irrep              :   0
Energy             :     0.0000000000000000 Eh
Relativity type    :
Basis              : AO
                                X                 Y                 Z
Electronic contribution:     -0.107117107       0.857502380      -0.000097177
Nuclear contribution   :     -0.039685425      -2.412331903       0.000164347
                        -----------------------------------------
Total Dipole Moment    :     -0.146802532      -1.554829523       0.000067170
                        -----------------------------------------
Magnitude (a.u.)       :      1.561744484
Magnitude (Debye)      :      3.969639005

Rotational constants in cm-1:             0.850725             0.745518             0.472749
Rotational constants in MHz :         25504.079492         22350.059272         14172.666678

                             ****ORCA TERMINATED NORMALLY****
TOTAL RUN TIME: 0 days 0 hours 0 minutes 20 seconds 461 msec
