                         Program Version 6.0.0  -   RELEASE  -
|  1> ! opt def2-TZVPPD wB97M-D3BJ
|  2> %pal nprocs 8 end%pal nprocs 32 end
|  3> %geom Constraints
|  4> {B 9 8 2.9 C}
|  5> {A 8 9 11 98.0 C}
|  6> end
|  7> MaxIter 300
|  8> end
|  9> *xyz 0 1
| 10> O   2.98579685529314 0.88758230159078 -0.86184571092411
| 11> O   -0.03983205397054 0.68929041702508 -2.10362336723772
| 12> O   0.93431434349854 -3.13274393337945 -0.68767288184107
| 13> O   -3.75829998830163 -0.84727300865116 -0.0472717177755
| 14> N   0.21184538946282 -1.54604804365365 0.7617588924445
| 15> N   -2.13631993928911 0.03188773433438 1.27350571071531
| 16> N   2.02598672506387 -1.14318467211666 -0.64531219127023
| 17> N   -1.91814233924584 0.03137116037665 -1.04498946748291
| 18> C   1.18097737274226 0.71693507080484 0.70173889017321
| 19> C   -0.20686880480777 1.27024627933494 0.21345042231937
| 20> C   0.41441080275909 -0.34173258966541 1.52336266615173
| 21> C   -0.82922175114212 0.58960593673968 1.44434972027296
| 22> C   1.92822011286806 1.69488653817281 1.5963734975385
| 23> C   -0.37809776891576 2.77134929626422 0.04819649358288
| 24> C   2.1403947470937 0.1972384729179 -0.35038567829864
| 25> C   -0.67361678962426 0.6214190571346 -1.0793014500539
| 26> C   1.04142578622994 -2.02697492875068 -0.21027082435993
| 27> C   -2.68467002550422 -0.30396816036989 0.07167054343891
| 28> H   0.80817443950001 -0.54572267081061 2.51895215321335
| 29> H   -0.83785272399001 1.27240685039143 2.28901317073582
| 30> H   2.31167340578204 2.52284411740894 1.00913016264629
| 31> H   1.28982602448342 2.08257620823614 2.38710022492991
| 32> H   2.77390820759972 1.19140411795486 2.06045858523949
| 33> H   -1.41857211141493 3.00964947214868 -0.16882755561625
| 34> H   -0.09065531563179 3.29799318042223 0.95389844358819
| 35> H   0.23426221611057 3.12492645074476 -0.77764887675592
| 36> H   -0.46772570547622 -2.21560145172536 1.0787081584806
| 37> H   -2.71769301149571 -0.17090724573546 2.06627440900372
| 38> H   2.60065167263658 -1.49057255715425 -1.3966820077142
| 39> H   -2.27169977231386 -0.32388339999036 -1.91951041514436
| 40> *
| 41>
| 42>                          ****END OF INPUT****
 Total Charge           Charge          ....    0
 Multiplicity           Mult            ....    1
 Number of Electrons    NEL             ....  132
Dispersion correction           -0.054169979
FINAL SINGLE POINT ENERGY      -908.596991996095
Dispersion correction             ... done (  0.0 sec)
Dispersion correction           -0.054628008
FINAL SINGLE POINT ENERGY      -908.632324311888
Dispersion correction             ... done (  0.0 sec)
Dispersion correction           -0.055305132
FINAL SINGLE POINT ENERGY      -908.657389960523
Dispersion correction             ... done (  0.0 sec)
FINAL SINGLE POINT ENERGY      -908.713167991125
FINAL SINGLE POINT ENERGY      -908.783583584311
FINAL SINGLE POINT ENERGY      -908.825111583413
FINAL SINGLE POINT ENERGY      -908.844257647553
FINAL SINGLE POINT ENERGY      -908.867771183280
FINAL SINGLE POINT ENERGY      -908.891800196504
FINAL SINGLE POINT ENERGY      -908.905204968469
FINAL SINGLE POINT ENERGY      -908.926323289978
FINAL SINGLE POINT ENERGY      -908.926431767203
FINAL SINGLE POINT ENERGY      -908.926549528047
FINAL SINGLE POINT ENERGY      -908.926668560681
FINAL SINGLE POINT ENERGY      -908.926751465859
FINAL SINGLE POINT ENERGY      -908.926835091103
FINAL SINGLE POINT ENERGY      -908.926861292924
Dispersion correction             ... done (  0.0 sec)
Dispersion correction           -0.059641123
FINAL SINGLE POINT ENERGY      -908.926873016041
Dispersion correction             ... done (  0.0 sec)
Dispersion correction           -0.059645418
FINAL SINGLE POINT ENERGY      -908.926877265112
Dispersion correction             ... done (  0.0 sec)
                    ***********************HURRAY********************

CARTESIAN COORDINATES (ANGSTROEM)
---------------------------------
  O      2.925749    1.239799   -0.487000
  O     -0.516731    0.439423   -1.899246
  O      1.379732   -2.845496   -1.745244
  O     -3.132649   -1.379071    1.324181
  N      0.705227   -1.984849    0.252082
  N     -2.303255    0.719588    1.646171
  N      2.175778   -0.812829   -1.073701
  N     -1.926489   -0.379671   -0.334758
  C      1.396356    0.175260    0.982999
  C     -0.857563    1.746455    0.054993
  C      0.723960   -0.967553    1.174143
  C     -1.543526    1.782672    1.201196
  C      1.537829    1.229802    2.033742
  C     -0.054810    2.894849   -0.467735
  C      2.221978    0.286280   -0.224879
  C     -1.048623    0.589956   -0.821144
  C      1.414378   -1.952071   -0.932760
  C     -2.507788   -0.425820    0.911766
  H      0.141838   -1.149472    2.065642
  H     -1.501312    2.628673    1.869805
  H      1.372761    2.221547    1.624153
  H      0.834482    1.058049    2.845714
  H      2.547387    1.221360    2.442060
  H     -0.461273    3.233727   -1.418807
  H     -0.073105    3.724702    0.235492
  H      0.979035    2.610611   -0.646077
  H      0.153905   -2.810006    0.405237
  H     -2.760450    0.746640    2.539372
  H      2.682410   -0.731233   -1.940817
  H     -2.052633   -1.196322   -0.911977

 Multiplicity           Mult            ....    1
 Number of Electrons    NEL             ....  132
 Basis Dimension        Dim             ....  882

ORBITAL ENERGIES
----------------

  NO   OCC          E(Eh)            E(eV)
   0   2.0000     -19.329539      -525.9835
   1   2.0000     -19.326903      -525.9118
   2   2.0000     -19.318306      -525.6778
   3   2.0000     -19.316539      -525.6297
   4   2.0000     -14.586660      -396.9232
   5   2.0000     -14.576784      -396.6545
   6   2.0000     -14.572528      -396.5387
   7   2.0000     -14.560886      -396.2218
   8   2.0000     -10.516119      -286.1581
   9   2.0000     -10.504066      -285.8302
  10   2.0000     -10.481313      -285.2110
  11   2.0000     -10.474332      -285.0211
  12   2.0000     -10.430311      -283.8232
  13   2.0000     -10.428989      -283.7872
  14   2.0000     -10.380695      -282.4731
  15   2.0000     -10.378320      -282.4084
  16   2.0000     -10.359490      -281.8960
  17   2.0000     -10.351268      -281.6723
  18   2.0000      -1.229196       -33.4481
  19   2.0000      -1.217515       -33.1303
  20   2.0000      -1.197238       -32.5785
  21   2.0000      -1.187515       -32.3139
  22   2.0000      -1.124862       -30.6091
  23   2.0000      -1.116018       -30.3684
  24   2.0000      -1.072703       -29.1897
  25   2.0000      -1.062248       -28.9052
  26   2.0000      -0.962863       -26.2008
  27   2.0000      -0.951095       -25.8806
  28   2.0000      -0.848727       -23.0950
  29   2.0000      -0.846855       -23.0441
  30   2.0000      -0.812754       -22.1162
  31   2.0000      -0.806934       -21.9578
  32   2.0000      -0.796582       -21.6761
  33   2.0000      -0.787497       -21.4289
  34   2.0000      -0.696820       -18.9614
  35   2.0000      -0.695387       -18.9224
  36   2.0000      -0.691444       -18.8152
  37   2.0000      -0.686830       -18.6896
  38   2.0000      -0.643590       -17.5130
  39   2.0000      -0.637961       -17.3598
  40   2.0000      -0.632742       -17.2178
  41   2.0000      -0.602493       -16.3947
  42   2.0000      -0.599058       -16.3012
  43   2.0000      -0.591367       -16.0919
  44   2.0000      -0.569344       -15.4927
  45   2.0000      -0.565310       -15.3829
  46   2.0000      -0.558375       -15.1942
  47   2.0000      -0.552990       -15.0476
  48   2.0000      -0.548992       -14.9388
  49   2.0000      -0.536713       -14.6047
  50   2.0000      -0.522301       -14.2125
  51   2.0000      -0.518343       -14.1048
  52   2.0000      -0.516925       -14.0662
  53   2.0000      -0.512214       -13.9380
  54   2.0000      -0.504563       -13.7299
  55   2.0000      -0.498199       -13.5567
  56   2.0000      -0.478542       -13.0218
  57   2.0000      -0.471793       -12.8381
  58   2.0000      -0.421939       -11.4815
  59   2.0000      -0.409988       -11.1563
  60   2.0000      -0.406498       -11.0614
  61   2.0000      -0.391812       -10.6618
  62   2.0000      -0.390060       -10.6141
  63   2.0000      -0.382321       -10.4035
  64   2.0000      -0.357521        -9.7286
  65   2.0000      -0.333033        -9.0623
  66   0.0000       0.010402         0.2830
  67   0.0000       0.016778         0.4565
  68   0.0000       0.023419         0.6373
  69   0.0000       0.031203         0.8491
  70   0.0000       0.039842         1.0842

MULLIKEN ATOMIC CHARGES
-----------------------
   0 O :   -0.683170
   1 O :   -0.658681
   2 O :   -0.656313
   3 O :   -0.667308
   4 N :   -0.052208
   5 N :   -0.007831
   6 N :    0.006135
   7 N :   -0.023755
   8 C :    0.825305
   9 C :    0.396370
  10 C :   -0.113512
  11 C :    0.236671
  12 C :   -1.565030
  13 C :   -1.479877
  14 C :    0.430818
  15 C :    0.570643
  16 C :    0.503452
  17 C :    0.477406
  18 H :    0.268306
  19 H :    0.194982
  20 H :    0.233450
  21 H :    0.314512
  22 H :    0.415528
  23 H :    0.379562
  24 H :    0.329453
  25 H :    0.209884
  26 H :    0.024363
  27 H :    0.020428
  28 H :    0.027232
  29 H :    0.043181
Sum of atomic charges:   -0.0000000

LOEWDIN ATOMIC CHARGES
----------------------
   0 O :    0.085462
   1 O :    0.107853
   2 O :    0.091013
   3 O :    0.076438
   4 N :    0.286021
   5 N :    0.283496
   6 N :    0.344186
   7 N :    0.334749
   8 C :   -0.144249
   9 C :   -0.155689
  10 C :    0.043413
  11 C :    0.045138
  12 C :    0.179072
  13 C :    0.185640
  14 C :   -0.395763
  15 C :   -0.399195
  16 C :   -0.473433
  17 C :   -0.491659
  18 H :    0.040680
  19 H :    0.039172
  20 H :   -0.019391
  21 H :   -0.004657
  22 H :    0.006641
  23 H :    0.006580
  24 H :   -0.001440
  25 H :   -0.024435
  26 H :   -0.017036
  27 H :   -0.020840
  28 H :   -0.002363
  29 H :   -0.005404

  Mayer bond orders larger than 0.100000
B(  0-O , 14-C ) :   1.4151 B(  1-O , 15-C ) :   1.4162 B(  2-O , 16-C ) :   1.5601
B(  3-O , 17-C ) :   1.5535 B(  4-N , 10-C ) :   0.9213 B(  4-N , 16-C ) :   1.0217
B(  4-N , 26-H ) :   1.1539 B(  5-N , 11-C ) :   0.9761 B(  5-N , 17-C ) :   1.0379
B(  5-N , 27-H ) :   1.1400 B(  6-N , 14-C ) :   1.0714 B(  6-N , 16-C ) :   0.9770
B(  6-N , 28-H ) :   1.0976 B(  7-N , 15-C ) :   1.0308 B(  7-N , 17-C ) :   0.9553
B(  7-N , 29-H ) :   1.0970 B(  8-C , 10-C ) :   0.9516 B(  8-C , 12-C ) :   0.3032
B(  8-C , 14-C ) :   0.6376 B(  8-C , 15-C ) :  -0.1257 B(  8-C , 18-H ) :  -0.1277
B(  8-C , 20-H ) :  -0.1183 B(  9-C , 11-C ) :   0.9754 B(  9-C , 13-C ) :   0.4478
B(  9-C , 15-C ) :   0.7680 B(  9-C , 24-H ) :  -0.1149 B(  9-C , 25-H ) :  -0.1014
B( 10-C , 12-C ) :  -0.1700 B( 10-C , 18-H ) :   1.1210 B( 11-C , 13-C ) :  -0.2775
B( 11-C , 19-H ) :   1.0733 B( 12-C , 20-H ) :   1.0606 B( 12-C , 21-H ) :   1.0516
B( 12-C , 22-H ) :   0.8068 B( 13-C , 23-H ) :   0.8551 B( 13-C , 24-H ) :   1.0753
B( 13-C , 25-H ) :   0.9773

Dispersion correction           -0.059630867
FINAL SINGLE POINT ENERGY      -908.926879961850

DIPOLE MOMENT
-------------

Method             : SCF
Type of density    : Electron Density
Multiplicity       :   1
Irrep              :   0
Energy             :  -908.8672490949659277 Eh
Relativity type    :
Basis              : AO
                                X                 Y                 Z
Electronic contribution:     -2.171450137      -9.729417860      -5.518128252
Nuclear contribution   :      1.350772784      10.753014918       7.693170486
                        -----------------------------------------
Total Dipole Moment    :     -0.820677353       1.023597058       2.175042234
                        -----------------------------------------
Magnitude (a.u.)       :      2.540092710
Magnitude (Debye)      :      6.456402569

Rotational constants in cm-1:             0.019801             0.014216             0.011308
Rotational constants in MHz :           593.627128           426.185342           339.014579

                             ****ORCA TERMINATED NORMALLY****
TOTAL RUN TIME: 0 days 1 hours 21 minutes 43 seconds 231 msec
