                         Program Version 6.0.0  -   RELEASE  -
|  1> ! Engrad def2-TZVPPD wB97M-D3BJ
|  2> %pal nprocs 8 end%pal nprocs 64 end
|  3>  %tddft nroots 2 Iroot 2
|  4> sf true
|  5> end
|  6> *xyz 0 3
|  7> O   2.64523773022711 1.15266130241571 -0.61837382335691
|  8> O   -0.52983588446591 0.84102181086981 -2.18020735485915
|  9> O   0.56122537743638 -2.77618454640496 -1.5217688678525
| 10> O   -2.47622713348434 -1.67666127535574 1.06108710355495
| 11> N   0.69784741813777 -2.09425076515098 0.64550294384015
| 12> N   -2.21904263999034 0.55873328664703 1.41238186456405
| 13> N   1.73339565140837 -0.88375814115757 -1.02076057084717
| 14> N   -1.58468835209241 -0.37633517889615 -0.58967475065571
| 15> C   1.62711398679591 0.02980378875177 1.2037282579728
| 16> C   -1.00544395208128 1.91956198391558 -0.11856240406902
| 17> C   0.97241588258134 -1.08842388419446 1.54224215356064
| 18> C   -1.66178888597573 1.76320237695778 1.03526271916899
| 19> C   1.92265111075496 1.14330606271057 2.15535909486834
| 20> C   -0.32665287538873 3.18332321602142 -0.53787811936032
| 21> C   2.06085364983271 0.18261253578546 -0.18534779813714
| 22> C   -1.00004767688909 0.80107162991031 -1.06547214157504
| 23> C   0.97007922069346 -1.98438761909994 -0.70095357582865
| 24> C   -2.12254908580787 -0.58782082721682 0.65783627396355
| 25> H   0.61367277212841 -1.26358073187596 2.54538166533998
| 26> H   -1.75286406871587 2.55890776807078 1.7588779522531
| 27> H   1.46202044364079 2.06832092035831 1.81154583484345
| 28> H   1.5485408343099 0.91145526875878 3.15011159405165
| 29> H   2.9933170032103 1.32792185653675 2.21618290358741
| 30> H   -0.74396631355832 3.55286537447881 -1.47227544189651
| 31> H   -0.43120412701473 3.95071485782459 0.22585258000833
| 32> H   0.73225972889844 2.99700516251556 -0.71137390294542
| 33> H   0.04299571344888 -2.81817055832449 0.88879490184355
| 34> H   -2.63275240578824 0.44268212774681 2.31942467296719
| 35> H   1.88847911906209 -0.73709020354363 -2.00659840095556
| 36> H   -1.53244224131395 -1.18350759905522 -1.19572536404906
| 37> *
| 38>
| 39>                          ****END OF INPUT****

CARTESIAN COORDINATES (ANGSTROEM)
---------------------------------
  O      2.645238    1.152661   -0.618374
  O     -0.529836    0.841022   -2.180207
  O      0.561225   -2.776185   -1.521769
  O     -2.476227   -1.676661    1.061087
  N      0.697847   -2.094251    0.645503
  N     -2.219043    0.558733    1.412382
  N      1.733396   -0.883758   -1.020761
  N     -1.584688   -0.376335   -0.589675
  C      1.627114    0.029804    1.203728
  C     -1.005444    1.919562   -0.118562
  C      0.972416   -1.088424    1.542242
  C     -1.661789    1.763202    1.035263
  C      1.922651    1.143306    2.155359
  C     -0.326653    3.183323   -0.537878
  C      2.060854    0.182613   -0.185348
  C     -1.000048    0.801072   -1.065472
  C      0.970079   -1.984388   -0.700954
  C     -2.122549   -0.587821    0.657836
  H      0.613673   -1.263581    2.545382
  H     -1.752864    2.558908    1.758878
  H      1.462020    2.068321    1.811546
  H      1.548541    0.911455    3.150112
  H      2.993317    1.327922    2.216183
  H     -0.743966    3.552865   -1.472275
  H     -0.431204    3.950715    0.225853
  H      0.732260    2.997005   -0.711374
  H      0.042996   -2.818171    0.888795
  H     -2.632752    0.442682    2.319425
  H      1.888479   -0.737090   -2.006598
  H     -1.532442   -1.183508   -1.195725

 Total Charge           Charge          ....    0
 Multiplicity           Mult            ....    3
 Number of Electrons    NEL             ....  132
 Basis Dimension        Dim             ....  882

ORBITAL ENERGIES
----------------
                 SPIN UP ORBITALS
  NO   OCC          E(Eh)            E(eV)
   0   1.0000     -19.331442      -526.0353
   1   1.0000     -19.328182      -525.9466
   2   1.0000     -19.322961      -525.8045
   3   1.0000     -19.316917      -525.6400
   4   1.0000     -14.591895      -397.0657
   5   1.0000     -14.583784      -396.8449
   6   1.0000     -14.570540      -396.4846
   7   1.0000     -14.547242      -395.8506
   8   1.0000     -10.514673      -286.1188
   9   1.0000     -10.508355      -285.9469
  10   1.0000     -10.478749      -285.1412
  11   1.0000     -10.454451      -284.4801
  12   1.0000     -10.432660      -283.8871
  13   1.0000     -10.406809      -283.1837
  14   1.0000     -10.396038      -282.8906
  15   1.0000     -10.381044      -282.4826
  16   1.0000     -10.369901      -282.1794
  17   1.0000     -10.351351      -281.6746
  18   1.0000      -1.228046       -33.4168
  19   1.0000      -1.223645       -33.2971
  20   1.0000      -1.193860       -32.4866
  21   1.0000      -1.187473       -32.3128
  22   1.0000      -1.123770       -30.5793
  23   1.0000      -1.122868       -30.5548
  24   1.0000      -1.070313       -29.1247
  25   1.0000      -1.058718       -28.8092
  26   1.0000      -0.973931       -26.5020
  27   1.0000      -0.956806       -26.0360
  28   1.0000      -0.856470       -23.3057
  29   1.0000      -0.846968       -23.0472
  30   1.0000      -0.810504       -22.0549
  31   1.0000      -0.807901       -21.9841
  32   1.0000      -0.794370       -21.6159
  33   1.0000      -0.786998       -21.4153
  34   1.0000      -0.699366       -19.0307
  35   1.0000      -0.695612       -18.9286
  36   1.0000      -0.691883       -18.8271
  37   1.0000      -0.689370       -18.7587
  38   1.0000      -0.645003       -17.5514
  39   1.0000      -0.637623       -17.3506
  40   1.0000      -0.627190       -17.0667
  41   1.0000      -0.602050       -16.3826
  42   1.0000      -0.597595       -16.2614
  43   1.0000      -0.592284       -16.1169
  44   1.0000      -0.571901       -15.5622
  45   1.0000      -0.568028       -15.4568
  46   1.0000      -0.567942       -15.4545
  47   1.0000      -0.552897       -15.0451
  48   1.0000      -0.549796       -14.9607
  49   1.0000      -0.547522       -14.8988
  50   1.0000      -0.529771       -14.4158
  51   1.0000      -0.524159       -14.2631
  52   1.0000      -0.515803       -14.0357
  53   1.0000      -0.515372       -14.0240
  54   1.0000      -0.508567       -13.8388
  55   1.0000      -0.499116       -13.5816
  56   1.0000      -0.493215       -13.4211
  57   1.0000      -0.478203       -13.0126
  58   1.0000      -0.420906       -11.4534
  59   1.0000      -0.418572       -11.3899
  60   1.0000      -0.405720       -11.0402
  61   1.0000      -0.401115       -10.9149
  62   1.0000      -0.388880       -10.5820
  63   1.0000      -0.385099       -10.4791
  64   1.0000      -0.384194       -10.4544
  65   1.0000      -0.347857        -9.4657
  66   1.0000      -0.207699        -5.6518
  67   0.0000       0.011948         0.3251
  68   0.0000       0.020267         0.5515
  69   0.0000       0.033371         0.9081
  70   0.0000       0.038437         1.0459
  71   0.0000       0.043436         1.1820

                 SPIN DOWN ORBITALS
  NO   OCC          E(Eh)            E(eV)
   0   1.0000     -19.329528      -525.9832
   1   1.0000     -19.328159      -525.9459
   2   1.0000     -19.323010      -525.8058
   3   1.0000     -19.310536      -525.4664
   4   1.0000     -14.586540      -396.9199
   5   1.0000     -14.583589      -396.8396
   6   1.0000     -14.570540      -396.4845
   7   1.0000     -14.546323      -395.8256
   8   1.0000     -10.514683      -286.1191
   9   1.0000     -10.508748      -285.9576
  10   1.0000     -10.478731      -285.1408
  11   1.0000     -10.454090      -284.4703
  12   1.0000     -10.432488      -283.8824
  13   1.0000     -10.397376      -282.9270
  14   1.0000     -10.385898      -282.6147
  15   1.0000     -10.381091      -282.4838
  16   1.0000     -10.370372      -282.1922
  17   1.0000     -10.351330      -281.6740
  18   1.0000      -1.227284       -33.3961
  19   1.0000      -1.219941       -33.1963
  20   1.0000      -1.193815       -32.4854
  21   1.0000      -1.178037       -32.0560
  22   1.0000      -1.122668       -30.5494
  23   1.0000      -1.112628       -30.2761
  24   1.0000      -1.070208       -29.1218
  25   1.0000      -1.053113       -28.6567
  26   1.0000      -0.957167       -26.0458
  27   1.0000      -0.949560       -25.8388
  28   1.0000      -0.846805       -23.0427
  29   1.0000      -0.845338       -23.0028
  30   1.0000      -0.810228       -22.0474
  31   1.0000      -0.797139       -21.6912
  32   1.0000      -0.793842       -21.6015
  33   1.0000      -0.780170       -21.2295
  34   1.0000      -0.695413       -18.9231
  35   1.0000      -0.691900       -18.8276
  36   1.0000      -0.687536       -18.7088
  37   1.0000      -0.681161       -18.5353
  38   1.0000      -0.643413       -17.5081
  39   1.0000      -0.629209       -17.1217
  40   1.0000      -0.621040       -16.8994
  41   1.0000      -0.597628       -16.2623
  42   1.0000      -0.590644       -16.0722
  43   1.0000      -0.584011       -15.8918
  44   1.0000      -0.567951       -15.4547
  45   1.0000      -0.562053       -15.2942
  46   1.0000      -0.556469       -15.1423
  47   1.0000      -0.550518       -14.9804
  48   1.0000      -0.542654       -14.7664
  49   1.0000      -0.540915       -14.7190
  50   1.0000      -0.521228       -14.1833
  51   1.0000      -0.516881       -14.0651
  52   1.0000      -0.514814       -14.0088
  53   1.0000      -0.504825       -13.7370
  54   1.0000      -0.501232       -13.6392
  55   1.0000      -0.496440       -13.5088
  56   1.0000      -0.478110       -13.0100
  57   1.0000      -0.445614       -12.1258
  58   1.0000      -0.420090       -11.4312
  59   1.0000      -0.413813       -11.2604
  60   1.0000      -0.403921       -10.9912
  61   1.0000      -0.387571       -10.5464
  62   1.0000      -0.377883       -10.2827
  63   1.0000      -0.375384       -10.2147
  64   1.0000      -0.347069        -9.4442
  65   0.0000      -0.106000        -2.8844
  66   0.0000       0.011083         0.3016
  67   0.0000       0.020728         0.5640
  68   0.0000       0.030849         0.8394
  69   0.0000       0.036961         1.0058

----------------------------------------------------------------------------------------------------
          SPIN FLIP ABSORPTION SPECTRUM VIA TRANSITION ELECTRIC DIPOLE MOMENTS
----------------------------------------------------------------------------------------------------
     Transition      Energy     Energy  Wavelength fosc(D2)      D2        DX        DY        DZ
                      (eV)      (cm-1)    (nm)                 (au**2)    (au)      (au)      (au)
----------------------------------------------------------------------------------------------------
  1-3A  ->  2-3A    4.258130   34344.1   291.2   0.001791574   0.01717   0.05888   0.08749  -0.07779

Dispersion correction             ... done (  0.1 sec)

MULLIKEN ATOMIC CHARGES AND SPIN DENSITIES
------------------------------------------
   0 O :   -0.689072    0.007837
   1 O :   -0.653850   -0.000207
   2 O :   -0.613041    0.005219
   3 O :   -0.665646    0.000860
   4 N :    0.044392    0.034478
   5 N :   -0.015739   -0.004759
   6 N :   -0.004101   -0.014013
   7 N :    0.024921   -0.002236
   8 C :    1.188652    0.089527
   9 C :    0.505375    0.016623
  10 C :   -0.309076    0.003495
  11 C :    0.071214   -0.010375
  12 C :   -1.314376   -0.013308
  13 C :   -1.417368    0.002863
  14 C :    0.183173   -0.102459
  15 C :    0.615082   -0.011134
  16 C :    0.374264    0.001985
  17 C :    0.427659   -0.001686
  18 H :    0.099996   -0.019266
  19 H :    0.141031    0.000434
  20 H :    0.224345    0.010635
  21 H :    0.346401   -0.001528
  22 H :    0.337912    0.007367
  23 H :    0.356789   -0.000013
  24 H :    0.331656    0.000069
  25 H :    0.222304   -0.000281
  26 H :    0.087003   -0.002026
  27 H :    0.021740    0.001135
  28 H :    0.036005    0.001975
  29 H :    0.042356   -0.001212
Sum of atomic charges       :    0.0000000

LOEWDIN ATOMIC CHARGES AND SPIN DENSITIES
-----------------------------------------
   0 O :    0.072178    0.005726
   1 O :    0.103966    0.000072
   2 O :    0.107401    0.003900
   3 O :    0.071229   -0.000165
   4 N :    0.314061    0.025333
   5 N :    0.276613   -0.001986
   6 N :    0.315813   -0.008455
   7 N :    0.342555   -0.000346
   8 C :   -0.097401    0.007754
   9 C :   -0.137595    0.000131
  10 C :    0.007639   -0.016022
  11 C :    0.056009   -0.001008
  12 C :    0.210944    0.002157
  13 C :    0.181366    0.000133
  14 C :   -0.437314   -0.009417
  15 C :   -0.390858   -0.000098
  16 C :   -0.478420   -0.002599
  17 C :   -0.488122   -0.000426
  18 H :    0.004342   -0.007400
  19 H :    0.035416   -0.000235
  20 H :   -0.001717    0.001031
  21 H :   -0.005638   -0.000546
  22 H :    0.013191    0.001128
  23 H :    0.001410    0.000036
  24 H :   -0.006663   -0.000028
  25 H :   -0.011756    0.000017
  26 H :   -0.011248    0.002464
  27 H :   -0.022570   -0.000168
  28 H :   -0.010155   -0.000946
  29 H :   -0.014674   -0.000037

  Mayer bond orders larger than 0.100000
B(  0-O , 14-C ) :   1.2823 B(  1-O , 15-C ) :   1.4239 B(  2-O , 16-C ) :   1.5818
B(  3-O , 17-C ) :   1.5361 B(  4-N , 10-C ) :   0.8840 B(  4-N , 16-C ) :   0.9387
B(  4-N , 26-H ) :   1.0802 B(  5-N , 11-C ) :   0.9661 B(  5-N , 17-C ) :   1.0425
B(  5-N , 27-H ) :   1.1329 B(  6-N , 14-C ) :   0.8746 B(  6-N , 16-C ) :   0.9194
B(  6-N , 28-H ) :   1.1015 B(  7-N , 15-C ) :   0.9859 B(  7-N , 17-C ) :   0.9361
B(  7-N , 29-H ) :   1.1136 B(  8-C , 10-C ) :   0.4940 B(  8-C , 12-C ) :   0.3763
B(  8-C , 14-C ) :   0.9004 B(  8-C , 18-H ) :  -0.1397 B(  8-C , 21-H ) :  -0.1005
B(  9-C , 11-C ) :   1.2187 B(  9-C , 13-C ) :   0.3807 B(  9-C , 15-C ) :   0.8550
B(  9-C , 25-H ) :  -0.1113 B( 10-C , 18-H ) :   1.2166 B( 11-C , 13-C ) :  -0.1881
B( 11-C , 19-H ) :   1.0932 B( 12-C , 20-H ) :   0.9927 B( 12-C , 21-H ) :   0.9747
B( 12-C , 22-H ) :   0.9089 B( 13-C , 23-H ) :   0.9097 B( 13-C , 24-H ) :   1.0125
B( 13-C , 25-H ) :   1.0156

Dispersion correction           -0.057955792
FINAL SINGLE POINT ENERGY      -908.771384642225

DIPOLE MOMENT
-------------

Method             : TDA/CIS
Type of density    : Electron Density
Level              : Relaxed density
State              :   2
Multiplicity       :   3
Irrep              :   0
Energy             :     0.0000000000000000 Eh
Relativity type    :
Basis              : AO
                                X                 Y                 Z
Electronic contribution:     -2.609037449     -10.201185286      -5.876778215
Nuclear contribution   :      1.893418102      11.124424600       8.373447868
                        -----------------------------------------
Total Dipole Moment    :     -0.715619347       0.923239314       2.496669653
                        -----------------------------------------
Magnitude (a.u.)       :      2.756418190
Magnitude (Debye)      :      7.006258242

Rotational constants in cm-1:             0.017255             0.015801             0.012858
Rotational constants in MHz :           517.296498           473.710165           385.480835

                             ****ORCA TERMINATED NORMALLY****
TOTAL RUN TIME: 0 days 0 hours 5 minutes 55 seconds 678 msec
