                         Program Version 6.0.0  -   RELEASE  -
|  1> ! Engrad def2-TZVPPD wB97M-D3BJ
|  2> %pal nprocs 8 end%pal nprocs 64 end
|  3> %tddft
|  4>  Iroot 2 Nroots 3
|  5> sf true
|  6> end
|  7> *xyz 0 3
|  8> O   3.73069788 0.12432281 0.35369052
|  9> O   -0.8301119 0.84139042 -2.67067851
| 10> O   0.54359811 -2.45003187 -1.35792784
| 11> O   -3.51826022 -1.28369628 0.31707964
| 12> N   0.03996773 -1.41958783 0.59749361
| 13> N   -2.20177982 0.3896167 1.02185409
| 14> N   2.06263554 -1.10636709 -0.47493971
| 15> N   -2.2723756 -0.15299148 -1.2661835
| 16> C   1.63388305 0.33687616 1.41213714
| 17> C   -0.54619438 1.28716967 -0.41595118
| 18> C   0.22356675 -0.19970436 1.43169143
| 19> C   -0.95337877 0.95968248 0.97272518
| 20> C   2.07486661 1.47249806 2.30606929
| 21> C   0.52685793 2.30651419 -0.65304983
| 22> C   2.53675196 -0.21081484 0.43551176
| 23> C   -1.20096411 0.70024782 -1.52151216
| 24> C   0.77939651 -1.66581419 -0.51425293
| 25> C   -2.77420302 -0.42747666 0.00254451
| 26> H   -0.19083099 -0.39858458 2.36711633
| 27> H   -0.83847435 1.69404864 1.69968913
| 28> H   3.09606058 1.20366636 2.82178815
| 29> H   2.10233482 2.38160615 1.71115656
| 30> H   1.39727087 1.6258679 3.07030241
| 31> H   1.3491191 1.76992071 -0.99966887
| 32> H   0.16395441 2.94261483 -1.52464641
| 33> H   0.69018781 3.00109228 0.19903462
| 34> H   -0.84518749 -1.83952382 0.51234073
| 35> H   -2.5361373 0.07372073 1.90826885
| 36> H   2.65188428 -1.30685771 -1.27710484
| 37> H   -2.47534535 -0.74024133 -2.09698168
| 38> *
| 39>
| 40>                          ****END OF INPUT****

CARTESIAN COORDINATES (ANGSTROEM)
---------------------------------
  O      3.730698    0.124323    0.353691
  O     -0.830112    0.841390   -2.670679
  O      0.543598   -2.450032   -1.357928
  O     -3.518260   -1.283696    0.317080
  N      0.039968   -1.419588    0.597494
  N     -2.201780    0.389617    1.021854
  N      2.062636   -1.106367   -0.474940
  N     -2.272376   -0.152991   -1.266183
  C      1.633883    0.336876    1.412137
  C     -0.546194    1.287170   -0.415951
  C      0.223567   -0.199704    1.431691
  C     -0.953379    0.959682    0.972725
  C      2.074867    1.472498    2.306069
  C      0.526858    2.306514   -0.653050
  C      2.536752   -0.210815    0.435512
  C     -1.200964    0.700248   -1.521512
  C      0.779397   -1.665814   -0.514253
  C     -2.774203   -0.427477    0.002545
  H     -0.190831   -0.398585    2.367116
  H     -0.838474    1.694049    1.699689
  H      3.096061    1.203666    2.821788
  H      2.102335    2.381606    1.711157
  H      1.397271    1.625868    3.070302
  H      1.349119    1.769921   -0.999669
  H      0.163954    2.942615   -1.524646
  H      0.690188    3.001092    0.199035
  H     -0.845187   -1.839524    0.512341
  H     -2.536137    0.073721    1.908269
  H      2.651884   -1.306858   -1.277105
  H     -2.475345   -0.740241   -2.096982

 Total Charge           Charge          ....    0
 Multiplicity           Mult            ....    3
 Number of Electrons    NEL             ....  132
 Basis Dimension        Dim             ....  882

ORBITAL ENERGIES
----------------
                 SPIN UP ORBITALS
  NO   OCC          E(Eh)            E(eV)
   0   1.0000     -19.339535      -526.2555
   1   1.0000     -19.335200      -526.1375
   2   1.0000     -19.322536      -525.7929
   3   1.0000     -19.319380      -525.7071
   4   1.0000     -14.570834      -396.4926
   5   1.0000     -14.560434      -396.2096
   6   1.0000     -14.559661      -396.1885
   7   1.0000     -14.554726      -396.0542
   8   1.0000     -10.518764      -286.2301
   9   1.0000     -10.496723      -285.6303
  10   1.0000     -10.477935      -285.1191
  11   1.0000     -10.473273      -284.9923
  12   1.0000     -10.447986      -284.3042
  13   1.0000     -10.441437      -284.1259
  14   1.0000     -10.424388      -283.6620
  15   1.0000     -10.417678      -283.4794
  16   1.0000     -10.382115      -282.5117
  17   1.0000     -10.376046      -282.3466
  18   1.0000      -1.243232       -33.8301
  19   1.0000      -1.231125       -33.5006
  20   1.0000      -1.208591       -32.8874
  21   1.0000      -1.185219       -32.2514
  22   1.0000      -1.128488       -30.7077
  23   1.0000      -1.101006       -29.9599
  24   1.0000      -1.070920       -29.1412
  25   1.0000      -1.054025       -28.6815
  26   1.0000      -0.980415       -26.6785
  27   1.0000      -0.955503       -26.0006
  28   1.0000      -0.884940       -24.0805
  29   1.0000      -0.846156       -23.0251
  30   1.0000      -0.831001       -22.6127
  31   1.0000      -0.808229       -21.9930
  32   1.0000      -0.790322       -21.5057
  33   1.0000      -0.781768       -21.2730
  34   1.0000      -0.701207       -19.0808
  35   1.0000      -0.699054       -19.0222
  36   1.0000      -0.688750       -18.7418
  37   1.0000      -0.678300       -18.4575
  38   1.0000      -0.651383       -17.7250
  39   1.0000      -0.648758       -17.6536
  40   1.0000      -0.629343       -17.1253
  41   1.0000      -0.603440       -16.4204
  42   1.0000      -0.599137       -16.3033
  43   1.0000      -0.594100       -16.1663
  44   1.0000      -0.579210       -15.7611
  45   1.0000      -0.577351       -15.7105
  46   1.0000      -0.573535       -15.6067
  47   1.0000      -0.568189       -15.4612
  48   1.0000      -0.562153       -15.2970
  49   1.0000      -0.556395       -15.1403
  50   1.0000      -0.551433       -15.0053
  51   1.0000      -0.546994       -14.8845
  52   1.0000      -0.535720       -14.5777
  53   1.0000      -0.522117       -14.2075
  54   1.0000      -0.514405       -13.9977
  55   1.0000      -0.502648       -13.6778
  56   1.0000      -0.493677       -13.4336
  57   1.0000      -0.438684       -11.9372
  58   1.0000      -0.421922       -11.4811
  59   1.0000      -0.416777       -11.3411
  60   1.0000      -0.410764       -11.1775
  61   1.0000      -0.402865       -10.9625
  62   1.0000      -0.399203       -10.8629
  63   1.0000      -0.388069       -10.5599
  64   1.0000      -0.380260       -10.3474
  65   1.0000      -0.354540        -9.6475
  66   1.0000      -0.311334        -8.4718
  67   0.0000       0.009511         0.2588
  68   0.0000       0.030805         0.8383
  69   0.0000       0.035254         0.9593
  70   0.0000       0.036344         0.9890
  71   0.0000       0.055750         1.5170

                 SPIN DOWN ORBITALS
  NO   OCC          E(Eh)            E(eV)
   0   1.0000     -19.339450      -526.2532
   1   1.0000     -19.330089      -525.9985
   2   1.0000     -19.319321      -525.7054
   3   1.0000     -19.318131      -525.6731
   4   1.0000     -14.570274      -396.4773
   5   1.0000     -14.560151      -396.2018
   6   1.0000     -14.559773      -396.1916
   7   1.0000     -14.554003      -396.0346
   8   1.0000     -10.518822      -286.2317
   9   1.0000     -10.496777      -285.6318
  10   1.0000     -10.478831      -285.1435
  11   1.0000     -10.474339      -285.0213
  12   1.0000     -10.447107      -284.2802
  13   1.0000     -10.440633      -284.1041
  14   1.0000     -10.413263      -283.3593
  15   1.0000     -10.406929      -283.1869
  16   1.0000     -10.382708      -282.5278
  17   1.0000     -10.376442      -282.3574
  18   1.0000      -1.242652       -33.8143
  19   1.0000      -1.230681       -33.4885
  20   1.0000      -1.201664       -32.6990
  21   1.0000      -1.179430       -32.0939
  22   1.0000      -1.125695       -30.6317
  23   1.0000      -1.099033       -29.9062
  24   1.0000      -1.068759       -29.0824
  25   1.0000      -1.052052       -28.6278
  26   1.0000      -0.966485       -26.2994
  27   1.0000      -0.938250       -25.5311
  28   1.0000      -0.879740       -23.9389
  29   1.0000      -0.841722       -22.9044
  30   1.0000      -0.821884       -22.3646
  31   1.0000      -0.802552       -21.8386
  32   1.0000      -0.788567       -21.4580
  33   1.0000      -0.780605       -21.2413
  34   1.0000      -0.696521       -18.9533
  35   1.0000      -0.694116       -18.8878
  36   1.0000      -0.683291       -18.5933
  37   1.0000      -0.671947       -18.2846
  38   1.0000      -0.644887       -17.5483
  39   1.0000      -0.639629       -17.4052
  40   1.0000      -0.623640       -16.9701
  41   1.0000      -0.599876       -16.3235
  42   1.0000      -0.593912       -16.1612
  43   1.0000      -0.589777       -16.0486
  44   1.0000      -0.573732       -15.6120
  45   1.0000      -0.567609       -15.4454
  46   1.0000      -0.567187       -15.4339
  47   1.0000      -0.562450       -15.3050
  48   1.0000      -0.553661       -15.0659
  49   1.0000      -0.546710       -14.8767
  50   1.0000      -0.544011       -14.8033
  51   1.0000      -0.536212       -14.5911
  52   1.0000      -0.530427       -14.4336
  53   1.0000      -0.513144       -13.9634
  54   1.0000      -0.503076       -13.6894
  55   1.0000      -0.498204       -13.5568
  56   1.0000      -0.488007       -13.2793
  57   1.0000      -0.434687       -11.8284
  58   1.0000      -0.419717       -11.4211
  59   1.0000      -0.408745       -11.1225
  60   1.0000      -0.402405       -10.9500
  61   1.0000      -0.395968       -10.7748
  62   1.0000      -0.383855       -10.4452
  63   1.0000      -0.380127       -10.3438
  64   1.0000      -0.363026        -9.8784
  65   0.0000      -0.073891        -2.0107
  66   0.0000      -0.045833        -1.2472
  67   0.0000       0.009018         0.2454
  68   0.0000       0.030427         0.8280
  69   0.0000       0.034913         0.9500

----------------------------------------------------------------------------------------------------
          SPIN FLIP ABSORPTION SPECTRUM VIA TRANSITION ELECTRIC DIPOLE MOMENTS
----------------------------------------------------------------------------------------------------
     Transition      Energy     Energy  Wavelength fosc(D2)      D2        DX        DY        DZ
                      (eV)      (cm-1)    (nm)                 (au**2)    (au)      (au)      (au)
----------------------------------------------------------------------------------------------------
  1-3A  ->  2-3A    0.271075    2186.4  4573.8   0.000236830   0.03566  -0.16151   0.02984  -0.09320
  1-3A  ->  3-3A    2.214907   17864.4   559.8   0.005118542   0.09433   0.22205   0.15474  -0.14518

Dispersion correction             ... done (  0.1 sec)

MULLIKEN ATOMIC CHARGES AND SPIN DENSITIES
------------------------------------------
   0 O :   -0.706914   -0.011045
   1 O :   -0.687951    0.020517
   2 O :   -0.616211    0.000484
   3 O :   -0.565510   -0.000094
   4 N :   -0.164330   -0.008046
   5 N :   -0.320113    0.000499
   6 N :   -0.004656   -0.006863
   7 N :   -0.032496    0.002069
   8 C :    0.600876    0.314713
   9 C :    0.567009    0.287136
  10 C :   -0.083057   -0.158519
  11 C :    0.230011   -0.132807
  12 C :   -1.391655   -0.033182
  13 C :   -1.317734   -0.014654
  14 C :    0.233630   -0.167180
  15 C :    0.080477   -0.128199
  16 C :    0.450252    0.009406
  17 C :    0.330688    0.007911
  18 H :    0.648212   -0.018260
  19 H :    0.604418    0.003739
  20 H :    0.355970    0.002462
  21 H :    0.247189    0.008499
  22 H :    0.368345    0.001924
  23 H :    0.312269    0.011746
  24 H :    0.440086    0.007677
  25 H :    0.184202   -0.003070
  26 H :    0.061083   -0.000841
  27 H :    0.064539    0.000759
  28 H :    0.028397    0.001803
  29 H :    0.082975    0.001420
Sum of atomic charges       :    0.0000000

LOEWDIN ATOMIC CHARGES AND SPIN DENSITIES
-----------------------------------------
   0 O :    0.055137   -0.009933
   1 O :    0.099911    0.017761
   2 O :    0.134412    0.000368
   3 O :    0.127559   -0.000108
   4 N :    0.315922   -0.000279
   5 N :    0.265238   -0.001902
   6 N :    0.322116   -0.006130
   7 N :    0.324643   -0.000309
   8 C :   -0.017638   -0.036015
   9 C :   -0.020535    0.053574
  10 C :   -0.001313   -0.002467
  11 C :   -0.096719   -0.002173
  12 C :    0.197608   -0.005242
  13 C :    0.208822    0.003495
  14 C :   -0.434302   -0.012452
  15 C :   -0.436629    0.005465
  16 C :   -0.520273    0.000050
  17 C :   -0.478452   -0.000455
  18 H :    0.003438   -0.001802
  19 H :    0.016504   -0.000217
  20 H :    0.074113   -0.001119
  21 H :   -0.013563   -0.001213
  22 H :   -0.061461    0.000084
  23 H :   -0.038978    0.001263
  24 H :    0.046628    0.000631
  25 H :    0.012916    0.000110
  26 H :   -0.074717   -0.000077
  27 H :   -0.039801   -0.000364
  28 H :    0.003790   -0.000541
  29 H :    0.025625   -0.000003

  Mayer bond orders larger than 0.100000
B(  0-O , 14-C ) :   1.2917 B(  1-O , 15-C ) :   1.2417 B(  2-O , 16-C ) :   1.4960
B(  3-O , 17-C ) :   1.6459 B(  4-N , 10-C ) :   0.5904 B(  4-N , 16-C ) :   0.9961
B(  4-N , 26-H ) :   1.0166 B(  5-N ,  9-C ) :   0.1379 B(  5-N , 11-C ) :   0.3078
B(  5-N , 17-C ) :   1.1189 B(  5-N , 19-H ) :  -0.1148 B(  5-N , 27-H ) :   1.0358
B(  6-N ,  8-C ) :  -0.1596 B(  6-N , 14-C ) :   1.0742 B(  6-N , 16-C ) :   0.9232
B(  6-N , 28-H ) :   1.1167 B(  7-N ,  9-C ) :  -0.1494 B(  7-N , 15-C ) :   1.1002
B(  7-N , 17-C ) :   0.9094 B(  7-N , 29-H ) :   1.0713 B(  8-C ,  9-C ) :   0.1217
B(  8-C , 10-C ) :   0.8274 B(  8-C , 11-C ) :   0.2057 B(  8-C , 12-C ) :   0.3300
B(  8-C , 14-C ) :   0.6875 B(  8-C , 16-C ) :   0.1112 B(  8-C , 22-H ) :  -0.1854
B(  9-C , 10-C ) :   0.1987 B(  9-C , 11-C ) :   0.5400 B(  9-C , 13-C ) :   0.3420
B(  9-C , 15-C ) :   0.8961 B(  9-C , 19-H ) :  -0.1829 B(  9-C , 25-H ) :  -0.1551
B( 10-C , 11-C ) :   0.4936 B( 10-C , 18-H ) :   0.5698 B( 11-C , 13-C ) :  -0.2064
B( 11-C , 15-C ) :  -0.1220 B( 11-C , 17-C ) :  -0.1435 B( 11-C , 19-H ) :   0.7758
B( 12-C , 20-H ) :   0.9049 B( 12-C , 21-H ) :   0.8621 B( 12-C , 22-H ) :   1.1037
B( 13-C , 15-C ) :   0.1050 B( 13-C , 23-H ) :   0.8951 B( 13-C , 24-H ) :   0.7873
B( 13-C , 25-H ) :   1.2428

Dispersion correction           -0.060325552
FINAL SINGLE POINT ENERGY      -908.764851773055

DIPOLE MOMENT
-------------

Method             : TDA/CIS
Type of density    : Electron Density
Level              : Relaxed density
State              :   2
Multiplicity       :   3
Irrep              :   0
Energy             :     0.0000000000000000 Eh
Relativity type    :
Basis              : AO
                                X                 Y                 Z
Electronic contribution:     -4.977495567      -8.709060341      -5.956550662
Nuclear contribution   :      4.366013985      10.209437314       8.067660176
                        -----------------------------------------
Total Dipole Moment    :     -0.611481582       1.500376973       2.111109514
                        -----------------------------------------
Magnitude (a.u.)       :      2.661169699
Magnitude (Debye)      :      6.764155817

Rotational constants in cm-1:             0.022528             0.012573             0.011829
Rotational constants in MHz :           675.377074           376.922197           354.621644

                             ****ORCA TERMINATED NORMALLY****
TOTAL RUN TIME: 0 days 0 hours 5 minutes 40 seconds 468 msec
