                         Program Version 6.0.0  -   RELEASE  -
|  1> ! Engrad def2-TZVPPD wB97M-D3BJ
|  2> %pal nprocs 8 end%pal nprocs 64 end
|  3> %tddft
|  4>  Iroot 2 Nroots 3
|  5> sf true
|  6> end
|  7> *xyz 0 3
|  8> O   0.4256893 1.13200425 0.67958883
|  9> C   0.38598344 -0.28311355 0.419428
| 10> C   0.40681974 -0.74927048 -0.96066491
| 11> H   -0.39119493 -0.64061918 1.00010332
| 12> H   1.37599332 -0.63461798 0.84008797
| 13> H   -0.45158611 -1.23815029 -1.32611425
| 14> H   1.03290459 -0.3081492 -1.68812629
| 15> *
| 16>
| 17>                          ****END OF INPUT****

CARTESIAN COORDINATES (ANGSTROEM)
---------------------------------
  O      0.425689    1.132004    0.679589
  C      0.385983   -0.283114    0.419428
  C      0.406820   -0.749270   -0.960665
  H     -0.391195   -0.640619    1.000103
  H      1.375993   -0.634618    0.840088
  H     -0.451586   -1.238150   -1.326114
  H      1.032905   -0.308149   -1.688126

 Total Charge           Charge          ....    0
 Multiplicity           Mult            ....    3
 Number of Electrons    NEL             ....   24
 Basis Dimension        Dim             ....  182

ORBITAL ENERGIES
----------------
                 SPIN UP ORBITALS
  NO   OCC          E(Eh)            E(eV)
   0   1.0000     -19.389399      -527.6124
   1   1.0000     -10.408332      -283.2251
   2   1.0000     -10.366302      -282.0814
   3   1.0000      -1.144822       -31.1522
   4   1.0000      -0.892804       -24.2944
   5   1.0000      -0.740322       -20.1452
   6   1.0000      -0.621471       -16.9111
   7   1.0000      -0.569279       -15.4909
   8   1.0000      -0.558262       -15.1911
   9   1.0000      -0.519141       -14.1265
  10   1.0000      -0.444107       -12.0848
  11   1.0000      -0.418320       -11.3831
  12   1.0000      -0.333530        -9.0758
  13   0.0000       0.041868         1.1393
  14   0.0000       0.062136         1.6908
  15   0.0000       0.078360         2.1323
  16   0.0000       0.088619         2.4115
  17   0.0000       0.113669         3.0931

                 SPIN DOWN ORBITALS
  NO   OCC          E(Eh)            E(eV)
   0   1.0000     -19.364215      -526.9271
   1   1.0000     -10.409650      -283.2610
   2   1.0000     -10.353189      -281.7246
   3   1.0000      -1.086540       -29.5663
   4   1.0000      -0.859974       -23.4011
   5   1.0000      -0.716010       -19.4836
   6   1.0000      -0.599220       -16.3056
   7   1.0000      -0.538405       -14.6507
   8   1.0000      -0.522685       -14.2230
   9   1.0000      -0.490037       -13.3346
  10   1.0000      -0.387245       -10.5375
  11   0.0000      -0.048815        -1.3283
  12   0.0000      -0.010662        -0.2901
  13   0.0000       0.041219         1.1216
  14   0.0000       0.062348         1.6966
  15   0.0000       0.078698         2.1415

----------------------------------------------------------------------------------------------------
          SPIN FLIP ABSORPTION SPECTRUM VIA TRANSITION ELECTRIC DIPOLE MOMENTS
----------------------------------------------------------------------------------------------------
     Transition      Energy     Energy  Wavelength fosc(D2)      D2        DX        DY        DZ
                      (eV)      (cm-1)    (nm)                 (au**2)    (au)      (au)      (au)
----------------------------------------------------------------------------------------------------
  1-3A  ->  2-3A    0.125646    1013.4  9867.8   0.000185432   0.06024  -0.05748  -0.17261  -0.16475
  1-3A  ->  3-3A    0.885146    7139.2  1400.7   0.005121454   0.23617  -0.00094   0.41576   0.25161

Dispersion correction             ... done (  0.1 sec)

MULLIKEN ATOMIC CHARGES AND SPIN DENSITIES
------------------------------------------
   0 O :   -0.332490   -0.199150
   1 C :   -0.041340    0.007810
   2 C :   -0.531417    0.203889
   3 H :    0.228140   -0.058062
   4 H :    0.201558    0.051757
   5 H :    0.205237    0.000484
   6 H :    0.270312   -0.006728
Sum of atomic charges       :    0.0000000

LOEWDIN ATOMIC CHARGES AND SPIN DENSITIES
-----------------------------------------
   0 O :    0.010214   -0.198877
   1 C :   -0.214106   -0.000443
   2 C :    0.318786    0.174679
   3 H :   -0.032722   -0.034805
   4 H :    0.045971    0.023350
   5 H :   -0.068297    0.019056
   6 H :   -0.059845    0.017040

  Mayer bond orders larger than 0.100000
B(  0-O ,  1-C ) :   0.8370 B(  0-O ,  2-C ) :   0.1771 B(  1-C ,  2-C ) :   0.7149
B(  1-C ,  3-H ) :   0.9856 B(  1-C ,  4-H ) :   0.9697 B(  2-C ,  5-H ) :   0.9934
B(  2-C ,  6-H ) :   0.9629

Dispersion correction           -0.005520117
FINAL SINGLE POINT ENERGY      -153.741279300311

DIPOLE MOMENT
-------------

Method             : TDA/CIS
Type of density    : Electron Density
Level              : Relaxed density
State              :   2
Multiplicity       :   3
Irrep              :   0
Energy             :     0.0000000000000000 Eh
Relativity type    :
Basis              : AO
                                X                 Y                 Z
Electronic contribution:      0.026049086       2.001801157       1.046236597
Nuclear contribution   :     -0.056244655      -2.875537036      -1.364101462
                        -----------------------------------------
Total Dipole Moment    :     -0.030195569      -0.873735879      -0.317864865
                        -----------------------------------------
Magnitude (a.u.)       :      0.930249553
Magnitude (Debye)      :      2.364506452

Rotational constants in cm-1:             1.544621             0.326287             0.294197
Rotational constants in MHz :         46306.564625          9781.839217          8819.804688

                             ****ORCA TERMINATED NORMALLY****
TOTAL RUN TIME: 0 days 0 hours 0 minutes 26 seconds 763 msec
