                         Program Version 6.0.0  -   RELEASE  -
|  1> ! Engrad def2-TZVPPD wB97M-D3BJ
|  2> %pal nprocs 8 end%pal nprocs 64 end
|  3> %tddft
|  4>  Iroot 2 Nroots 3
|  5> sf true
|  6> end
|  7> *xyz 0 3
|  8> O   -0.61751185 0.00761343 0.58828212
|  9> C   0.54196514 0.56206152 0.1143957
| 10> C   1.38592602 -0.41234243 -0.5525476
| 11> H   1.14175274 0.95533964 0.97372318
| 12> H   0.24004725 1.42081991 -0.41780672
| 13> H   1.81704098 -1.09431499 0.10089679
| 14> H   1.5595758 -0.44658114 -1.59882935
| 15> *
| 16>
| 17>                          ****END OF INPUT****

CARTESIAN COORDINATES (ANGSTROEM)
---------------------------------
  O     -0.617512    0.007613    0.588282
  C      0.541965    0.562062    0.114396
  C      1.385926   -0.412342   -0.552548
  H      1.141753    0.955340    0.973723
  H      0.240047    1.420820   -0.417807
  H      1.817041   -1.094315    0.100897
  H      1.559576   -0.446581   -1.598829

 Total Charge           Charge          ....    0
 Multiplicity           Mult            ....    3
 Number of Electrons    NEL             ....   24
 Basis Dimension        Dim             ....  182

ORBITAL ENERGIES
----------------
                 SPIN UP ORBITALS
  NO   OCC          E(Eh)            E(eV)
   0   1.0000     -19.385484      -527.5058
   1   1.0000     -10.404076      -283.1093
   2   1.0000     -10.357555      -281.8434
   3   1.0000      -1.168923       -31.8080
   4   1.0000      -0.885623       -24.0990
   5   1.0000      -0.739586       -20.1252
   6   1.0000      -0.629113       -17.1190
   7   1.0000      -0.584389       -15.9020
   8   1.0000      -0.553767       -15.0688
   9   1.0000      -0.529516       -14.4089
  10   1.0000      -0.434110       -11.8127
  11   1.0000      -0.413870       -11.2620
  12   1.0000      -0.326638        -8.8883
  13   0.0000       0.041021         1.1163
  14   0.0000       0.062441         1.6991
  15   0.0000       0.075858         2.0642
  16   0.0000       0.088607         2.4111
  17   0.0000       0.115525         3.1436

                 SPIN DOWN ORBITALS
  NO   OCC          E(Eh)            E(eV)
   0   1.0000     -19.360796      -526.8341
   1   1.0000     -10.405428      -283.1461
   2   1.0000     -10.344622      -281.4915
   3   1.0000      -1.114029       -30.3143
   4   1.0000      -0.851677       -23.1753
   5   1.0000      -0.714480       -19.4420
   6   1.0000      -0.600673       -16.3451
   7   1.0000      -0.551687       -15.0122
   8   1.0000      -0.527690       -14.3592
   9   1.0000      -0.493493       -13.4286
  10   1.0000      -0.381652       -10.3853
  11   0.0000      -0.052584        -1.4309
  12   0.0000      -0.002500        -0.0680
  13   0.0000       0.039878         1.0851
  14   0.0000       0.062291         1.6950
  15   0.0000       0.075556         2.0560

----------------------------------------------------------------------------------------------------
          SPIN FLIP ABSORPTION SPECTRUM VIA TRANSITION ELECTRIC DIPOLE MOMENTS
----------------------------------------------------------------------------------------------------
     Transition      Energy     Energy  Wavelength fosc(D2)      D2        DX        DY        DZ
                      (eV)      (cm-1)    (nm)                 (au**2)    (au)      (au)      (au)
----------------------------------------------------------------------------------------------------
  1-3A  ->  2-3A    0.216485    1746.1  5727.1   0.000077521   0.01462   0.08626  -0.07184  -0.04487
  1-3A  ->  3-3A    0.984656    7941.8  1259.2   0.014651298   0.60734   0.67058  -0.07929  -0.38908

Dispersion correction             ... done (  0.2 sec)

MULLIKEN ATOMIC CHARGES AND SPIN DENSITIES
------------------------------------------
   0 O :   -0.336410    0.771282
   1 C :   -0.122251    0.073284
   2 C :   -0.185319   -0.696108
   3 H :    0.175896    0.009504
   4 H :    0.231616    0.005248
   5 H :    0.119811   -0.094267
   6 H :    0.116657   -0.068945
Sum of atomic charges       :   -0.0000000

LOEWDIN ATOMIC CHARGES AND SPIN DENSITIES
-----------------------------------------
   0 O :    0.065328    0.724699
   1 C :   -0.266277   -0.005957
   2 C :    0.322602   -0.580935
   3 H :    0.054607    0.022866
   4 H :   -0.007838    0.010847
   5 H :   -0.092554   -0.084404
   6 H :   -0.075867   -0.087116

  Mayer bond orders larger than 0.100000
B(  0-O ,  1-C ) :   0.8826 B(  1-C ,  2-C ) :   0.8499 B(  1-C ,  3-H ) :   0.9313
B(  1-C ,  4-H ) :   0.9697 B(  2-C ,  5-H ) :   1.0333 B(  2-C ,  6-H ) :   1.0370

Dispersion correction           -0.005586156
FINAL SINGLE POINT ENERGY      -153.746184616536

DIPOLE MOMENT
-------------

Method             : TDA/CIS
Type of density    : Electron Density
Level              : Relaxed density
State              :   2
Multiplicity       :   3
Irrep              :   0
Energy             :     0.0000000000000000 Eh
Relativity type    :
Basis              : AO
                                X                 Y                 Z
Electronic contribution:     -2.264463598      -0.203715108       0.976416834
Nuclear contribution   :      2.909481075       0.547523171      -1.148723984
                        -----------------------------------------
Total Dipole Moment    :      0.645017477       0.343808063      -0.172307150
                        -----------------------------------------
Magnitude (a.u.)       :      0.750960241
Magnitude (Debye)      :      1.908789239

Rotational constants in cm-1:             1.446222             0.361521             0.322099
Rotational constants in MHz :         43356.651588         10838.119730          9656.271072

                             ****ORCA TERMINATED NORMALLY****
TOTAL RUN TIME: 0 days 0 hours 0 minutes 27 seconds 58 msec
