                         Program Version 6.0.0  -   RELEASE  -
|  1> ! Engrad def2-TZVPPD wB97M-D3BJ
|  2> %pal nprocs 8 end%pal nprocs 64 end
|  3> %tddft
|  4>  Iroot 2 Nroots 3
|  5> sf true
|  6> end
|  7> *xyz 0 3
|  8> O   1.1373766 -0.81028743 0.28249086
|  9> C   0.44665079 0.37429767 0.51263004
| 10> C   -0.44309383 0.69792599 -0.6234128
| 11> H   1.12720506 1.25422416 0.77294389
| 12> H   -0.18891237 0.07360413 1.36142321
| 13> H   -0.43593547 1.6213586 -1.09586655
| 14> H   -1.1698679 0.01642535 -1.00979491
| 15> *
| 16>
| 17>                          ****END OF INPUT****

CARTESIAN COORDINATES (ANGSTROEM)
---------------------------------
  O      1.137377   -0.810287    0.282491
  C      0.446651    0.374298    0.512630
  C     -0.443094    0.697926   -0.623413
  H      1.127205    1.254224    0.772944
  H     -0.188912    0.073604    1.361423
  H     -0.435935    1.621359   -1.095867
  H     -1.169868    0.016425   -1.009795

 Total Charge           Charge          ....    0
 Multiplicity           Mult            ....    3
 Number of Electrons    NEL             ....   24
 Basis Dimension        Dim             ....  182

ORBITAL ENERGIES
----------------
                 SPIN UP ORBITALS
  NO   OCC          E(Eh)            E(eV)
   0   1.0000     -19.389288      -527.6093
   1   1.0000     -10.418588      -283.5042
   2   1.0000     -10.363966      -282.0179
   3   1.0000      -1.163280       -31.6545
   4   1.0000      -0.879943       -23.9445
   5   1.0000      -0.736584       -20.0435
   6   1.0000      -0.618176       -16.8214
   7   1.0000      -0.586447       -15.9580
   8   1.0000      -0.554687       -15.0938
   9   1.0000      -0.514881       -14.0106
  10   1.0000      -0.442784       -12.0488
  11   1.0000      -0.414545       -11.2803
  12   1.0000      -0.327243        -8.9047
  13   0.0000       0.041959         1.1418
  14   0.0000       0.061437         1.6718
  15   0.0000       0.076947         2.0938
  16   0.0000       0.088501         2.4082
  17   0.0000       0.113804         3.0968

                 SPIN DOWN ORBITALS
  NO   OCC          E(Eh)            E(eV)
   0   1.0000     -19.364601      -526.9376
   1   1.0000     -10.419887      -283.5396
   2   1.0000     -10.350494      -281.6513
   3   1.0000      -1.107367       -30.1330
   4   1.0000      -0.845471       -23.0064
   5   1.0000      -0.709327       -19.3018
   6   1.0000      -0.594542       -16.1783
   7   1.0000      -0.544577       -14.8187
   8   1.0000      -0.527274       -14.3478
   9   1.0000      -0.493302       -13.4234
  10   1.0000      -0.384325       -10.4580
  11   0.0000      -0.050410        -1.3717
  12   0.0000      -0.003688        -0.1003
  13   0.0000       0.041146         1.1196
  14   0.0000       0.061495         1.6734
  15   0.0000       0.076882         2.0921

----------------------------------------------------------------------------------------------------
          SPIN FLIP ABSORPTION SPECTRUM VIA TRANSITION ELECTRIC DIPOLE MOMENTS
----------------------------------------------------------------------------------------------------
     Transition      Energy     Energy  Wavelength fosc(D2)      D2        DX        DY        DZ
                      (eV)      (cm-1)    (nm)                 (au**2)    (au)      (au)      (au)
----------------------------------------------------------------------------------------------------
  1-3A  ->  2-3A    0.114691     925.0  10810.3   0.000162066   0.05768   0.08643  -0.19329   0.11335
  1-3A  ->  3-1A    1.010908    8153.5  1226.5   0.016289591   0.65772  -0.57869   0.53050  -0.20347

Dispersion correction             ... done (  0.2 sec)

MULLIKEN ATOMIC CHARGES AND SPIN DENSITIES
------------------------------------------
   0 O :   -0.336332    0.590790
   1 C :   -0.060870    0.056859
   2 C :   -0.297492   -0.569916
   3 H :    0.231163   -0.005925
   4 H :    0.148162    0.022083
   5 H :    0.161377   -0.027330
   6 H :    0.153991   -0.066560
Sum of atomic charges       :   -0.0000000

LOEWDIN ATOMIC CHARGES AND SPIN DENSITIES
-----------------------------------------
   0 O :    0.027237    0.549214
   1 C :   -0.244375   -0.001416
   2 C :    0.301573   -0.451053
   3 H :    0.059293    0.005514
   4 H :    0.032934    0.029085
   5 H :   -0.109198   -0.071455
   6 H :   -0.067463   -0.059888

  Mayer bond orders larger than 0.100000
B(  0-O ,  1-C ) :   0.8900 B(  1-C ,  2-C ) :   0.8780 B(  1-C ,  3-H ) :   0.9444
B(  1-C ,  4-H ) :   0.9465 B(  2-C ,  5-H ) :   1.0091 B(  2-C ,  6-H ) :   1.0184

Dispersion correction           -0.005510543
FINAL SINGLE POINT ENERGY      -153.748673453698

DIPOLE MOMENT
-------------

Method             : TDA/CIS
Type of density    : Electron Density
Level              : Relaxed density
State              :   2
Multiplicity       :   3
Irrep              :   0
Energy             :     0.0000000000000000 Eh
Relativity type    :
Basis              : AO
                                X                 Y                 Z
Electronic contribution:      1.701954955      -1.873960903       0.423850399
Nuclear contribution   :     -2.111763960       2.521926067      -0.244091589
                        -----------------------------------------
Total Dipole Moment    :     -0.409809005       0.647965164       0.179758810
                        -----------------------------------------
Magnitude (a.u.)       :      0.787474129
Magnitude (Debye)      :      2.001600166

Rotational constants in cm-1:             1.392837             0.354832             0.309994
Rotational constants in MHz :         41756.208011         10637.584202          9293.379362

                             ****ORCA TERMINATED NORMALLY****
TOTAL RUN TIME: 0 days 0 hours 0 minutes 26 seconds 516 msec
