                         Program Version 6.0.0  -   RELEASE  -
|  1> ! Engrad def2-TZVPPD wB97M-D3BJ
|  2> %pal nprocs 8 end%pal nprocs 32 end
|  3> %tddft Nroots 2 Iroot 2
|  4> sf true
|  5> end
|  6> *xyz 0 3
|  7> O   0.0983771 0.85844283 -0.00051294
|  8> C   0.68671219 -0.39418655 0.00017371
|  9> C   -0.73379626 -0.547028 0.00075817
| 10> H   1.2397575 -0.64267614 0.90496941
| 11> H   1.23782248 -0.63203463 -0.91094071
| 12> H   -1.26297275 -0.67293268 -0.9266294
| 13> H   -1.25975404 -0.66138654 0.92907126
| 14> *
| 15>
| 16>                          ****END OF INPUT****

CARTESIAN COORDINATES (ANGSTROEM)
---------------------------------
  O      0.098377    0.858443   -0.000513
  C      0.686712   -0.394187    0.000174
  C     -0.733796   -0.547028    0.000758
  H      1.239757   -0.642676    0.904969
  H      1.237822   -0.632035   -0.910941
  H     -1.262973   -0.672933   -0.926629
  H     -1.259754   -0.661387    0.929071

 Total Charge           Charge          ....    0
 Multiplicity           Mult            ....    3
 Number of Electrons    NEL             ....   24
 Basis Dimension        Dim             ....  182

ORBITAL ENERGIES
----------------
                 SPIN UP ORBITALS
  NO   OCC          E(Eh)            E(eV)
   0   1.0000     -19.447025      -529.1805
   1   1.0000     -10.416274      -283.4412
   2   1.0000     -10.345848      -281.5248
   3   1.0000      -1.261173       -34.3183
   4   1.0000      -0.859101       -23.3773
   5   1.0000      -0.763022       -20.7629
   6   1.0000      -0.670058       -18.2332
   7   1.0000      -0.632439       -17.2095
   8   1.0000      -0.554199       -15.0805
   9   1.0000      -0.500629       -13.6228
  10   1.0000      -0.488203       -13.2847
  11   1.0000      -0.465360       -12.6631
  12   1.0000      -0.179078        -4.8730
  13   0.0000       0.038666         1.0522
  14   0.0000       0.062284         1.6948
  15   0.0000       0.071658         1.9499
  16   0.0000       0.086547         2.3551
  17   0.0000       0.111331         3.0295

                 SPIN DOWN ORBITALS
  NO   OCC          E(Eh)            E(eV)
   0   1.0000     -19.414071      -528.2837
   1   1.0000     -10.416814      -283.4559
   2   1.0000     -10.335372      -281.2398
   3   1.0000      -1.193162       -32.4676
   4   1.0000      -0.824704       -22.4413
   5   1.0000      -0.744254       -20.2522
   6   1.0000      -0.619643       -16.8614
   7   1.0000      -0.597761       -16.2659
   8   1.0000      -0.518271       -14.1029
   9   1.0000      -0.477711       -12.9992
  10   1.0000      -0.424919       -11.5626
  11   0.0000      -0.099789        -2.7154
  12   0.0000       0.034364         0.9351
  13   0.0000       0.058093         1.5808
  14   0.0000       0.059607         1.6220
  15   0.0000       0.066442         1.8080

----------------------------------------------------------------------------------------------------
          SPIN FLIP ABSORPTION SPECTRUM VIA TRANSITION ELECTRIC DIPOLE MOMENTS
----------------------------------------------------------------------------------------------------
     Transition      Energy     Energy  Wavelength fosc(D2)      D2        DX        DY        DZ
                      (eV)      (cm-1)    (nm)                 (au**2)    (au)      (au)      (au)
----------------------------------------------------------------------------------------------------
  1-3A  ->  2-3A    5.439241   43870.4   227.9   0.005488266   0.04118  -0.00172  -0.00125   0.20293

Dispersion correction             ... done (  0.1 sec)

MULLIKEN ATOMIC CHARGES AND SPIN DENSITIES
------------------------------------------
   0 O :   -0.287397    0.450139
   1 C :    0.082604    0.260227
   2 C :    0.106715   -0.036283
   3 H :    0.195946    0.012710
   4 H :    0.193443    0.011470
   5 H :   -0.143823   -0.345909
   6 H :   -0.147487   -0.352353
Sum of atomic charges       :    0.0000000

LOEWDIN ATOMIC CHARGES AND SPIN DENSITIES
-----------------------------------------
   0 O :    0.086648    0.561442
   1 C :   -0.074242    0.028574
   2 C :    0.091741   -0.393412
   3 H :    0.021897    0.005402
   4 H :    0.023459    0.005985
   5 H :   -0.074002   -0.104154
   6 H :   -0.075500   -0.103837

  Mayer bond orders larger than 0.100000
B(  0-O ,  1-C ) :   0.7760 B(  0-O ,  2-C ) :   0.6436 B(  1-C ,  2-C ) :   0.6604
B(  1-C ,  3-H ) :   0.9915 B(  1-C ,  4-H ) :   0.9895 B(  2-C ,  5-H ) :   1.0252
B(  2-C ,  6-H ) :   1.0319 B(  5-H ,  6-H ) :   0.4158

Dispersion correction           -0.005238372
FINAL SINGLE POINT ENERGY      -153.656678807309

DIPOLE MOMENT
-------------

Method             : TDA/CIS
Type of density    : Electron Density
Level              : Relaxed density
State              :   2
Multiplicity       :   3
Irrep              :   0
Energy             :     0.0000000000000000 Eh
Relativity type    :
Basis              : AO
                                X                 Y                 Z
Electronic contribution:      0.711700039       2.279597962       0.003346892
Nuclear contribution   :     -0.123249794      -2.417878665      -0.003269957
                        -----------------------------------------
Total Dipole Moment    :      0.588450245      -0.138280703       0.000076935
                        -----------------------------------------
Magnitude (a.u.)       :      0.604479321
Magnitude (Debye)      :      1.536464330

Rotational constants in cm-1:             0.881356             0.668934             0.449147
Rotational constants in MHz :         26422.392370         20054.135070         13465.088641

                             ****ORCA TERMINATED NORMALLY****
TOTAL RUN TIME: 0 days 0 hours 0 minutes 17 seconds 381 msec
