                         Program Version 6.0.0  -   RELEASE  -
|  1> ! Engrad wB97M-D3BJ def2-TZVPPD
|  2> %pal nprocs 8 end%pal nprocs 16 end
|  3> %tddft nroots 2 Iroot 1
|  4>  sf true
|  5> end
|  6> *xyz 0 3
|  7> O   0.7477311673326 1.00554621485707 -0.00016843647075
|  8> C   0.76885136360066 -0.33289691933958 -0.00010218058732
|  9> C   -0.64444537872364 -0.59649605621392 6.170741637e-05
| 10> H   1.26471237335618 -0.76567670530167 0.88184190703671
| 11> H   1.26454649706453 -0.76589695223121 -0.88206148830526
| 12> H   -1.20430852846194 -0.53543131198183 -0.92342633657398
| 13> H   -1.20376409174294 -0.53485585146542 0.92385482748424
| 14> *
| 15>
| 16>                          ****END OF INPUT****

CARTESIAN COORDINATES (ANGSTROEM)
---------------------------------
  O      0.747731    1.005546   -0.000168
  C      0.768851   -0.332897   -0.000102
  C     -0.644445   -0.596496    0.000062
  H      1.264712   -0.765677    0.881842
  H      1.264546   -0.765897   -0.882061
  H     -1.204309   -0.535431   -0.923426
  H     -1.203764   -0.534856    0.923855

 Total Charge           Charge          ....    0
 Multiplicity           Mult            ....    3
 Number of Electrons    NEL             ....   24
 Basis Dimension        Dim             ....  182

ORBITAL ENERGIES
----------------
                 SPIN UP ORBITALS
  NO   OCC          E(Eh)            E(eV)
   0   1.0000     -19.397102      -527.8220
   1   1.0000     -10.406931      -283.1870
   2   1.0000     -10.349103      -281.6134
   3   1.0000      -1.196145       -32.5488
   4   1.0000      -0.873722       -23.7752
   5   1.0000      -0.736100       -20.0303
   6   1.0000      -0.636286       -17.3142
   7   1.0000      -0.596230       -16.2242
   8   1.0000      -0.554805       -15.0970
   9   1.0000      -0.513540       -13.9741
  10   1.0000      -0.441029       -12.0010
  11   1.0000      -0.425619       -11.5817
  12   1.0000      -0.304990        -8.2992
  13   0.0000       0.041197         1.1210
  14   0.0000       0.063408         1.7254
  15   0.0000       0.073655         2.0043
  16   0.0000       0.086820         2.3625
  17   0.0000       0.117365         3.1937

                 SPIN DOWN ORBITALS
  NO   OCC          E(Eh)            E(eV)
   0   1.0000     -19.370927      -527.1097
   1   1.0000     -10.408230      -283.2223
   2   1.0000     -10.336289      -281.2647
   3   1.0000      -1.139327       -31.0027
   4   1.0000      -0.839933       -22.8557
   5   1.0000      -0.712776       -19.3956
   6   1.0000      -0.596816       -16.2402
   7   1.0000      -0.562305       -15.3011
   8   1.0000      -0.532810       -14.4985
   9   1.0000      -0.477060       -12.9815
  10   1.0000      -0.384652       -10.4669
  11   0.0000      -0.067011        -1.8235
  12   0.0000       0.013471         0.3666
  13   0.0000       0.040052         1.0899
  14   0.0000       0.064116         1.7447
  15   0.0000       0.073051         1.9878

----------------------------------------------------------------------------------------------------
          SPIN FLIP ABSORPTION SPECTRUM VIA TRANSITION ELECTRIC DIPOLE MOMENTS
----------------------------------------------------------------------------------------------------
     Transition      Energy     Energy  Wavelength fosc(D2)      D2        DX        DY        DZ
                      (eV)      (cm-1)    (nm)                 (au**2)    (au)      (au)      (au)
----------------------------------------------------------------------------------------------------
  1-3A  ->  2-3A    1.286171   10373.7   964.0   0.000239924   0.00761   0.00001   0.00004   0.08726

Dispersion correction             ... done (  0.0 sec)

MULLIKEN ATOMIC CHARGES AND SPIN DENSITIES
------------------------------------------
   0 O :   -0.531392   -0.335742
   1 C :   -0.125114   -0.043093
   2 C :   -0.292000    0.232086
   3 H :    0.231323    0.039326
   4 H :    0.231373    0.039309
   5 H :    0.242878    0.034048
   6 H :    0.242931    0.034066
Sum of atomic charges       :   -0.0000000

LOEWDIN ATOMIC CHARGES AND SPIN DENSITIES
-----------------------------------------
   0 O :   -0.051755   -0.346973
   1 C :   -0.388090    0.016277
   2 C :    0.393231    0.259789
   3 H :    0.028199    0.007200
   4 H :    0.028213    0.007186
   5 H :   -0.004899    0.028260
   6 H :   -0.004899    0.028261

  Mayer bond orders larger than 0.100000
B(  0-O ,  1-C ) :   0.7836 B(  0-O ,  2-C ) :   0.7498 B(  1-C ,  2-C ) :   0.7683
B(  1-C ,  3-H ) :   1.0196 B(  1-C ,  4-H ) :   1.0195 B(  2-C ,  5-H ) :   0.9426
B(  2-C ,  6-H ) :   0.9426

Dispersion correction           -0.005657077
FINAL SINGLE POINT ENERGY      -153.785114081258

DIPOLE MOMENT
-------------

Method             : TDA/CIS
Type of density    : Electron Density
Level              : Relaxed density
State              :   1
Multiplicity       :   3
Irrep              :   0
Energy             :     0.0000000000000000 Eh
Relativity type    :
Basis              : AO
                                X                 Y                 Z
Electronic contribution:      0.246067685       1.245543658      -0.000261662
Nuclear contribution   :     -1.036578653      -2.623014675       0.000447534
                        -----------------------------------------
Total Dipole Moment    :     -0.790510968      -1.377471016       0.000185872
                        -----------------------------------------
Magnitude (a.u.)       :      1.588185765
Magnitude (Debye)      :      4.036847402

Rotational constants in cm-1:             1.180131             0.435522             0.363192
Rotational constants in MHz :         35379.433529         13056.633294         10888.212562

                             ****ORCA TERMINATED NORMALLY****
TOTAL RUN TIME: 0 days 0 hours 0 minutes 16 seconds 371 msec
