                         Program Version 6.0.0  -   RELEASE  -
|  1> ! Opt wB97M-D3BJ def2-TZVPPD
|  2> %pal nprocs 8 end %pal nprocs 64 end
|  3> %geom
|  4> Constraints
|  5>     {A 2 1 0 59.09090909090909 C }
|  6> end
|  7> MaxIter 500
|  8> end
|  9> *xyz 0 1
| 10> O   -0.0007 0.8141 0.0
| 11> C   0.7509 -0.4065 0.0
| 12> C   -0.7502 -0.4076 0.0
| 13> H   1.2625 -0.6786 0.9136
| 14> H   1.2625 -0.6787 -0.9136
| 15> H   -1.2614 -0.6806 -0.9136
| 16> H   -1.2614 -0.6805 0.9136
| 17> *
| 18>
| 19>                          ****END OF INPUT****
 Total Charge           Charge          ....    0
 Multiplicity           Mult            ....    1
 Number of Electrons    NEL             ....   24
Dispersion correction           -0.005207958
FINAL SINGLE POINT ENERGY      -153.887556882369
Dispersion correction             ... done (  0.1 sec)
Dispersion correction           -0.005217925
FINAL SINGLE POINT ENERGY      -153.889458954387
Dispersion correction             ... done (  0.1 sec)
Dispersion correction           -0.005224822
FINAL SINGLE POINT ENERGY      -153.889698881069
Dispersion correction             ... done (  0.1 sec)
Dispersion correction           -0.005224872
FINAL SINGLE POINT ENERGY      -153.889708577153
Dispersion correction             ... done (  0.1 sec)
Dispersion correction           -0.005225098
FINAL SINGLE POINT ENERGY      -153.889712586733
Dispersion correction             ... done (  0.2 sec)
                    ***********************HURRAY********************

CARTESIAN COORDINATES (ANGSTROEM)
---------------------------------
  O     -0.000880    0.782496   -0.000044
  C      0.731099   -0.438333    0.000080
  C     -0.730500   -0.439271   -0.000077
  H      1.263541   -0.654792    0.917474
  H      1.263394   -0.654898   -0.917392
  H     -1.262303   -0.656816   -0.917600
  H     -1.262152   -0.656786    0.917559

 Multiplicity           Mult            ....    1
 Number of Electrons    NEL             ....   24
 Basis Dimension        Dim             ....  182

ORBITAL ENERGIES
----------------

  NO   OCC          E(Eh)            E(eV)
   0   2.0000     -19.352203      -526.6002
   1   2.0000     -10.399566      -282.9866
   2   2.0000     -10.399274      -282.9786
   3   2.0000      -1.209965       -32.9248
   4   2.0000      -0.803860       -21.8741
   5   2.0000      -0.757392       -20.6097
   6   2.0000      -0.631776       -17.1915
   7   2.0000      -0.595449       -16.2030
   8   2.0000      -0.505978       -13.7684
   9   2.0000      -0.490808       -13.3556
  10   2.0000      -0.422668       -11.5014
  11   2.0000      -0.385649       -10.4940
  12   0.0000       0.042686         1.1615
  13   0.0000       0.058754         1.5988
  14   0.0000       0.075407         2.0519
  15   0.0000       0.078006         2.1226
  16   0.0000       0.113870         3.0986

MULLIKEN ATOMIC CHARGES
-----------------------
   0 O :   -0.381414
   1 C :   -0.171248
   2 C :   -0.170880
   3 H :    0.180873
   4 H :    0.180858
   5 H :    0.180917
   6 H :    0.180894
Sum of atomic charges:   -0.0000000

LOEWDIN ATOMIC CHARGES
----------------------
   0 O :   -0.031284
   1 C :   -0.005643
   2 C :   -0.006138
   3 H :    0.010746
   4 H :    0.010743
   5 H :    0.010790
   6 H :    0.010786

  Mayer bond orders larger than 0.100000
B(  0-O ,  1-C ) :   0.8266 B(  0-O ,  2-C ) :   0.8265 B(  1-C ,  2-C ) :   0.8187
B(  1-C ,  3-H ) :   1.0163 B(  1-C ,  4-H ) :   1.0164 B(  2-C ,  5-H ) :   1.0164
B(  2-C ,  6-H ) :   1.0165

Dispersion correction           -0.005225146
FINAL SINGLE POINT ENERGY      -153.889712670930

DIPOLE MOMENT
-------------

Method             : SCF
Type of density    : Electron Density
Multiplicity       :   1
Irrep              :   0
Energy             :  -153.8844875252804343 Eh
Relativity type    :
Basis              : AO
                                X                 Y                 Z
Electronic contribution:     -0.001882111       1.642606036      -0.000063966
Nuclear contribution   :      0.002689188      -2.392578662       0.000091982
                        -----------------------------------------
Total Dipole Moment    :      0.000807077      -0.749972626       0.000028016
                        -----------------------------------------
Magnitude (a.u.)       :      0.749973061
Magnitude (Debye)      :      1.906280026

Rotational constants in cm-1:             0.862729             0.744143             0.476134
Rotational constants in MHz :         25863.978378         22308.847486         14274.140454

                             ****ORCA TERMINATED NORMALLY****
TOTAL RUN TIME: 0 days 0 hours 1 minutes 20 seconds 404 msec
