                         Program Version 6.0.0  -   RELEASE  -
|  1> ! Engrad def2-TZVPPD wB97M-D3BJ
|  2> %pal nprocs 8 end%pal nprocs 64 end
|  3> %tddft Nroots 2 Iroot 2
|  4> sf true
|  5> end
|  6> *xyz 0 3
|  7> O   2.84482567 1.04282252 -0.61441324
|  8> O   -0.23328852 0.82535049 -2.01253308
|  9> O   0.42228983 -2.53818972 -1.63952371
| 10> O   -2.61387961 -1.7514889 0.70868787
| 11> N   0.50627728 -2.03576652 0.61001344
| 12> N   -2.4077359 0.49294651 1.23475499
| 13> N   1.90730605 -0.95659119 -0.87544529
| 14> N   -1.66233965 -0.31834654 -0.75933401
| 15> C   1.62464717 0.09381377 1.21491935
| 16> C   -0.92215072 1.85509439 0.01519533
| 17> C   0.81456136 -1.04943975 1.5199914
| 18> C   -1.7419751 1.67375704 1.05634383
| 19> C   1.91344016 1.11801207 2.27552663
| 20> C   0.00589608 3.00502279 -0.14169967
| 21> C   2.12446459 0.18501129 -0.11272192
| 22> C   -0.92177319 0.82069438 -1.02737029
| 23> C   0.89529269 -1.87004517 -0.74578858
| 24> C   -2.22758914 -0.65196952 0.4260934
| 25> H   0.36422657 -1.2175369 2.46927592
| 26> H   -1.95824214 2.44864512 1.76025582
| 27> H   1.02094585 1.43386795 2.77373233
| 28> H   2.59523164 0.74880116 3.08347478
| 29> H   2.4693004 1.98114278 1.78036494
| 30> H   0.11280174 3.28115545 -1.20445466
| 31> H   -0.39928108 3.86471166 0.42877125
| 32> H   1.02736044 2.67267484 0.19797557
| 33> H   -0.30566103 -2.69129015 0.71268377
| 34> H   -2.92241162 0.24270854 2.08166182
| 35> H   2.29214414 -0.88990671 -1.80215345
| 36> H   -1.40180014 -1.08743617 -1.35952028
| 37> *
| 38>
| 39>                          ****END OF INPUT****

CARTESIAN COORDINATES (ANGSTROEM)
---------------------------------
  O      2.844826    1.042823   -0.614413
  O     -0.233289    0.825350   -2.012533
  O      0.422290   -2.538190   -1.639524
  O     -2.613880   -1.751489    0.708688
  N      0.506277   -2.035767    0.610013
  N     -2.407736    0.492947    1.234755
  N      1.907306   -0.956591   -0.875445
  N     -1.662340   -0.318347   -0.759334
  C      1.624647    0.093814    1.214919
  C     -0.922151    1.855094    0.015195
  C      0.814561   -1.049440    1.519991
  C     -1.741975    1.673757    1.056344
  C      1.913440    1.118012    2.275527
  C      0.005896    3.005023   -0.141700
  C      2.124465    0.185011   -0.112722
  C     -0.921773    0.820694   -1.027370
  C      0.895293   -1.870045   -0.745789
  C     -2.227589   -0.651970    0.426093
  H      0.364227   -1.217537    2.469276
  H     -1.958242    2.448645    1.760256
  H      1.020946    1.433868    2.773732
  H      2.595232    0.748801    3.083475
  H      2.469300    1.981143    1.780365
  H      0.112802    3.281155   -1.204455
  H     -0.399281    3.864712    0.428771
  H      1.027360    2.672675    0.197976
  H     -0.305661   -2.691290    0.712684
  H     -2.922412    0.242709    2.081662
  H      2.292144   -0.889907   -1.802153
  H     -1.401800   -1.087436   -1.359520

 Total Charge           Charge          ....    0
 Multiplicity           Mult            ....    3
 Number of Electrons    NEL             ....  132
 Basis Dimension        Dim             ....  882

ORBITAL ENERGIES
----------------
                 SPIN UP ORBITALS
  NO   OCC          E(Eh)            E(eV)
   0   1.0000     -19.334867      -526.1285
   1   1.0000     -19.334408      -526.1160
   2   1.0000     -19.325219      -525.8660
   3   1.0000     -19.320239      -525.7304
   4   1.0000     -14.585441      -396.8900
   5   1.0000     -14.581106      -396.7721
   6   1.0000     -14.564731      -396.3265
   7   1.0000     -14.547302      -395.8522
   8   1.0000     -10.514058      -286.1021
   9   1.0000     -10.508550      -285.9522
  10   1.0000     -10.474338      -285.0212
  11   1.0000     -10.461363      -284.6682
  12   1.0000     -10.431579      -283.8577
  13   1.0000     -10.420199      -283.5480
  14   1.0000     -10.401390      -283.0362
  15   1.0000     -10.379751      -282.4474
  16   1.0000     -10.377531      -282.3870
  17   1.0000     -10.356628      -281.8182
  18   1.0000      -1.235166       -33.6106
  19   1.0000      -1.221749       -33.2455
  20   1.0000      -1.200742       -32.6739
  21   1.0000      -1.189303       -32.3626
  22   1.0000      -1.124372       -30.5957
  23   1.0000      -1.113226       -30.2924
  24   1.0000      -1.070783       -29.1375
  25   1.0000      -1.056298       -28.7433
  26   1.0000      -0.965611       -26.2756
  27   1.0000      -0.954496       -25.9732
  28   1.0000      -0.848305       -23.0836
  29   1.0000      -0.844820       -22.9887
  30   1.0000      -0.812695       -22.1146
  31   1.0000      -0.805375       -21.9154
  32   1.0000      -0.791861       -21.5476
  33   1.0000      -0.781224       -21.2582
  34   1.0000      -0.694628       -18.9018
  35   1.0000      -0.689691       -18.7674
  36   1.0000      -0.685519       -18.6539
  37   1.0000      -0.681244       -18.5376
  38   1.0000      -0.650288       -17.6952
  39   1.0000      -0.633478       -17.2378
  40   1.0000      -0.618036       -16.8176
  41   1.0000      -0.601805       -16.3760
  42   1.0000      -0.596111       -16.2210
  43   1.0000      -0.594095       -16.1661
  44   1.0000      -0.574605       -15.6358
  45   1.0000      -0.571347       -15.5471
  46   1.0000      -0.564671       -15.3655
  47   1.0000      -0.554132       -15.0787
  48   1.0000      -0.550238       -14.9727
  49   1.0000      -0.545746       -14.8505
  50   1.0000      -0.533244       -14.5103
  51   1.0000      -0.524546       -14.2736
  52   1.0000      -0.520213       -14.1557
  53   1.0000      -0.512655       -13.9501
  54   1.0000      -0.501766       -13.6538
  55   1.0000      -0.491326       -13.3696
  56   1.0000      -0.484255       -13.1773
  57   1.0000      -0.480849       -13.0846
  58   1.0000      -0.428103       -11.6493
  59   1.0000      -0.423294       -11.5184
  60   1.0000      -0.407897       -11.0994
  61   1.0000      -0.398965       -10.8564
  62   1.0000      -0.391439       -10.6516
  63   1.0000      -0.387061       -10.5325
  64   1.0000      -0.380835       -10.3631
  65   1.0000      -0.341128        -9.2826
  66   1.0000      -0.227992        -6.2040
  67   0.0000       0.012482         0.3397
  68   0.0000       0.019360         0.5268
  69   0.0000       0.034626         0.9422
  70   0.0000       0.037740         1.0270
  71   0.0000       0.044773         1.2183

                 SPIN DOWN ORBITALS
  NO   OCC          E(Eh)            E(eV)
   0   1.0000     -19.334864      -526.1284
   1   1.0000     -19.332797      -526.0722
   2   1.0000     -19.320288      -525.7318
   3   1.0000     -19.318231      -525.6758
   4   1.0000     -14.580918      -396.7670
   5   1.0000     -14.580555      -396.7571
   6   1.0000     -14.564754      -396.3271
   7   1.0000     -14.546548      -395.8317
   8   1.0000     -10.514050      -286.1018
   9   1.0000     -10.508780      -285.9584
  10   1.0000     -10.474320      -285.0207
  11   1.0000     -10.461642      -284.6757
  12   1.0000     -10.431357      -283.8517
  13   1.0000     -10.410482      -283.2836
  14   1.0000     -10.390920      -282.7513
  15   1.0000     -10.380250      -282.4610
  16   1.0000     -10.377538      -282.3872
  17   1.0000     -10.356621      -281.8180
  18   1.0000      -1.235000       -33.6060
  19   1.0000      -1.218181       -33.1484
  20   1.0000      -1.200733       -32.6736
  21   1.0000      -1.179740       -32.1024
  22   1.0000      -1.124159       -30.5899
  23   1.0000      -1.103149       -30.0182
  24   1.0000      -1.070628       -29.1333
  25   1.0000      -1.049700       -28.5638
  26   1.0000      -0.955571       -26.0024
  27   1.0000      -0.941783       -25.6272
  28   1.0000      -0.844873       -22.9902
  29   1.0000      -0.837927       -22.8012
  30   1.0000      -0.805300       -21.9133
  31   1.0000      -0.797773       -21.7085
  32   1.0000      -0.791477       -21.5372
  33   1.0000      -0.775729       -21.1087
  34   1.0000      -0.693966       -18.8838
  35   1.0000      -0.685038       -18.6408
  36   1.0000      -0.681895       -18.5553
  37   1.0000      -0.670248       -18.2384
  38   1.0000      -0.647203       -17.6113
  39   1.0000      -0.628203       -17.0943
  40   1.0000      -0.612284       -16.6611
  41   1.0000      -0.596687       -16.2367
  42   1.0000      -0.590015       -16.0551
  43   1.0000      -0.586614       -15.9626
  44   1.0000      -0.571152       -15.5418
  45   1.0000      -0.562536       -15.3074
  46   1.0000      -0.556461       -15.1421
  47   1.0000      -0.550056       -14.9678
  48   1.0000      -0.547283       -14.8923
  49   1.0000      -0.536957       -14.6113
  50   1.0000      -0.525070       -14.2879
  51   1.0000      -0.518044       -14.0967
  52   1.0000      -0.512885       -13.9563
  53   1.0000      -0.502438       -13.6720
  54   1.0000      -0.494800       -13.4642
  55   1.0000      -0.490350       -13.3431
  56   1.0000      -0.479540       -13.0489
  57   1.0000      -0.441792       -12.0218
  58   1.0000      -0.426170       -11.5967
  59   1.0000      -0.416998       -11.3471
  60   1.0000      -0.405899       -11.0451
  61   1.0000      -0.387157       -10.5351
  62   1.0000      -0.383352       -10.4315
  63   1.0000      -0.376935       -10.2569
  64   1.0000      -0.341225        -9.2852
  65   0.0000      -0.098113        -2.6698
  66   0.0000       0.011556         0.3145
  67   0.0000       0.020191         0.5494
  68   0.0000       0.028895         0.7863
  69   0.0000       0.036398         0.9904

----------------------------------------------------------------------------------------------------
          SPIN FLIP ABSORPTION SPECTRUM VIA TRANSITION ELECTRIC DIPOLE MOMENTS
----------------------------------------------------------------------------------------------------
     Transition      Energy     Energy  Wavelength fosc(D2)      D2        DX        DY        DZ
                      (eV)      (cm-1)    (nm)                 (au**2)    (au)      (au)      (au)
----------------------------------------------------------------------------------------------------
  1-3A  ->  2-3A    3.466634   27960.3   357.7   0.001347514   0.01587   0.06537   0.07555  -0.07672

Dispersion correction             ... done (  0.1 sec)

MULLIKEN ATOMIC CHARGES AND SPIN DENSITIES
------------------------------------------
   0 O :   -0.691441    0.011333
   1 O :   -0.610086   -0.000055
   2 O :   -0.605426    0.000292
   3 O :   -0.641599    0.000499
   4 N :   -0.027414    0.027539
   5 N :   -0.052461   -0.001647
   6 N :   -0.033386   -0.009496
   7 N :   -0.041307    0.000183
   8 C :    1.167739    0.098880
   9 C :    0.421651    0.010330
  10 C :   -0.366379    0.090004
  11 C :    0.007430   -0.002448
  12 C :   -1.427246   -0.036880
  13 C :   -1.120380   -0.000738
  14 C :    0.245907   -0.175820
  15 C :    0.651277   -0.009952
  16 C :    0.285398    0.004856
  17 C :    0.345522   -0.005503
  18 H :    0.199715   -0.016931
  19 H :    0.182229   -0.000145
  20 H :    0.300081    0.010765
  21 H :    0.408474    0.007085
  22 H :    0.288184    0.000165
  23 H :    0.253605    0.000267
  24 H :    0.398343    0.000474
  25 H :    0.036802   -0.002496
  26 H :    0.210633   -0.002231
  27 H :    0.067772    0.000581
  28 H :    0.026653    0.001897
  29 H :    0.119710   -0.000807
Sum of atomic charges       :   -0.0000000

LOEWDIN ATOMIC CHARGES AND SPIN DENSITIES
-----------------------------------------
   0 O :    0.074040    0.009307
   1 O :    0.112857   -0.000179
   2 O :    0.104384   -0.000344
   3 O :    0.092872   -0.000016
   4 N :    0.273087    0.016685
   5 N :    0.266440   -0.001642
   6 N :    0.312062   -0.006505
   7 N :    0.339623   -0.000215
   8 C :   -0.081148    0.007953
   9 C :   -0.143127    0.000066
  10 C :    0.039794   -0.011390
  11 C :    0.044660   -0.000113
  12 C :    0.181814    0.001403
  13 C :    0.175691   -0.000259
  14 C :   -0.448441   -0.007049
  15 C :   -0.394528   -0.000028
  16 C :   -0.466970   -0.003040
  17 C :   -0.492263   -0.000179
  18 H :   -0.017718   -0.006222
  19 H :    0.029322   -0.000073
  20 H :   -0.025990    0.000560
  21 H :    0.025239    0.000784
  22 H :    0.027504    0.000110
  23 H :    0.008988   -0.000046
  24 H :    0.007419   -0.000031
  25 H :   -0.010085   -0.000093
  26 H :    0.013892    0.001416
  27 H :   -0.008706   -0.000105
  28 H :   -0.010849   -0.000707
  29 H :   -0.029863   -0.000049

  Mayer bond orders larger than 0.100000
B(  0-O , 14-C ) :   1.1977 B(  1-O , 15-C ) :   1.5254 B(  2-O , 16-C ) :   1.5416
B(  3-O , 17-C ) :   1.5634 B(  4-N , 10-C ) :   0.8965 B(  4-N , 16-C ) :   0.9636
B(  4-N , 26-H ) :   0.9780 B(  5-N , 11-C ) :   0.9697 B(  5-N , 17-C ) :   0.9832
B(  5-N , 27-H ) :   1.0842 B(  6-N , 14-C ) :   0.7829 B(  6-N , 16-C ) :   0.9265
B(  6-N , 28-H ) :   1.0727 B(  7-N , 15-C ) :   0.9598 B(  7-N , 17-C ) :   0.9525
B(  7-N , 29-H ) :   1.0426 B(  8-C , 10-C ) :   0.4469 B(  8-C , 12-C ) :   0.3652
B(  8-C , 14-C ) :   0.8303 B(  8-C , 22-H ) :  -0.1233 B(  9-C , 11-C ) :   1.2031
B(  9-C , 13-C ) :   0.5741 B(  9-C , 15-C ) :   0.7721 B( 10-C , 18-H ) :   1.1012
B( 11-C , 19-H ) :   1.0908 B( 12-C , 14-C ) :  -0.1033 B( 12-C , 20-H ) :   0.9139
B( 12-C , 21-H ) :   0.8515 B( 12-C , 22-H ) :   1.0377 B( 13-C , 23-H ) :   1.0657
B( 13-C , 24-H ) :   0.9178 B( 13-C , 25-H ) :   1.0033

Dispersion correction           -0.059510803
FINAL SINGLE POINT ENERGY      -908.763215898037

DIPOLE MOMENT
-------------

Method             : TDA/CIS
Type of density    : Electron Density
Level              : Relaxed density
State              :   2
Multiplicity       :   3
Irrep              :   0
Energy             :     0.0000000000000000 Eh
Relativity type    :
Basis              : AO
                                X                 Y                 Z
Electronic contribution:     -3.305570475      -9.443812388      -7.171251129
Nuclear contribution   :      2.477672242      10.299449843       9.707817348
                        -----------------------------------------
Total Dipole Moment    :     -0.827898234       0.855637455       2.536566220
                        -----------------------------------------
Magnitude (a.u.)       :      2.802088351
Magnitude (Debye)      :      7.122342567

Rotational constants in cm-1:             0.018199             0.016014             0.012812
Rotational constants in MHz :           545.579752           480.095661           384.107642

                             ****ORCA TERMINATED NORMALLY****
TOTAL RUN TIME: 0 days 0 hours 4 minutes 50 seconds 49 msec
