                         Program Version 6.0.0  -   RELEASE  -
|  1> ! opt def2-TZVPPD wB97M-D3BJ
|  2> %pal nprocs 24 end%geom Constraints
|  3> {B 9 8 2.8000000000000003 C}
|  4> {A 8 9 11 88.85714285714286 C}
|  5>  end
|  6>  end
|  7> *xyz 0 1
|  8> O   2.98579685529314 0.88758230159078 -0.86184571092411
|  9> O   -0.03983205397054 0.68929041702508 -2.10362336723772
| 10> O   0.93431434349854 -3.13274393337945 -0.68767288184107
| 11> O   -3.75829998830163 -0.84727300865116 -0.0472717177755
| 12> N   0.21184538946282 -1.54604804365365 0.7617588924445
| 13> N   -2.13631993928911 0.03188773433438 1.27350571071531
| 14> N   2.02598672506387 -1.14318467211666 -0.64531219127023
| 15> N   -1.91814233924584 0.03137116037665 -1.04498946748291
| 16> C   1.18097737274226 0.71693507080484 0.70173889017321
| 17> C   -0.20686880480777 1.27024627933494 0.21345042231937
| 18> C   0.41441080275909 -0.34173258966541 1.52336266615173
| 19> C   -0.82922175114212 0.58960593673968 1.44434972027296
| 20> C   1.92822011286806 1.69488653817281 1.5963734975385
| 21> C   -0.37809776891576 2.77134929626422 0.04819649358288
| 22> C   2.1403947470937 0.1972384729179 -0.35038567829864
| 23> C   -0.67361678962426 0.6214190571346 -1.0793014500539
| 24> C   1.04142578622994 -2.02697492875068 -0.21027082435993
| 25> C   -2.68467002550422 -0.30396816036989 0.07167054343891
| 26> H   0.80817443950001 -0.54572267081061 2.51895215321335
| 27> H   -0.83785272399001 1.27240685039143 2.28901317073582
| 28> H   2.31167340578204 2.52284411740894 1.00913016264629
| 29> H   1.28982602448342 2.08257620823614 2.38710022492991
| 30> H   2.77390820759972 1.19140411795486 2.06045858523949
| 31> H   -1.41857211141493 3.00964947214868 -0.16882755561625
| 32> H   -0.09065531563179 3.29799318042223 0.95389844358819
| 33> H   0.23426221611057 3.12492645074476 -0.77764887675592
| 34> H   -0.46772570547622 -2.21560145172536 1.0787081584806
| 35> H   -2.71769301149571 -0.17090724573546 2.06627440900372
| 36> H   2.60065167263658 -1.49057255715425 -1.3966820077142
| 37> H   -2.27169977231386 -0.32388339999036 -1.91951041514436
| 38> *
| 39>
| 40>                          ****END OF INPUT****
 Total Charge           Charge          ....    0
 Multiplicity           Mult            ....    1
 Number of Electrons    NEL             ....  132
Dispersion correction           -0.054239912
FINAL SINGLE POINT ENERGY      -908.665707312025
Dispersion correction             ... done (  0.0 sec)
Dispersion correction           -0.054770387
FINAL SINGLE POINT ENERGY      -908.692239704296
Dispersion correction             ... done (  0.0 sec)
Dispersion correction           -0.055436244
FINAL SINGLE POINT ENERGY      -908.708627714335
Dispersion correction             ... done (  0.0 sec)
FINAL SINGLE POINT ENERGY      -908.721346940402
FINAL SINGLE POINT ENERGY      -908.729737145166
FINAL SINGLE POINT ENERGY      -908.741189693253
FINAL SINGLE POINT ENERGY      -908.757561184456
FINAL SINGLE POINT ENERGY      -908.759567564616
FINAL SINGLE POINT ENERGY      -908.780976783719
FINAL SINGLE POINT ENERGY      -908.802347234019
FINAL SINGLE POINT ENERGY      -908.924297250401
FINAL SINGLE POINT ENERGY      -908.924563047876
FINAL SINGLE POINT ENERGY      -908.924731633884
FINAL SINGLE POINT ENERGY      -908.924822917324
FINAL SINGLE POINT ENERGY      -908.924875305515
FINAL SINGLE POINT ENERGY      -908.924902400991
FINAL SINGLE POINT ENERGY      -908.924915740722
Dispersion correction             ... done (  0.0 sec)
Dispersion correction           -0.061952248
FINAL SINGLE POINT ENERGY      -908.924922103295
Dispersion correction             ... done (  0.0 sec)
Dispersion correction           -0.061959543
FINAL SINGLE POINT ENERGY      -908.924924680529
Dispersion correction             ... done (  0.0 sec)
                    ***********************HURRAY********************

CARTESIAN COORDINATES (ANGSTROEM)
---------------------------------
  O      2.707435    1.143681   -0.570702
  O     -0.469526    0.818424   -2.164717
  O      0.853567   -2.902043   -1.495991
  O     -2.697491   -1.632134    0.941135
  N      0.575752   -2.021012    0.585895
  N     -2.098840    0.505541    1.450968
  N      1.821807   -0.897858   -0.989092
  N     -1.660550   -0.350479   -0.637123
  C      1.293285    0.202298    1.086754
  C     -0.735452    1.788182   -0.012881
  C      0.678186   -0.939663    1.428870
  C     -1.418858    1.658338    1.128574
  C      1.556515    1.301719    2.066958
  C     -0.008426    3.034799   -0.407060
  C      2.001889    0.231577   -0.195528
  C     -0.912125    0.758398   -1.039702
  C      1.065083   -2.013275   -0.702995
  C     -2.195214   -0.579318    0.608020
  H      0.220419   -1.075985    2.396739
  H     -1.421780    2.423793    1.889017
  H      1.403627    2.278356    1.620230
  H      0.909352    1.201737    2.936145
  H      2.591604    1.266464    2.403772
  H     -0.456438    3.461980   -1.302125
  H     -0.048514    3.771752    0.392163
  H      1.031575    2.819742   -0.640358
  H     -0.046729   -2.779001    0.807629
  H     -2.539806    0.394746    2.345941
  H      2.190446   -0.848414   -1.925930
  H     -1.738193   -1.107347   -1.300010

 Multiplicity           Mult            ....    1
 Number of Electrons    NEL             ....  132
 Basis Dimension        Dim             ....  882

ORBITAL ENERGIES
----------------

  NO   OCC          E(Eh)            E(eV)
   0   2.0000     -19.331238      -526.0297
   1   2.0000     -19.324736      -525.8528
   2   2.0000     -19.319773      -525.7178
   3   2.0000     -19.318434      -525.6813
   4   2.0000     -14.588752      -396.9801
   5   2.0000     -14.574960      -396.6048
   6   2.0000     -14.572652      -396.5420
   7   2.0000     -14.562589      -396.2682
   8   2.0000     -10.517415      -286.1934
   9   2.0000     -10.505112      -285.8586
  10   2.0000     -10.480241      -285.1819
  11   2.0000     -10.475463      -285.0518
  12   2.0000     -10.430161      -283.8191
  13   2.0000     -10.427469      -283.7458
  14   2.0000     -10.380633      -282.4714
  15   2.0000     -10.379364      -282.4368
  16   2.0000     -10.360624      -281.9269
  17   2.0000     -10.350033      -281.6387
  18   2.0000      -1.230474       -33.4829
  19   2.0000      -1.218755       -33.1640
  20   2.0000      -1.196306       -32.5531
  21   2.0000      -1.189017       -32.3548
  22   2.0000      -1.126399       -30.6509
  23   2.0000      -1.116177       -30.3727
  24   2.0000      -1.073228       -29.2040
  25   2.0000      -1.063141       -28.9295
  26   2.0000      -0.963739       -26.2247
  27   2.0000      -0.951020       -25.8786
  28   2.0000      -0.848200       -23.0807
  29   2.0000      -0.847705       -23.0672
  30   2.0000      -0.813179       -22.1277
  31   2.0000      -0.807199       -21.9650
  32   2.0000      -0.796627       -21.6773
  33   2.0000      -0.787733       -21.4353
  34   2.0000      -0.697460       -18.9789
  35   2.0000      -0.695341       -18.9212
  36   2.0000      -0.691159       -18.8074
  37   2.0000      -0.687224       -18.7003
  38   2.0000      -0.645362       -17.5612
  39   2.0000      -0.641370       -17.4526
  40   2.0000      -0.634335       -17.2611
  41   2.0000      -0.599491       -16.3130
  42   2.0000      -0.597593       -16.2613
  43   2.0000      -0.590939       -16.0803
  44   2.0000      -0.570980       -15.5372
  45   2.0000      -0.569115       -15.4864
  46   2.0000      -0.559111       -15.2142
  47   2.0000      -0.552582       -15.0365
  48   2.0000      -0.549896       -14.9634
  49   2.0000      -0.539735       -14.6869
  50   2.0000      -0.520735       -14.1699
  51   2.0000      -0.519993       -14.1497
  52   2.0000      -0.514972       -14.0131
  53   2.0000      -0.510797       -13.8995
  54   2.0000      -0.504687       -13.7332
  55   2.0000      -0.496761       -13.5176
  56   2.0000      -0.480506       -13.0752
  57   2.0000      -0.471509       -12.8304
  58   2.0000      -0.422756       -11.5038
  59   2.0000      -0.411311       -11.1923
  60   2.0000      -0.406506       -11.0616
  61   2.0000      -0.394456       -10.7337
  62   2.0000      -0.388961       -10.5842
  63   2.0000      -0.383624       -10.4389
  64   2.0000      -0.357830        -9.7371
  65   2.0000      -0.331982        -9.0337
  66   0.0000       0.009147         0.2489
  67   0.0000       0.013083         0.3560
  68   0.0000       0.025411         0.6915
  69   0.0000       0.034138         0.9289
  70   0.0000       0.040034         1.0894

MULLIKEN ATOMIC CHARGES
-----------------------
   0 O :   -0.678332
   1 O :   -0.664072
   2 O :   -0.654916
   3 O :   -0.667278
   4 N :   -0.058050
   5 N :    0.002985
   6 N :    0.041025
   7 N :    0.011358
   8 C :    1.049213
   9 C :    0.397871
  10 C :   -0.043019
  11 C :    0.298264
  12 C :   -1.558641
  13 C :   -1.574946
  14 C :    0.200804
  15 C :    0.608951
  16 C :    0.451117
  17 C :    0.422805
  18 H :    0.198147
  19 H :    0.185079
  20 H :    0.249708
  21 H :    0.333487
  22 H :    0.391680
  23 H :    0.374735
  24 H :    0.337618
  25 H :    0.242723
  26 H :    0.052095
  27 H :    0.019577
  28 H :    0.018644
  29 H :    0.011367
Sum of atomic charges:    0.0000000

LOEWDIN ATOMIC CHARGES
----------------------
   0 O :    0.092740
   1 O :    0.106712
   2 O :    0.088360
   3 O :    0.076373
   4 N :    0.280818
   5 N :    0.286280
   6 N :    0.345814
   7 N :    0.345940
   8 C :   -0.149675
   9 C :   -0.155592
  10 C :    0.040338
  11 C :    0.038935
  12 C :    0.181661
  13 C :    0.182764
  14 C :   -0.398348
  15 C :   -0.394822
  16 C :   -0.479317
  17 C :   -0.494573
  18 H :    0.040749
  19 H :    0.040738
  20 H :   -0.021877
  21 H :   -0.003014
  22 H :    0.007790
  23 H :    0.005677
  24 H :   -0.003115
  25 H :   -0.019664
  26 H :   -0.019520
  27 H :   -0.018223
  28 H :   -0.001330
  29 H :   -0.002620

  Mayer bond orders larger than 0.100000
B(  0-O , 14-C ) :   1.4088 B(  1-O , 15-C ) :   1.3990 B(  2-O , 16-C ) :   1.5634
B(  3-O , 17-C ) :   1.5496 B(  4-N , 10-C ) :   0.8291 B(  4-N , 16-C ) :   1.0144
B(  4-N , 26-H ) :   1.1239 B(  5-N , 11-C ) :   0.9709 B(  5-N , 17-C ) :   1.0337
B(  5-N , 27-H ) :   1.1332 B(  6-N ,  8-C ) :  -0.1165 B(  6-N , 14-C ) :   1.0763
B(  6-N , 16-C ) :   0.9269 B(  6-N , 28-H ) :   1.1074 B(  7-N , 15-C ) :   0.9877
B(  7-N , 17-C ) :   0.9405 B(  7-N , 29-H ) :   1.1245 B(  8-C , 10-C ) :   1.0183
B(  8-C , 12-C ) :   0.3250 B(  8-C , 14-C ) :   0.5851 B(  8-C , 15-C ) :  -0.1168
B(  8-C , 18-H ) :  -0.1193 B(  8-C , 20-H ) :  -0.1172 B(  8-C , 21-H ) :  -0.1021
B(  9-C , 11-C ) :   1.0111 B(  9-C , 13-C ) :   0.4545 B(  9-C , 15-C ) :   0.6745
B(  9-C , 24-H ) :  -0.1188 B( 10-C , 12-C ) :  -0.1992 B( 10-C , 18-H ) :   1.1656
B( 11-C , 13-C ) :  -0.3038 B( 11-C , 19-H ) :   1.1036 B( 12-C , 20-H ) :   1.0229
B( 12-C , 21-H ) :   1.0427 B( 12-C , 22-H ) :   0.8341 B( 13-C , 23-H ) :   0.8380
B( 13-C , 24-H ) :   1.0813 B( 13-C , 25-H ) :   0.9766 B( 14-C , 15-C ) :   0.1137

Dispersion correction           -0.061960162
FINAL SINGLE POINT ENERGY      -908.924925114651

DIPOLE MOMENT
-------------

Method             : SCF
Type of density    : Electron Density
Multiplicity       :   1
Irrep              :   0
Energy             :  -908.8629649530594179 Eh
Relativity type    :
Basis              : AO
                                X                 Y                 Z
Electronic contribution:     -2.483214199     -10.147443287      -6.062464554
Nuclear contribution   :      1.728149378      11.140748313       8.514922595
                        -----------------------------------------
Total Dipole Moment    :     -0.755064821       0.993305026       2.452458041
                        -----------------------------------------
Magnitude (a.u.)       :      2.751604659
Magnitude (Debye)      :      6.994023220

Rotational constants in cm-1:             0.017945             0.016918             0.013048
Rotational constants in MHz :           537.965123           507.191013           391.173726

                             ****ORCA TERMINATED NORMALLY****
TOTAL RUN TIME: 0 days 2 hours 42 minutes 23 seconds 772 msec
