                         Program Version 6.0.0  -   RELEASE  -
|  1> ! Engrad def2-TZVPPD wB97M-D3BJ
|  2> %pal nprocs 8 end%pal nprocs 64 end
|  3> %tddft
|  4>  Iroot 2 Nroots 3
|  5> sf true
|  6> end
|  7> *xyz 0 3
|  8> O   3.33336162 0.81221855 -0.25915359
|  9> O   -0.88702382 0.50450889 -2.78673505
| 10> O   0.57947502 -2.76641077 -0.94577158
| 11> O   -3.55589226 -1.23391143 0.44717409
| 12> N   0.13960437 -1.44585813 0.80711247
| 13> N   -2.18676704 0.40790362 1.06016627
| 14> N   1.95499186 -0.90152448 -0.58478298
| 15> N   -2.03430623 -0.43337976 -1.08974342
| 16> C   1.55477022 0.53129893 1.36495907
| 17> C   -0.48477917 1.212977 -0.49935097
| 18> C   0.2410996 -0.15854627 1.50069297
| 19> C   -0.80343517 0.86520397 0.93254975
| 20> C   2.08574307 1.4294244 2.45249769
| 21> C   0.47760072 2.32335177 -0.90253391
| 22> C   2.36377271 0.20315718 0.16977278
| 23> C   -1.13778348 0.49814253 -1.55027868
| 24> C   0.86498716 -1.76110828 -0.33183171
| 25> C   -2.65641218 -0.50631426 0.12788624
| 26> H   0.05370462 -0.22433049 2.53354851
| 27> H   -0.72786106 1.71719236 1.58371721
| 28> H   1.36523276 2.08413943 2.97459614
| 29> H   2.72934016 0.94287294 3.15910617
| 30> H   2.84145054 2.09737962 2.04646868
| 31> H   -0.01207585 2.94403626 -1.5861521
| 32> H   0.75777442 2.94245527 -0.03276728
| 33> H   1.37833217 1.87365095 -1.27871078
| 34> H   -0.3136941 -2.32955338 1.08017181
| 35> H   -2.36908356 -0.04343628 2.01088427
| 36> H   2.4622147 -1.21064576 -1.37019527
| 37> H   -2.13097545 -1.2553852 -1.63277507
| 38> *
| 39>
| 40>                          ****END OF INPUT****

CARTESIAN COORDINATES (ANGSTROEM)
---------------------------------
  O      3.333362    0.812219   -0.259154
  O     -0.887024    0.504509   -2.786735
  O      0.579475   -2.766411   -0.945772
  O     -3.555892   -1.233911    0.447174
  N      0.139604   -1.445858    0.807112
  N     -2.186767    0.407904    1.060166
  N      1.954992   -0.901524   -0.584783
  N     -2.034306   -0.433380   -1.089743
  C      1.554770    0.531299    1.364959
  C     -0.484779    1.212977   -0.499351
  C      0.241100   -0.158546    1.500693
  C     -0.803435    0.865204    0.932550
  C      2.085743    1.429424    2.452498
  C      0.477601    2.323352   -0.902534
  C      2.363773    0.203157    0.169773
  C     -1.137783    0.498143   -1.550279
  C      0.864987   -1.761108   -0.331832
  C     -2.656412   -0.506314    0.127886
  H      0.053705   -0.224330    2.533549
  H     -0.727861    1.717192    1.583717
  H      1.365233    2.084139    2.974596
  H      2.729340    0.942873    3.159106
  H      2.841451    2.097380    2.046469
  H     -0.012076    2.944036   -1.586152
  H      0.757774    2.942455   -0.032767
  H      1.378332    1.873651   -1.278711
  H     -0.313694   -2.329553    1.080172
  H     -2.369084   -0.043436    2.010884
  H      2.462215   -1.210646   -1.370195
  H     -2.130975   -1.255385   -1.632775

 Total Charge           Charge          ....    0
 Multiplicity           Mult            ....    3
 Number of Electrons    NEL             ....  132
 Basis Dimension        Dim             ....  882

ORBITAL ENERGIES
----------------
                 SPIN UP ORBITALS
  NO   OCC          E(Eh)            E(eV)
   0   1.0000     -19.342654      -526.3404
   1   1.0000     -19.332420      -526.0619
   2   1.0000     -19.329893      -525.9931
   3   1.0000     -19.320366      -525.7339
   4   1.0000     -14.570375      -396.4801
   5   1.0000     -14.562568      -396.2676
   6   1.0000     -14.555633      -396.0789
   7   1.0000     -14.555292      -396.0696
   8   1.0000     -10.511672      -286.0371
   9   1.0000     -10.498228      -285.6713
  10   1.0000     -10.497532      -285.6524
  11   1.0000     -10.478521      -285.1351
  12   1.0000     -10.450052      -284.3604
  13   1.0000     -10.439971      -284.0861
  14   1.0000     -10.435704      -283.9699
  15   1.0000     -10.422323      -283.6058
  16   1.0000     -10.388244      -282.6785
  17   1.0000     -10.365697      -282.0649
  18   1.0000      -1.224689       -33.3255
  19   1.0000      -1.220037       -33.1989
  20   1.0000      -1.204380       -32.7728
  21   1.0000      -1.179848       -32.1053
  22   1.0000      -1.115326       -30.3496
  23   1.0000      -1.096139       -29.8275
  24   1.0000      -1.066520       -29.0215
  25   1.0000      -1.051858       -28.6225
  26   1.0000      -0.987714       -26.8771
  27   1.0000      -0.953655       -25.9503
  28   1.0000      -0.893399       -24.3106
  29   1.0000      -0.849620       -23.1193
  30   1.0000      -0.833542       -22.6818
  31   1.0000      -0.805175       -21.9099
  32   1.0000      -0.781736       -21.2721
  33   1.0000      -0.778198       -21.1758
  34   1.0000      -0.710365       -19.3300
  35   1.0000      -0.696348       -18.9486
  36   1.0000      -0.688656       -18.7393
  37   1.0000      -0.681908       -18.5557
  38   1.0000      -0.649975       -17.6867
  39   1.0000      -0.635585       -17.2952
  40   1.0000      -0.615336       -16.7441
  41   1.0000      -0.605445       -16.4750
  42   1.0000      -0.594171       -16.1682
  43   1.0000      -0.586947       -15.9716
  44   1.0000      -0.578124       -15.7316
  45   1.0000      -0.573301       -15.6003
  46   1.0000      -0.570043       -15.5117
  47   1.0000      -0.562973       -15.3193
  48   1.0000      -0.557994       -15.1838
  49   1.0000      -0.555541       -15.1170
  50   1.0000      -0.551457       -15.0059
  51   1.0000      -0.545306       -14.8385
  52   1.0000      -0.532659       -14.4944
  53   1.0000      -0.526387       -14.3237
  54   1.0000      -0.510725       -13.8975
  55   1.0000      -0.504166       -13.7191
  56   1.0000      -0.493972       -13.4417
  57   1.0000      -0.427757       -11.6398
  58   1.0000      -0.418956       -11.4004
  59   1.0000      -0.415643       -11.3102
  60   1.0000      -0.409737       -11.1495
  61   1.0000      -0.399797       -10.8790
  62   1.0000      -0.399391       -10.8680
  63   1.0000      -0.392067       -10.6687
  64   1.0000      -0.382162       -10.3991
  65   1.0000      -0.350918        -9.5490
  66   1.0000      -0.336509        -9.1569
  67   0.0000       0.006653         0.1810
  68   0.0000       0.026656         0.7253
  69   0.0000       0.031205         0.8491
  70   0.0000       0.037392         1.0175
  71   0.0000       0.051377         1.3980

                 SPIN DOWN ORBITALS
  NO   OCC          E(Eh)            E(eV)
   0   1.0000     -19.338729      -526.2336
   1   1.0000     -19.329850      -525.9920
   2   1.0000     -19.327139      -525.9182
   3   1.0000     -19.320207      -525.7295
   4   1.0000     -14.569702      -396.4618
   5   1.0000     -14.562394      -396.2629
   6   1.0000     -14.555199      -396.0671
   7   1.0000     -14.554606      -396.0510
   8   1.0000     -10.511710      -286.0382
   9   1.0000     -10.498548      -285.6800
  10   1.0000     -10.498299      -285.6732
  11   1.0000     -10.479708      -285.1674
  12   1.0000     -10.449591      -284.3478
  13   1.0000     -10.439512      -284.0736
  14   1.0000     -10.424003      -283.6515
  15   1.0000     -10.411252      -283.3046
  16   1.0000     -10.388833      -282.6945
  17   1.0000     -10.366043      -282.0744
  18   1.0000      -1.223055       -33.2810
  19   1.0000      -1.218959       -33.1696
  20   1.0000      -1.200274       -32.6611
  21   1.0000      -1.173437       -31.9309
  22   1.0000      -1.111871       -30.2555
  23   1.0000      -1.093356       -29.7517
  24   1.0000      -1.063973       -28.9522
  25   1.0000      -1.050168       -28.5765
  26   1.0000      -0.974290       -26.5118
  27   1.0000      -0.936303       -25.4781
  28   1.0000      -0.887580       -24.1523
  29   1.0000      -0.843769       -22.9601
  30   1.0000      -0.825680       -22.4679
  31   1.0000      -0.800610       -21.7857
  32   1.0000      -0.779687       -21.2164
  33   1.0000      -0.775883       -21.1129
  34   1.0000      -0.703268       -19.1369
  35   1.0000      -0.691847       -18.8261
  36   1.0000      -0.682863       -18.5817
  37   1.0000      -0.673517       -18.3273
  38   1.0000      -0.638493       -17.3743
  39   1.0000      -0.631611       -17.1870
  40   1.0000      -0.610725       -16.6187
  41   1.0000      -0.598556       -16.2875
  42   1.0000      -0.587559       -15.9883
  43   1.0000      -0.582227       -15.8432
  44   1.0000      -0.572123       -15.5683
  45   1.0000      -0.566290       -15.4095
  46   1.0000      -0.562857       -15.3161
  47   1.0000      -0.559362       -15.2210
  48   1.0000      -0.551122       -14.9968
  49   1.0000      -0.549441       -14.9511
  50   1.0000      -0.544293       -14.8110
  51   1.0000      -0.537714       -14.6319
  52   1.0000      -0.522801       -14.2261
  53   1.0000      -0.520311       -14.1584
  54   1.0000      -0.503305       -13.6956
  55   1.0000      -0.493229       -13.4214
  56   1.0000      -0.487578       -13.2677
  57   1.0000      -0.424360       -11.5474
  58   1.0000      -0.414642       -11.2830
  59   1.0000      -0.405585       -11.0365
  60   1.0000      -0.401565       -10.9271
  61   1.0000      -0.395706       -10.7677
  62   1.0000      -0.387216       -10.5367
  63   1.0000      -0.384729       -10.4690
  64   1.0000      -0.370619       -10.0851
  65   0.0000      -0.066210        -1.8017
  66   0.0000      -0.062381        -1.6975
  67   0.0000       0.006429         0.1749
  68   0.0000       0.026574         0.7231
  69   0.0000       0.031702         0.8626

----------------------------------------------------------------------------------------------------
          SPIN FLIP ABSORPTION SPECTRUM VIA TRANSITION ELECTRIC DIPOLE MOMENTS
----------------------------------------------------------------------------------------------------
     Transition      Energy     Energy  Wavelength fosc(D2)      D2        DX        DY        DZ
                      (eV)      (cm-1)    (nm)                 (au**2)    (au)      (au)      (au)
----------------------------------------------------------------------------------------------------
  1-3A  ->  2-3A    0.035464     286.0  34961.0   0.000000275   0.00032  -0.01691  -0.00252  -0.00492
  1-3A  ->  3-3A    1.867308   15060.9   664.0   0.000452401   0.00989   0.03588  -0.00004  -0.09275

Dispersion correction             ... done (  0.1 sec)

MULLIKEN ATOMIC CHARGES AND SPIN DENSITIES
------------------------------------------
   0 O :   -0.680996   -0.143885
   1 O :   -0.693214    0.195080
   2 O :   -0.673717   -0.002811
   3 O :   -0.625175    0.000463
   4 N :   -0.159107   -0.012226
   5 N :   -0.440434    0.015065
   6 N :    0.147144   -0.007670
   7 N :    0.018257    0.028542
   8 C :    1.153503    0.226819
   9 C :   -0.335010    0.373409
  10 C :   -0.157256   -0.298140
  11 C :    0.846396    0.031919
  12 C :   -1.266506    0.041458
  13 C :   -1.576935   -0.014384
  14 C :   -0.322797   -0.612941
  15 C :    0.526534    0.105038
  16 C :    0.441748    0.043692
  17 C :    0.398968   -0.003276
  18 H :    0.559559   -0.036141
  19 H :    0.553997    0.036652
  20 H :    0.317822   -0.000634
  21 H :    0.330032   -0.016284
  22 H :    0.311778   -0.008729
  23 H :    0.458813    0.019543
  24 H :    0.299882   -0.009316
  25 H :    0.294666    0.043200
  26 H :    0.070478   -0.001336
  27 H :    0.211052   -0.001211
  28 H :   -0.000088    0.008294
  29 H :   -0.009396   -0.000192
Sum of atomic charges       :    0.0000000

LOEWDIN ATOMIC CHARGES AND SPIN DENSITIES
-----------------------------------------
   0 O :    0.067603   -0.123613
   1 O :    0.075355    0.168868
   2 O :    0.088818   -0.002222
   3 O :    0.100906    0.000342
   4 N :    0.282088   -0.004215
   5 N :    0.248312   -0.002850
   6 N :    0.352255   -0.007572
   7 N :    0.325447    0.024306
   8 C :    0.004988   -0.488146
   9 C :    0.000595    0.474438
  10 C :   -0.100806   -0.030866
  11 C :   -0.114053    0.020312
  12 C :    0.201036   -0.070733
  13 C :    0.232278    0.049778
  14 C :   -0.417240   -0.081848
  15 C :   -0.373260    0.079134
  16 C :   -0.463151    0.001512
  17 C :   -0.508701    0.000462
  18 H :    0.027197   -0.002513
  19 H :    0.036073    0.005252
  20 H :    0.015328   -0.006768
  21 H :   -0.006098   -0.023831
  22 H :   -0.003580   -0.004224
  23 H :   -0.025860    0.010124
  24 H :    0.017456   -0.002364
  25 H :   -0.018954    0.017518
  26 H :   -0.002335   -0.001112
  27 H :    0.022073   -0.000487
  28 H :   -0.038313   -0.000879
  29 H :   -0.025457    0.002200

  Mayer bond orders larger than 0.100000
B(  0-O , 14-C ) :   1.4056 B(  1-O ,  9-C ) :   0.1081 B(  1-O , 15-C ) :   1.2407
B(  2-O , 16-C ) :   1.4708 B(  3-O , 17-C ) :   1.5983 B(  4-N ,  8-C ) :   0.1735
B(  4-N ,  9-C ) :   0.1089 B(  4-N , 10-C ) :   0.5486 B(  4-N , 16-C ) :   0.9897
B(  4-N , 26-H ) :   1.0727 B(  5-N ,  9-C ) :   0.4111 B(  5-N , 11-C ) :  -0.1087
B(  5-N , 17-C ) :   1.0780 B(  5-N , 19-H ) :  -0.1231 B(  5-N , 27-H ) :   0.8746
B(  6-N , 10-C ) :   0.1393 B(  6-N , 14-C ) :   0.9684 B(  6-N , 16-C ) :   0.9683
B(  6-N , 28-H ) :   1.1330 B(  7-N ,  9-C ) :  -0.1837 B(  7-N , 15-C ) :   1.0569
B(  7-N , 17-C ) :   0.9006 B(  7-N , 29-H ) :   1.1601 B(  8-C , 10-C ) :   0.6548
B(  8-C , 11-C ) :   0.1140 B(  8-C , 12-C ) :   0.7089 B(  9-C , 10-C ) :   0.3870
B(  9-C , 11-C ) :  -0.4940 B(  9-C , 13-C ) :   0.4314 B(  9-C , 14-C ) :   0.1322
B(  9-C , 15-C ) :   0.9378 B(  9-C , 17-C ) :   0.1140 B(  9-C , 19-H ) :  -0.3186
B(  9-C , 24-H ) :  -0.1321 B( 10-C , 11-C ) :   0.5723 B( 10-C , 12-C ) :  -0.1781
B( 10-C , 14-C ) :   0.3380 B( 10-C , 16-C ) :  -0.1124 B( 10-C , 18-H ) :   0.7011
B( 10-C , 19-H ) :  -0.1444 B( 11-C , 13-C ) :  -0.3220 B( 11-C , 17-C ) :  -0.1906
B( 11-C , 19-H ) :   0.9878 B( 12-C , 20-H ) :   0.8851 B( 12-C , 21-H ) :   0.8641
B( 12-C , 22-H ) :   0.9802 B( 13-C , 14-C ) :   0.1566 B( 13-C , 15-C ) :  -0.1259
B( 13-C , 23-H ) :   0.8136 B( 13-C , 24-H ) :   1.0932 B( 13-C , 25-H ) :   0.8986
B( 14-C , 16-C ) :  -0.1296

Dispersion correction           -0.060285919
FINAL SINGLE POINT ENERGY      -908.765193769493

DIPOLE MOMENT
-------------

Method             : TDA/CIS
Type of density    : Electron Density
Level              : Relaxed density
State              :   2
Multiplicity       :   3
Irrep              :   0
Energy             :     0.0000000000000000 Eh
Relativity type    :
Basis              : AO
                                X                 Y                 Z
Electronic contribution:     -5.020287467      -8.292126633      -6.342751417
Nuclear contribution   :      5.735673474       9.383911291       9.085361388
                        -----------------------------------------
Total Dipole Moment    :      0.715386008       1.091784658       2.742609970
                        -----------------------------------------
Magnitude (a.u.)       :      3.037380504
Magnitude (Debye)      :      7.720407691

Rotational constants in cm-1:             0.021528             0.013031             0.012573
Rotational constants in MHz :           645.402786           390.664965           376.933820

                             ****ORCA TERMINATED NORMALLY****
TOTAL RUN TIME: 0 days 0 hours 5 minutes 20 seconds 895 msec
