                         Program Version 6.0.0  -   RELEASE  -
|  1> ! Opt wB97M-D3BJ def2-TZVPPD
|  2> %pal nprocs 8 end %pal nprocs 64 end
|  3> %geom
|  4> Constraints
|  5>     {A 2 1 0 73.63636363636364 C }
|  6> end
|  7> MaxIter 500
|  8> end
|  9> *xyz 0 1
| 10> O   -0.0007 0.8141 0.0
| 11> C   0.7509 -0.4065 0.0
| 12> C   -0.7502 -0.4076 0.0
| 13> H   1.2625 -0.6786 0.9136
| 14> H   1.2625 -0.6787 -0.9136
| 15> H   -1.2614 -0.6806 -0.9136
| 16> H   -1.2614 -0.6805 0.9136
| 17> *
| 18>
| 19>                          ****END OF INPUT****
 Total Charge           Charge          ....    0
 Multiplicity           Mult            ....    1
 Number of Electrons    NEL             ....   24
Dispersion correction           -0.005279505
FINAL SINGLE POINT ENERGY      -153.861096271441
Dispersion correction             ... done (  0.2 sec)
Dispersion correction           -0.005251416
FINAL SINGLE POINT ENERGY      -153.865991393729
Dispersion correction             ... done (  0.1 sec)
Dispersion correction           -0.005241978
FINAL SINGLE POINT ENERGY      -153.867554198305
Dispersion correction             ... done (  0.2 sec)
FINAL SINGLE POINT ENERGY      -153.867780687639
FINAL SINGLE POINT ENERGY      -153.867863988266
Dispersion correction             ... done (  0.1 sec)
Dispersion correction           -0.005247914
FINAL SINGLE POINT ENERGY      -153.867879255972
Dispersion correction             ... done (  0.1 sec)
Dispersion correction           -0.005248706
FINAL SINGLE POINT ENERGY      -153.867881964346
Dispersion correction             ... done (  0.1 sec)
                    ***********************HURRAY********************

CARTESIAN COORDINATES (ANGSTROEM)
---------------------------------
  O      0.125630    0.867759   -0.000239
  C      0.676811   -0.375899    0.000105
  C     -0.728980   -0.561947   -0.000126
  H      1.229667   -0.651246    0.899484
  H      1.229357   -0.651392   -0.899469
  H     -1.265394   -0.673584   -0.927109
  H     -1.264891   -0.672090    0.927354

 Multiplicity           Mult            ....    1
 Number of Electrons    NEL             ....   24
 Basis Dimension        Dim             ....  182

ORBITAL ENERGIES
----------------

  NO   OCC          E(Eh)            E(eV)
   0   2.0000     -19.346872      -526.4552
   1   2.0000     -10.409839      -283.2661
   2   2.0000     -10.396601      -282.9059
   3   2.0000      -1.176801       -32.0224
   4   2.0000      -0.835201       -22.7270
   5   2.0000      -0.742840       -20.2137
   6   2.0000      -0.628488       -17.1020
   7   2.0000      -0.589939       -16.0530
   8   2.0000      -0.500830       -13.6283
   9   2.0000      -0.495785       -13.4910
  10   2.0000      -0.416982       -11.3467
  11   2.0000      -0.377108       -10.2616
  12   0.0000       0.038612         1.0507
  13   0.0000       0.054994         1.4965
  14   0.0000       0.062841         1.7100
  15   0.0000       0.077075         2.0973
  16   0.0000       0.107602         2.9280

MULLIKEN ATOMIC CHARGES
-----------------------
   0 O :   -0.417180
   1 C :   -0.109483
   2 C :   -0.264438
   3 H :    0.199740
   4 H :    0.199711
   5 H :    0.195778
   6 H :    0.195873
Sum of atomic charges:   -0.0000000

LOEWDIN ATOMIC CHARGES
----------------------
   0 O :   -0.027299
   1 C :   -0.207802
   2 C :    0.187558
   3 H :    0.023309
   4 H :    0.023310
   5 H :    0.000471
   6 H :    0.000453

  Mayer bond orders larger than 0.100000
B(  0-O ,  1-C ) :   0.7216 B(  0-O ,  2-C ) :   0.9069 B(  1-C ,  2-C ) :   0.7944
B(  1-C ,  3-H ) :   1.0464 B(  1-C ,  4-H ) :   1.0464 B(  2-C ,  5-H ) :   0.9830
B(  2-C ,  6-H ) :   0.9831

Dispersion correction           -0.005248889
FINAL SINGLE POINT ENERGY      -153.867882583539

DIPOLE MOMENT
-------------

Method             : SCF
Type of density    : Electron Density
Multiplicity       :   1
Irrep              :   0
Energy             :  -153.8626336949796212 Eh
Relativity type    :
Basis              : AO
                                X                 Y                 Z
Electronic contribution:      0.017737975       1.539652132      -0.000422120
Nuclear contribution   :     -0.177160145      -2.467415824       0.000567123
                        -----------------------------------------
Total Dipole Moment    :     -0.159422169      -0.927763691       0.000145003
                        -----------------------------------------
Magnitude (a.u.)       :      0.941361204
Magnitude (Debye)      :      2.392750025

Rotational constants in cm-1:             0.913092             0.649764             0.447417
Rotational constants in MHz :         27373.818479         19479.439254         13413.213994

                             ****ORCA TERMINATED NORMALLY****
TOTAL RUN TIME: 0 days 0 hours 1 minutes 48 seconds 40 msec
