                         Program Version 6.0.0  -   RELEASE  -
|  1> ! EnGrad wB97M-D3BJ def2-TZVPPD
|  2> %pal nprocs 8 end%pal nprocs 16 end
|  3> %tddft
|  4>  sf true
|  5>  nroots 2 Iroot 1 end
|  6> *xyz 0 3
|  7> O   0.59414395776798 1.1876840953348 0.31908582032432
|  8> C   0.60039308740096 0.16232482352908 -0.32165409112694
|  9> C   -0.4417644477547 -0.82170372198089 0.17825440197601
| 10> H   0.04172847364236 -1.51379377768068 0.8706021196197
| 11> H   1.29558805125726 -0.05039704437894 -1.14597425383719
| 12> H   -0.89107908176485 -1.42510350029851 -0.6113438439543
| 13> H   -1.19681004054903 -0.25741087452485 0.71102984699841
| 14> *
| 15>
| 16>                          ****END OF INPUT****

CARTESIAN COORDINATES (ANGSTROEM)
---------------------------------
  O      0.594144    1.187684    0.319086
  C      0.600393    0.162325   -0.321654
  C     -0.441764   -0.821704    0.178254
  H      0.041728   -1.513794    0.870602
  H      1.295588   -0.050397   -1.145974
  H     -0.891079   -1.425104   -0.611344
  H     -1.196810   -0.257411    0.711030

 Total Charge           Charge          ....    0
 Multiplicity           Mult            ....    3
 Number of Electrons    NEL             ....   24
 Basis Dimension        Dim             ....  182

ORBITAL ENERGIES
----------------
                 SPIN UP ORBITALS
  NO   OCC          E(Eh)            E(eV)
   0   1.0000     -19.411840      -528.2230
   1   1.0000     -10.382871      -282.5323
   2   1.0000     -10.366816      -282.0954
   3   1.0000      -1.247586       -33.9485
   4   1.0000      -0.874822       -23.8051
   5   1.0000      -0.722469       -19.6594
   6   1.0000      -0.639293       -17.3960
   7   1.0000      -0.584146       -15.8954
   8   1.0000      -0.581759       -15.8305
   9   1.0000      -0.513915       -13.9843
  10   1.0000      -0.508604       -13.8398
  11   1.0000      -0.436425       -11.8757
  12   1.0000      -0.226706        -6.1690
  13   0.0000       0.043055         1.1716
  14   0.0000       0.060494         1.6461
  15   0.0000       0.079071         2.1516
  16   0.0000       0.088353         2.4042
  17   0.0000       0.108774         2.9599

                 SPIN DOWN ORBITALS
  NO   OCC          E(Eh)            E(eV)
   0   1.0000     -19.383951      -527.4641
   1   1.0000     -10.372491      -282.2498
   2   1.0000     -10.364394      -282.0295
   3   1.0000      -1.189220       -32.3603
   4   1.0000      -0.855005       -23.2659
   5   1.0000      -0.679242       -18.4831
   6   1.0000      -0.585661       -15.9366
   7   1.0000      -0.542340       -14.7578
   8   1.0000      -0.532550       -14.4914
   9   1.0000      -0.501962       -13.6591
  10   1.0000      -0.468851       -12.7581
  11   0.0000      -0.079555        -2.1648
  12   0.0000       0.042231         1.1492
  13   0.0000       0.059961         1.6316
  14   0.0000       0.078067         2.1243
  15   0.0000       0.080006         2.1771

----------------------------------------------------------------------------------------------------
          SPIN FLIP ABSORPTION SPECTRUM VIA TRANSITION ELECTRIC DIPOLE MOMENTS
----------------------------------------------------------------------------------------------------
     Transition      Energy     Energy  Wavelength fosc(D2)      D2        DX        DY        DZ
                      (eV)      (cm-1)    (nm)                 (au**2)    (au)      (au)      (au)
----------------------------------------------------------------------------------------------------
  1-3A  ->  2-3A    4.283926   34552.2   289.4   0.000014009   0.00013   0.00567  -0.00524  -0.00860

Dispersion correction             ... done (  0.0 sec)

MULLIKEN ATOMIC CHARGES AND SPIN DENSITIES
------------------------------------------
   0 O :   -0.510945    0.053783
   1 C :    0.199734   -0.171067
   2 C :   -0.660619    0.042211
   3 H :    0.195644   -0.003885
   4 H :    0.300010    0.078457
   5 H :    0.241164   -0.002905
   6 H :    0.235012    0.003405
Sum of atomic charges       :   -0.0000000

LOEWDIN ATOMIC CHARGES AND SPIN DENSITIES
-----------------------------------------
   0 O :    0.017635    0.021221
   1 C :   -0.177652   -0.013879
   2 C :    0.170135   -0.000815
   3 H :   -0.009188   -0.001049
   4 H :    0.028978   -0.004707
   5 H :   -0.019048   -0.000745
   6 H :   -0.010860   -0.000026

  Mayer bond orders larger than 0.100000
B(  0-O ,  1-C ) :   1.7915 B(  1-C ,  2-C ) :   0.7864 B(  1-C ,  4-H ) :   0.9221
B(  2-C ,  3-H ) :   0.9753 B(  2-C ,  5-H ) :   1.0058 B(  2-C ,  6-H ) :   0.9574

Dispersion correction           -0.005561817
FINAL SINGLE POINT ENERGY      -153.916000087311

DIPOLE MOMENT
-------------

Method             : TDA/CIS
Type of density    : Electron Density
Level              : Relaxed density
State              :   1
Multiplicity       :   3
Irrep              :   0
Energy             :     0.0000000000000000 Eh
Relativity type    :
Basis              : AO
                                X                 Y                 Z
Electronic contribution:      1.485525031       2.634527823      -0.054738710
Nuclear contribution   :     -1.606568516      -3.696281385      -0.434253476
                        -----------------------------------------
Total Dipole Moment    :     -0.121043485      -1.061753562      -0.488992186
                        -----------------------------------------
Magnitude (a.u.)       :      1.175195945
Magnitude (Debye)      :      2.987110704

Rotational constants in cm-1:             1.599626             0.376955             0.323148
Rotational constants in MHz :         47955.582306         11300.820604          9687.719974

                             ****ORCA TERMINATED NORMALLY****
TOTAL RUN TIME: 0 days 0 hours 0 minutes 21 seconds 500 msec
