                         Program Version 6.0.0  -   RELEASE  -
|  1> ! Opt wB97M-D3BJ def2-TZVPPD
|  2> %pal nprocs 8 end %pal nprocs 64 end
|  3> %geom
|  4> Constraints
|  5>     {A 2 1 0 95.45454545454545 C }
|  6> end
|  7> MaxIter 500
|  8> end
|  9> *xyz 0 1
| 10> O   -0.0007 0.8141 0.0
| 11> C   0.7509 -0.4065 0.0
| 12> C   -0.7502 -0.4076 0.0
| 13> H   1.2625 -0.6786 0.9136
| 14> H   1.2625 -0.6787 -0.9136
| 15> H   -1.2614 -0.6806 -0.9136
| 16> H   -1.2614 -0.6805 0.9136
| 17> *
| 18>
| 19>                          ****END OF INPUT****
 Total Charge           Charge          ....    0
 Multiplicity           Mult            ....    1
 Number of Electrons    NEL             ....   24
Dispersion correction           -0.005736143
FINAL SINGLE POINT ENERGY      -153.767941217868
Dispersion correction             ... done (  0.1 sec)
Dispersion correction           -0.005687721
FINAL SINGLE POINT ENERGY      -153.796817595615
Dispersion correction             ... done (  0.2 sec)
Dispersion correction           -0.005655243
FINAL SINGLE POINT ENERGY      -153.805798888395
Dispersion correction             ... done (  0.2 sec)
FINAL SINGLE POINT ENERGY      -153.809278880413
FINAL SINGLE POINT ENERGY      -153.810099421291
FINAL SINGLE POINT ENERGY      -153.810325763598
FINAL SINGLE POINT ENERGY      -153.810457209300
FINAL SINGLE POINT ENERGY      -153.810534114647
FINAL SINGLE POINT ENERGY      -153.810583762403
FINAL SINGLE POINT ENERGY      -153.810615869959
Dispersion correction             ... done (  0.2 sec)
Dispersion correction           -0.005673179
FINAL SINGLE POINT ENERGY      -153.810629014714
Dispersion correction             ... done (  0.2 sec)
Dispersion correction           -0.005671867
FINAL SINGLE POINT ENERGY      -153.810632979004
Dispersion correction             ... done (  0.1 sec)
                    ***********************HURRAY********************

CARTESIAN COORDINATES (ANGSTROEM)
---------------------------------
  O      0.353850    1.019633   -0.002562
  C      0.626313   -0.291304   -0.000634
  C     -0.741329   -0.714545    0.000523
  H      1.181179   -0.633622    0.884290
  H      1.182012   -0.635958   -0.884034
  H     -1.300974   -0.733361   -0.923582
  H     -1.298852   -0.729243    0.925998

 Multiplicity           Mult            ....    1
 Number of Electrons    NEL             ....   24
 Basis Dimension        Dim             ....  182

ORBITAL ENERGIES
----------------

  NO   OCC          E(Eh)            E(eV)
   0   2.0000     -19.333202      -526.0832
   1   2.0000     -10.439117      -284.0628
   2   2.0000     -10.397060      -282.9184
   3   2.0000      -1.135366       -30.8949
   4   2.0000      -0.876262       -23.8443
   5   2.0000      -0.733924       -19.9711
   6   2.0000      -0.624856       -17.0032
   7   2.0000      -0.576538       -15.6884
   8   2.0000      -0.517263       -14.0755
   9   2.0000      -0.510029       -13.8786
  10   2.0000      -0.376421       -10.2429
  11   2.0000      -0.357973        -9.7409
  12   0.0000      -0.041629        -1.1328
  13   0.0000       0.038180         1.0389
  14   0.0000       0.061039         1.6609
  15   0.0000       0.076535         2.0826
  16   0.0000       0.098010         2.6670

MULLIKEN ATOMIC CHARGES
-----------------------
   0 O :   -0.501288
   1 C :   -0.093683
   2 C :   -0.276207
   3 H :    0.217319
   4 H :    0.217530
   5 H :    0.218105
   6 H :    0.218224
Sum of atomic charges:    0.0000000

LOEWDIN ATOMIC CHARGES
----------------------
   0 O :   -0.015822
   1 C :   -0.382261
   2 C :    0.366879
   3 H :    0.023418
   4 H :    0.023420
   5 H :   -0.007812
   6 H :   -0.007823

  Mayer bond orders larger than 0.100000
B(  0-O ,  1-C ) :   0.6949 B(  0-O ,  2-C ) :   0.9265 B(  1-C ,  2-C ) :   0.7730
B(  1-C ,  3-H ) :   1.0445 B(  1-C ,  4-H ) :   1.0443 B(  2-C ,  5-H ) :   0.9654
B(  2-C ,  6-H ) :   0.9654

Dispersion correction           -0.005671671
FINAL SINGLE POINT ENERGY      -153.810634121342

DIPOLE MOMENT
-------------

Method             : SCF
Type of density    : Electron Density
Multiplicity       :   1
Irrep              :   0
Energy             :  -153.8049624506486737 Eh
Relativity type    :
Basis              : AO
                                X                 Y                 Z
Electronic contribution:      0.081824475       1.416997078      -0.003691237
Nuclear contribution   :     -0.562386942      -2.674574776       0.005857303
                        -----------------------------------------
Total Dipole Moment    :     -0.480562467      -1.257577698       0.002166066
                        -----------------------------------------
Magnitude (a.u.)       :      1.346271385
Magnitude (Debye)      :      3.421949914

Rotational constants in cm-1:             1.124930             0.463031             0.376351
Rotational constants in MHz :         33724.560644         13881.324442         11282.723149

                             ****ORCA TERMINATED NORMALLY****
TOTAL RUN TIME: 0 days 0 hours 3 minutes 2 seconds 50 msec
