                         Program Version 6.0.0  -   RELEASE  -
|  1> ! Engrad def2-TZVPPD wB97M-D3BJ
|  2> %pal nprocs 8 end%pal nprocs 64 end
|  3>  %tddft nroots 2 Iroot 2
|  4> sf true
|  5> end
|  6> *xyz 0 3
|  7> O   2.66750263261322 1.13122786450332 -0.62929228769259
|  8> O   -0.50461613197786 0.84441756863807 -2.16934793586514
|  9> O   0.63485242487854 -2.83304443941289 -1.50914478959728
| 10> O   -2.53321332746924 -1.67464414985047 1.01918693451801
| 11> N   0.65597546060062 -2.07540787766762 0.63767905666912
| 12> N   -2.18665195203598 0.5393672972223 1.42461353897204
| 13> N   1.76039747832612 -0.91015146475176 -1.01595081594929
| 14> N   -1.59999118270801 -0.36910839995139 -0.60386732298816
| 15> C   1.53400474597195 0.07834251792638 1.16641111435438
| 16> C   -0.9279331736087 1.88897338574967 -0.07877064192482
| 17> C   0.87959164888587 -1.0379425700085 1.51199124031244
| 18> C   -1.58979505115603 1.73161714933139 1.07167906730985
| 19> C   1.80231283086929 1.2094092994037 2.10524072605692
| 20> C   -0.21863189914359 3.14292931127979 -0.47665737733802
| 21> C   2.04785656356321 0.18170311931522 -0.19971519556314
| 22> C   -0.97018552975851 0.79539777906357 -1.05315656529372
| 23> C   0.99177836480983 -2.00803059222846 -0.69780712622996
| 24> C   -2.13977517523716 -0.5905990503408 0.64080999820973
| 25> H   0.48039621743375 -1.1862823232546 2.50412511801669
| 26> H   -1.65159075721049 2.51431589814682 1.8123540555592
| 27> H   1.40609208823145 2.14051048172371 1.70509327382954
| 28> H   1.34902445699901 1.02047181092449 3.07602063768075
| 29> H   2.87252970265235 1.35419568059337 2.2404459810531
| 30> H   -0.63884387702584 3.54692035673317 -1.39544631840566
| 31> H   -0.29244106633018 3.89379511354742 0.30698528386007
| 32> H   0.83225612918947 2.93362006328905 -0.67037251789975
| 33> H   0.00157111678501 -2.80118970008538 0.8765426163408
| 34> H   -2.60699549456074 0.41880208540395 2.32802471460899
| 35> H   1.97694054345915 -0.80160352043434 -1.99487593884558
| 36> H   -1.57981778704654 -1.16301269480924 -1.22819852375858
| 37> *
| 38>
| 39>                          ****END OF INPUT****

CARTESIAN COORDINATES (ANGSTROEM)
---------------------------------
  O      2.667503    1.131228   -0.629292
  O     -0.504616    0.844418   -2.169348
  O      0.634852   -2.833044   -1.509145
  O     -2.533213   -1.674644    1.019187
  N      0.655975   -2.075408    0.637679
  N     -2.186652    0.539367    1.424614
  N      1.760397   -0.910151   -1.015951
  N     -1.599991   -0.369108   -0.603867
  C      1.534005    0.078343    1.166411
  C     -0.927933    1.888973   -0.078771
  C      0.879592   -1.037943    1.511991
  C     -1.589795    1.731617    1.071679
  C      1.802313    1.209409    2.105241
  C     -0.218632    3.142929   -0.476657
  C      2.047857    0.181703   -0.199715
  C     -0.970186    0.795398   -1.053157
  C      0.991778   -2.008031   -0.697807
  C     -2.139775   -0.590599    0.640810
  H      0.480396   -1.186282    2.504125
  H     -1.651591    2.514316    1.812354
  H      1.406092    2.140510    1.705093
  H      1.349024    1.020472    3.076021
  H      2.872530    1.354196    2.240446
  H     -0.638844    3.546920   -1.395446
  H     -0.292441    3.893795    0.306985
  H      0.832256    2.933620   -0.670373
  H      0.001571   -2.801190    0.876543
  H     -2.606995    0.418802    2.328025
  H      1.976941   -0.801604   -1.994876
  H     -1.579818   -1.163013   -1.228199

 Total Charge           Charge          ....    0
 Multiplicity           Mult            ....    3
 Number of Electrons    NEL             ....  132
 Basis Dimension        Dim             ....  882

ORBITAL ENERGIES
----------------
                 SPIN UP ORBITALS
  NO   OCC          E(Eh)            E(eV)
   0   1.0000     -19.331496      -526.0368
   1   1.0000     -19.328862      -525.9651
   2   1.0000     -19.323449      -525.8178
   3   1.0000     -19.317095      -525.6449
   4   1.0000     -14.592156      -397.0728
   5   1.0000     -14.584255      -396.8577
   6   1.0000     -14.571283      -396.5048
   7   1.0000     -14.547580      -395.8598
   8   1.0000     -10.515298      -286.1358
   9   1.0000     -10.508387      -285.9477
  10   1.0000     -10.479326      -285.1570
  11   1.0000     -10.454786      -284.4892
  12   1.0000     -10.433256      -283.9033
  13   1.0000     -10.407247      -283.1956
  14   1.0000     -10.396418      -282.9009
  15   1.0000     -10.381712      -282.5007
  16   1.0000     -10.370154      -282.1862
  17   1.0000     -10.351867      -281.6886
  18   1.0000      -1.228571       -33.4311
  19   1.0000      -1.223914       -33.3044
  20   1.0000      -1.194476       -32.5033
  21   1.0000      -1.187700       -32.3190
  22   1.0000      -1.124251       -30.5924
  23   1.0000      -1.123490       -30.5717
  24   1.0000      -1.071099       -29.1461
  25   1.0000      -1.058927       -28.8149
  26   1.0000      -0.974634       -26.5211
  27   1.0000      -0.957571       -26.0568
  28   1.0000      -0.856918       -23.3179
  29   1.0000      -0.847744       -23.0683
  30   1.0000      -0.811518       -22.0825
  31   1.0000      -0.808344       -21.9962
  32   1.0000      -0.795033       -21.6340
  33   1.0000      -0.787425       -21.4269
  34   1.0000      -0.699875       -19.0446
  35   1.0000      -0.696425       -18.9507
  36   1.0000      -0.692722       -18.8499
  37   1.0000      -0.689714       -18.7681
  38   1.0000      -0.645495       -17.5648
  39   1.0000      -0.639839       -17.4109
  40   1.0000      -0.627757       -17.0821
  41   1.0000      -0.601753       -16.3745
  42   1.0000      -0.598189       -16.2775
  43   1.0000      -0.592462       -16.1217
  44   1.0000      -0.574214       -15.6252
  45   1.0000      -0.568615       -15.4728
  46   1.0000      -0.568345       -15.4655
  47   1.0000      -0.553043       -15.0491
  48   1.0000      -0.550427       -14.9779
  49   1.0000      -0.546899       -14.8819
  50   1.0000      -0.530423       -14.4335
  51   1.0000      -0.524829       -14.2813
  52   1.0000      -0.516229       -14.0473
  53   1.0000      -0.515285       -14.0216
  54   1.0000      -0.509131       -13.8542
  55   1.0000      -0.499756       -13.5990
  56   1.0000      -0.493013       -13.4156
  57   1.0000      -0.479508       -13.0481
  58   1.0000      -0.421269       -11.4633
  59   1.0000      -0.418666       -11.3925
  60   1.0000      -0.406337       -11.0570
  61   1.0000      -0.401042       -10.9129
  62   1.0000      -0.389207       -10.5909
  63   1.0000      -0.385446       -10.4885
  64   1.0000      -0.384604       -10.4656
  65   1.0000      -0.348472        -9.4824
  66   1.0000      -0.207789        -5.6542
  67   0.0000       0.011393         0.3100
  68   0.0000       0.019634         0.5343
  69   0.0000       0.033141         0.9018
  70   0.0000       0.038074         1.0360
  71   0.0000       0.042737         1.1629

                 SPIN DOWN ORBITALS
  NO   OCC          E(Eh)            E(eV)
   0   1.0000     -19.329569      -525.9843
   1   1.0000     -19.328845      -525.9646
   2   1.0000     -19.323518      -525.8197
   3   1.0000     -19.310733      -525.4718
   4   1.0000     -14.586789      -396.9267
   5   1.0000     -14.583982      -396.8503
   6   1.0000     -14.571282      -396.5047
   7   1.0000     -14.546670      -395.8350
   8   1.0000     -10.515310      -286.1361
   9   1.0000     -10.508792      -285.9588
  10   1.0000     -10.479302      -285.1563
  11   1.0000     -10.454421      -284.4793
  12   1.0000     -10.432962      -283.8953
  13   1.0000     -10.397833      -282.9394
  14   1.0000     -10.386287      -282.6252
  15   1.0000     -10.381786      -282.5028
  16   1.0000     -10.370629      -282.1992
  17   1.0000     -10.351840      -281.6879
  18   1.0000      -1.227939       -33.4139
  19   1.0000      -1.220046       -33.1991
  20   1.0000      -1.194444       -32.5025
  21   1.0000      -1.178305       -32.0633
  22   1.0000      -1.123356       -30.5681
  23   1.0000      -1.112939       -30.2846
  24   1.0000      -1.070952       -29.1421
  25   1.0000      -1.053334       -28.6627
  26   1.0000      -0.958514       -26.0825
  27   1.0000      -0.949688       -25.8423
  28   1.0000      -0.847481       -23.0611
  29   1.0000      -0.845889       -23.0178
  30   1.0000      -0.811042       -22.0696
  31   1.0000      -0.797899       -21.7119
  32   1.0000      -0.794290       -21.6137
  33   1.0000      -0.780605       -21.2413
  34   1.0000      -0.696134       -18.9428
  35   1.0000      -0.692732       -18.8502
  36   1.0000      -0.688013       -18.7218
  37   1.0000      -0.681574       -18.5466
  38   1.0000      -0.643864       -17.5204
  39   1.0000      -0.630975       -17.1697
  40   1.0000      -0.621477       -16.9112
  41   1.0000      -0.598138       -16.2762
  42   1.0000      -0.590792       -16.0763
  43   1.0000      -0.584174       -15.8962
  44   1.0000      -0.568579       -15.4718
  45   1.0000      -0.562222       -15.2988
  46   1.0000      -0.559783       -15.2325
  47   1.0000      -0.551131       -14.9970
  48   1.0000      -0.543180       -14.7807
  49   1.0000      -0.539926       -14.6921
  50   1.0000      -0.521939       -14.2027
  51   1.0000      -0.517498       -14.0818
  52   1.0000      -0.514103       -13.9894
  53   1.0000      -0.506109       -13.7719
  54   1.0000      -0.501517       -13.6470
  55   1.0000      -0.496335       -13.5060
  56   1.0000      -0.478665       -13.0252
  57   1.0000      -0.445957       -12.1351
  58   1.0000      -0.420710       -11.4481
  59   1.0000      -0.413803       -11.2601
  60   1.0000      -0.404335       -11.0025
  61   1.0000      -0.388146       -10.5620
  62   1.0000      -0.377757       -10.2793
  63   1.0000      -0.375809       -10.2263
  64   1.0000      -0.347497        -9.4559
  65   0.0000      -0.106384        -2.8949
  66   0.0000       0.010760         0.2928
  67   0.0000       0.020261         0.5513
  68   0.0000       0.030453         0.8287
  69   0.0000       0.036243         0.9862

----------------------------------------------------------------------------------------------------
          SPIN FLIP ABSORPTION SPECTRUM VIA TRANSITION ELECTRIC DIPOLE MOMENTS
----------------------------------------------------------------------------------------------------
     Transition      Energy     Energy  Wavelength fosc(D2)      D2        DX        DY        DZ
                      (eV)      (cm-1)    (nm)                 (au**2)    (au)      (au)      (au)
----------------------------------------------------------------------------------------------------
  1-3A  ->  2-3A    4.248616   34267.4   291.8   0.001778311   0.01708   0.05768   0.08860  -0.07686

Dispersion correction             ... done (  0.1 sec)

MULLIKEN ATOMIC CHARGES AND SPIN DENSITIES
------------------------------------------
   0 O :   -0.690492    0.007606
   1 O :   -0.656043   -0.000523
   2 O :   -0.615370    0.005481
   3 O :   -0.666583    0.000756
   4 N :    0.036200    0.036701
   5 N :   -0.015713   -0.006082
   6 N :   -0.001227   -0.013504
   7 N :    0.021392   -0.003960
   8 C :    1.251874    0.082384
   9 C :    0.513431    0.005440
  10 C :   -0.324686    0.006503
  11 C :    0.099563   -0.012079
  12 C :   -1.344917   -0.013305
  13 C :   -1.444362    0.005973
  14 C :    0.127620   -0.106830
  15 C :    0.575644    0.000217
  16 C :    0.414575    0.003890
  17 C :    0.449379    0.000128
  18 H :    0.116896   -0.013771
  19 H :    0.154769    0.000628
  20 H :    0.213379    0.010720
  21 H :    0.341946   -0.002633
  22 H :    0.361080    0.008585
  23 H :    0.366433   -0.000037
  24 H :    0.330107    0.000394
  25 H :    0.226871   -0.001804
  26 H :    0.085501   -0.002238
  27 H :    0.020675    0.001015
  28 H :    0.027804    0.001493
  29 H :    0.024253   -0.001147
Sum of atomic charges       :   -0.0000000

LOEWDIN ATOMIC CHARGES AND SPIN DENSITIES
-----------------------------------------
   0 O :    0.072651    0.005661
   1 O :    0.104987   -0.000046
   2 O :    0.109142    0.004148
   3 O :    0.072013   -0.000069
   4 N :    0.314465    0.025602
   5 N :    0.276929   -0.002561
   6 N :    0.317149   -0.008473
   7 N :    0.343037   -0.000433
   8 C :   -0.099145    0.008160
   9 C :   -0.141656    0.000257
  10 C :    0.004832   -0.016305
  11 C :    0.054406   -0.001197
  12 C :    0.211616    0.002111
  13 C :    0.180652    0.000206
  14 C :   -0.438062   -0.009434
  15 C :   -0.392094   -0.000168
  16 C :   -0.475709   -0.002582
  17 C :   -0.491148   -0.000365
  18 H :    0.006007   -0.007191
  19 H :    0.036726   -0.000308
  20 H :   -0.007228    0.001001
  21 H :   -0.004059   -0.000541
  22 H :    0.014704    0.001175
  23 H :    0.002590    0.000065
  24 H :   -0.005794   -0.000036
  25 H :   -0.014078    0.000044
  26 H :   -0.011044    0.002483
  27 H :   -0.021994   -0.000186
  28 H :   -0.009204   -0.000974
  29 H :   -0.010691   -0.000043

  Mayer bond orders larger than 0.100000
B(  0-O , 14-C ) :   1.2709 B(  1-O , 15-C ) :   1.4163 B(  2-O , 16-C ) :   1.5801
B(  3-O , 17-C ) :   1.5353 B(  4-N , 10-C ) :   0.8658 B(  4-N , 16-C ) :   0.9351
B(  4-N , 26-H ) :   1.0811 B(  5-N , 11-C ) :   0.9607 B(  5-N , 17-C ) :   1.0370
B(  5-N , 27-H ) :   1.1348 B(  6-N , 14-C ) :   0.8977 B(  6-N , 16-C ) :   0.9225
B(  6-N , 28-H ) :   1.1062 B(  7-N , 15-C ) :   0.9806 B(  7-N , 17-C ) :   0.9259
B(  7-N , 29-H ) :   1.1223 B(  8-C , 10-C ) :   0.4627 B(  8-C , 12-C ) :   0.3498
B(  8-C , 14-C ) :   0.8330 B(  8-C , 18-H ) :  -0.1432 B(  8-C , 21-H ) :  -0.1052
B(  9-C , 11-C ) :   1.1865 B(  9-C , 13-C ) :   0.3485 B(  9-C , 15-C ) :   0.8271
B(  9-C , 24-H ) :  -0.1056 B(  9-C , 25-H ) :  -0.1102 B( 10-C , 18-H ) :   1.2163
B( 11-C , 13-C ) :  -0.2030 B( 11-C , 19-H ) :   1.0907 B( 12-C , 20-H ) :   1.0024
B( 12-C , 21-H ) :   0.9931 B( 12-C , 22-H ) :   0.8868 B( 13-C , 23-H ) :   0.8927
B( 13-C , 24-H ) :   1.0434 B( 13-C , 25-H ) :   1.0011

Dispersion correction           -0.059083648
FINAL SINGLE POINT ENERGY      -908.771110629277

DIPOLE MOMENT
-------------

Method             : TDA/CIS
Type of density    : Electron Density
Level              : Relaxed density
State              :   2
Multiplicity       :   3
Irrep              :   0
Energy             :     0.0000000000000000 Eh
Relativity type    :
Basis              : AO
                                X                 Y                 Z
Electronic contribution:     -2.576230420     -10.282988644      -5.934526324
Nuclear contribution   :      1.826895442      11.228367010       8.422392826
                        -----------------------------------------
Total Dipole Moment    :     -0.749334978       0.945378366       2.487866502
                        -----------------------------------------
Magnitude (a.u.)       :      2.764909202
Magnitude (Debye)      :      7.027840679

Rotational constants in cm-1:             0.017432             0.016201             0.012913
Rotational constants in MHz :           522.608936           485.702289           387.116888

                             ****ORCA TERMINATED NORMALLY****
TOTAL RUN TIME: 0 days 0 hours 6 minutes 21 seconds 524 msec
