                         Program Version 6.0.0  -   RELEASE  -
|  1> ! Opt wB97M-D3BJ def2-TZVPPD
|  2> %pal nprocs 8 end %pal nprocs 64 end
|  3> %geom
|  4> Constraints
|  5>     {A 2 1 0 90.9090909090909 C }
|  6> end
|  7> MaxIter 500
|  8> end
|  9> *xyz 0 1
| 10> O   -0.0007 0.8141 0.0
| 11> C   0.7509 -0.4065 0.0
| 12> C   -0.7502 -0.4076 0.0
| 13> H   1.2625 -0.6786 0.9136
| 14> H   1.2625 -0.6787 -0.9136
| 15> H   -1.2614 -0.6806 -0.9136
| 16> H   -1.2614 -0.6805 0.9136
| 17> *
| 18>
| 19>                          ****END OF INPUT****
 Total Charge           Charge          ....    0
 Multiplicity           Mult            ....    1
 Number of Electrons    NEL             ....   24
Dispersion correction           -0.005638903
FINAL SINGLE POINT ENERGY      -153.791004290038
Dispersion correction             ... done (  0.2 sec)
Dispersion correction           -0.005648268
FINAL SINGLE POINT ENERGY      -153.812624109319
Dispersion correction             ... done (  0.1 sec)
Dispersion correction           -0.005639463
FINAL SINGLE POINT ENERGY      -153.819676049624
Dispersion correction             ... done (  0.1 sec)
FINAL SINGLE POINT ENERGY      -153.822051305236
FINAL SINGLE POINT ENERGY      -153.822612475746
FINAL SINGLE POINT ENERGY      -153.822799830761
FINAL SINGLE POINT ENERGY      -153.822895855368
FINAL SINGLE POINT ENERGY      -153.822940693500
FINAL SINGLE POINT ENERGY      -153.822964907869
Dispersion correction             ... done (  0.2 sec)
Dispersion correction           -0.005662558
FINAL SINGLE POINT ENERGY      -153.822975965585
Dispersion correction             ... done (  0.1 sec)
Dispersion correction           -0.005661529
FINAL SINGLE POINT ENERGY      -153.822979158192
Dispersion correction             ... done (  0.1 sec)
                    ***********************HURRAY********************

CARTESIAN COORDINATES (ANGSTROEM)
---------------------------------
  O      0.299992    0.986833   -0.002190
  C      0.636149   -0.310861   -0.000495
  C     -0.737921   -0.690164    0.000506
  H      1.192962   -0.638161    0.887022
  H      1.193500   -0.640186   -0.886847
  H     -1.291999   -0.714610   -0.925324
  H     -1.290483   -0.711251    0.927328

 Multiplicity           Mult            ....    1
 Number of Electrons    NEL             ....   24
 Basis Dimension        Dim             ....  182

ORBITAL ENERGIES
----------------

  NO   OCC          E(Eh)            E(eV)
   0   2.0000     -19.336524      -526.1736
   1   2.0000     -10.432730      -283.8890
   2   2.0000     -10.396919      -282.9146
   3   2.0000      -1.142625       -31.0924
   4   2.0000      -0.869217       -23.6526
   5   2.0000      -0.734649       -19.9908
   6   2.0000      -0.625245       -17.0138
   7   2.0000      -0.579136       -15.7591
   8   2.0000      -0.515505       -14.0276
   9   2.0000      -0.507846       -13.8192
  10   2.0000      -0.383812       -10.4440
  11   2.0000      -0.361906        -9.8480
  12   0.0000      -0.023583        -0.6417
  13   0.0000       0.039690         1.0800
  14   0.0000       0.060872         1.6564
  15   0.0000       0.076611         2.0847
  16   0.0000       0.098112         2.6698

MULLIKEN ATOMIC CHARGES
-----------------------
   0 O :   -0.488515
   1 C :   -0.085122
   2 C :   -0.298704
   3 H :    0.217662
   4 H :    0.217831
   5 H :    0.218388
   6 H :    0.218460
Sum of atomic charges:   -0.0000000

LOEWDIN ATOMIC CHARGES
----------------------
   0 O :   -0.016659
   1 C :   -0.357572
   2 C :    0.339733
   3 H :    0.024236
   4 H :    0.024238
   5 H :   -0.006985
   6 H :   -0.006991

  Mayer bond orders larger than 0.100000
B(  0-O ,  1-C ) :   0.6741 B(  0-O ,  2-C ) :   0.9433 B(  1-C ,  2-C ) :   0.7675
B(  1-C ,  3-H ) :   1.0474 B(  1-C ,  4-H ) :   1.0472 B(  2-C ,  5-H ) :   0.9641
B(  2-C ,  6-H ) :   0.9641

Dispersion correction           -0.005661098
FINAL SINGLE POINT ENERGY      -153.822979897273

DIPOLE MOMENT
-------------

Method             : SCF
Type of density    : Electron Density
Multiplicity       :   1
Irrep              :   0
Energy             :  -153.8173187990129236 Eh
Relativity type    :
Basis              : AO
                                X                 Y                 Z
Electronic contribution:      0.064632079       1.427680326      -0.002994619
Nuclear contribution   :     -0.468493863      -2.611302570       0.004808032
                        -----------------------------------------
Total Dipole Moment    :     -0.403861785      -1.183622244       0.001813413
                        -----------------------------------------
Magnitude (a.u.)       :      1.250627541
Magnitude (Debye)      :      3.178842583

Rotational constants in cm-1:             1.071739             0.495789             0.391135
Rotational constants in MHz :         32129.917829         14863.370551         11725.919764

                             ****ORCA TERMINATED NORMALLY****
TOTAL RUN TIME: 0 days 0 hours 2 minutes 45 seconds 819 msec
