                         Program Version 6.0.0  -   RELEASE  -
|  1> ! Engrad def2-TZVPPD wB97M-D3BJ
|  2> %pal nprocs 8 end%pal nprocs 32 end
|  3> %tddft Nroots 2 Iroot 1
|  4> sf true
|  5> end
|  6> *xyz 0 3
|  7> O   0.71203177 1.38522179 0.08188602
|  8> C   0.55989539 0.15350692 -0.26617171
|  9> C   -0.45347346 -0.81259295 0.22625184
| 10> H   0.04568386 -1.68104395 0.6605216
| 11> H   1.21719138 -0.2135741 -1.02961001
| 12> H   -1.06373502 -1.1805779 -0.63471079
| 13> H   -1.15748433 -0.38663938 0.93925547
| 14> *
| 15>
| 16>                          ****END OF INPUT****

CARTESIAN COORDINATES (ANGSTROEM)
---------------------------------
  O      0.712032    1.385222    0.081886
  C      0.559895    0.153507   -0.266172
  C     -0.453473   -0.812593    0.226252
  H      0.045684   -1.681044    0.660522
  H      1.217191   -0.213574   -1.029610
  H     -1.063735   -1.180578   -0.634711
  H     -1.157484   -0.386639    0.939255

 Total Charge           Charge          ....    0
 Multiplicity           Mult            ....    3
 Number of Electrons    NEL             ....   24
 Basis Dimension        Dim             ....  182

ORBITAL ENERGIES
----------------
                 SPIN UP ORBITALS
  NO   OCC          E(Eh)            E(eV)
   0   1.0000     -19.421058      -528.4739
   1   1.0000     -10.386235      -282.6238
   2   1.0000     -10.366128      -282.0767
   3   1.0000      -1.212279       -32.9878
   4   1.0000      -0.884600       -24.0712
   5   1.0000      -0.723458       -19.6863
   6   1.0000      -0.622575       -16.9411
   7   1.0000      -0.580806       -15.8045
   8   1.0000      -0.567435       -15.4407
   9   1.0000      -0.511282       -13.9127
  10   1.0000      -0.503748       -13.7077
  11   1.0000      -0.450979       -12.2718
  12   1.0000      -0.242454        -6.5975
  13   0.0000       0.039871         1.0849
  14   0.0000       0.060042         1.6338
  15   0.0000       0.079453         2.1620
  16   0.0000       0.089117         2.4250
  17   0.0000       0.107412         2.9228

                 SPIN DOWN ORBITALS
  NO   OCC          E(Eh)            E(eV)
   0   1.0000     -19.392520      -527.6973
   1   1.0000     -10.374870      -282.3146
   2   1.0000     -10.364977      -282.0454
   3   1.0000      -1.147431       -31.2232
   4   1.0000      -0.865888       -23.5620
   5   1.0000      -0.683353       -18.5950
   6   1.0000      -0.578147       -15.7322
   7   1.0000      -0.533247       -14.5104
   8   1.0000      -0.529163       -14.3993
   9   1.0000      -0.492185       -13.3930
  10   1.0000      -0.458659       -12.4807
  11   0.0000      -0.080238        -2.1834
  12   0.0000       0.040447         1.1006
  13   0.0000       0.060303         1.6409
  14   0.0000       0.071589         1.9480
  15   0.0000       0.079585         2.1656

----------------------------------------------------------------------------------------------------
          SPIN FLIP ABSORPTION SPECTRUM VIA TRANSITION ELECTRIC DIPOLE MOMENTS
----------------------------------------------------------------------------------------------------
     Transition      Energy     Energy  Wavelength fosc(D2)      D2        DX        DY        DZ
                      (eV)      (cm-1)    (nm)                 (au**2)    (au)      (au)      (au)
----------------------------------------------------------------------------------------------------
  1-3A  ->  2-3A    3.932551   31718.2   315.3   0.000041681   0.00043  -0.00647   0.01184  -0.01583

Dispersion correction             ... done (  0.1 sec)

MULLIKEN ATOMIC CHARGES AND SPIN DENSITIES
------------------------------------------
   0 O :   -0.553611    0.048150
   1 C :    0.224506   -0.174776
   2 C :   -0.645194    0.043412
   3 H :    0.230698   -0.000747
   4 H :    0.298046    0.083393
   5 H :    0.221599   -0.002099
   6 H :    0.223957    0.002667
Sum of atomic charges       :    0.0000000

LOEWDIN ATOMIC CHARGES AND SPIN DENSITIES
-----------------------------------------
   0 O :   -0.034921    0.011392
   1 C :   -0.134407   -0.009087
   2 C :    0.163598   -0.000498
   3 H :   -0.006803   -0.000644
   4 H :    0.002795   -0.001117
   5 H :    0.014440   -0.000680
   6 H :   -0.004701    0.000633

  Mayer bond orders larger than 0.100000
B(  0-O ,  1-C ) :   1.7378 B(  1-C ,  2-C ) :   0.7715 B(  1-C ,  4-H ) :   0.9351
B(  2-C ,  3-H ) :   0.9817 B(  2-C ,  5-H ) :   0.9840 B(  2-C ,  6-H ) :   0.9810

Dispersion correction           -0.005470900
FINAL SINGLE POINT ENERGY      -153.909285505813

DIPOLE MOMENT
-------------

Method             : TDA/CIS
Type of density    : Electron Density
Level              : Relaxed density
State              :   1
Multiplicity       :   3
Irrep              :   0
Energy             :     0.0000000000000000 Eh
Relativity type    :
Basis              : AO
                                X                 Y                 Z
Electronic contribution:      1.533067125       2.725606562      -0.139893189
Nuclear contribution   :     -1.889515010      -4.147229072      -0.124814218
                        -----------------------------------------
Total Dipole Moment    :     -0.356447885      -1.421622510      -0.264707407
                        -----------------------------------------
Magnitude (a.u.)       :      1.489340682
Magnitude (Debye)      :      3.785603167

Rotational constants in cm-1:             1.960540             0.316153             0.287042
Rotational constants in MHz :         58775.497284          9478.028521          8605.306114

                             ****ORCA TERMINATED NORMALLY****
TOTAL RUN TIME: 0 days 0 hours 0 minutes 15 seconds 810 msec
