                         Program Version 6.0.0  -   RELEASE  -
|  1> ! Engrad def2-TZVPPD wB97M-D3BJ
|  2> %pal nprocs 8 end%pal nprocs 64 end
|  3>  %tddft nroots 2 Iroot 2
|  4> sf true
|  5> end
|  6> *xyz 0 3
|  7> O   3.43874003245525 0.67045564299823 -0.18265848272724
|  8> O   -0.77144726389179 0.86160969627161 -2.52856447284361
|  9> O   0.71541468778718 -2.82234277763708 -1.17433642436403
| 10> O   -3.57703035369704 -1.07593261979327 0.42504332739258
| 11> N   0.21968726628326 -1.57668810113861 0.65146642794561
| 12> N   -2.01272975057627 0.35804280882918 1.26304901200763
| 13> N   2.08516214819129 -1.0886981974883 -0.64706720714268
| 14> N   -1.97125802875964 -0.29984688178165 -0.9824901419767
| 15> C   1.5303626676591 0.39713234023085 1.17657263074453
| 16> C   -0.52418881678496 1.43599015518106 -0.23395658767707
| 17> C   0.33904988437573 -0.39338197681596 1.45413931122714
| 18> C   -0.57953839711395 0.74622779037861 1.13984435343987
| 19> C   1.99103897942439 1.46489598398171 2.0913481626825
| 20> C   -0.41483084239848 2.90367344376768 -0.32965504608503
| 21> C   2.43554272686112 0.03613062306719 0.0793741830208
| 22> C   -1.0440083707312 0.66128529978515 -1.36601193504826
| 23> C   0.97355525849061 -1.89355047220881 -0.44475784769595
| 24> C   -2.59314889586292 -0.38842315198957 0.26658970919752
| 25> H   0.25346600336166 -0.65621153890997 2.51293819093483
| 26> H   -0.42284356875786 1.5156339304286 1.8893175752831
| 27> H   1.7673307261 2.45934270466593 1.68912293725735
| 28> H   1.52707716638535 1.38510823930196 3.07232403243493
| 29> H   3.07449643953731 1.42358727566229 2.18156829149745
| 30> H   -1.29835430592515 3.38850028183659 0.10130420102064
| 31> H   0.44800481790614 3.27345140480455 0.23061904991942
| 32> H   -0.32842909477207 3.20869935895823 -1.36839052540841
| 33> H   -0.60801386113996 -2.13862405437344 0.74667026540255
| 34> H   -2.44779139765716 0.21269124216491 2.15964354415058
| 35> H   2.64554060619577 -1.30919646900504 -1.45354092507657
| 36> H   -2.39825646294574 -0.84456198117265 -1.71490560951348
| 37> *
| 38>
| 39>                          ****END OF INPUT****

CARTESIAN COORDINATES (ANGSTROEM)
---------------------------------
  O      3.438740    0.670456   -0.182658
  O     -0.771447    0.861610   -2.528564
  O      0.715415   -2.822343   -1.174336
  O     -3.577030   -1.075933    0.425043
  N      0.219687   -1.576688    0.651466
  N     -2.012730    0.358043    1.263049
  N      2.085162   -1.088698   -0.647067
  N     -1.971258   -0.299847   -0.982490
  C      1.530363    0.397132    1.176573
  C     -0.524189    1.435990   -0.233957
  C      0.339050   -0.393382    1.454139
  C     -0.579538    0.746228    1.139844
  C      1.991039    1.464896    2.091348
  C     -0.414831    2.903673   -0.329655
  C      2.435543    0.036131    0.079374
  C     -1.044008    0.661285   -1.366012
  C      0.973555   -1.893550   -0.444758
  C     -2.593149   -0.388423    0.266590
  H      0.253466   -0.656212    2.512938
  H     -0.422844    1.515634    1.889318
  H      1.767331    2.459343    1.689123
  H      1.527077    1.385108    3.072324
  H      3.074496    1.423587    2.181568
  H     -1.298354    3.388500    0.101304
  H      0.448005    3.273451    0.230619
  H     -0.328429    3.208699   -1.368391
  H     -0.608014   -2.138624    0.746670
  H     -2.447791    0.212691    2.159644
  H      2.645541   -1.309196   -1.453541
  H     -2.398256   -0.844562   -1.714906

 Total Charge           Charge          ....    0
 Multiplicity           Mult            ....    3
 Number of Electrons    NEL             ....  132
 Basis Dimension        Dim             ....  882

ORBITAL ENERGIES
----------------
                 SPIN UP ORBITALS
  NO   OCC          E(Eh)            E(eV)
   0   1.0000     -19.335008      -526.1323
   1   1.0000     -19.330854      -526.0193
   2   1.0000     -19.323760      -525.8263
   3   1.0000     -19.317429      -525.6540
   4   1.0000     -14.563232      -396.2857
   5   1.0000     -14.562614      -396.2689
   6   1.0000     -14.561744      -396.2452
   7   1.0000     -14.561081      -396.2272
   8   1.0000     -10.507086      -285.9124
   9   1.0000     -10.505048      -285.8569
  10   1.0000     -10.482304      -285.2380
  11   1.0000     -10.480702      -285.1944
  12   1.0000     -10.447999      -284.3045
  13   1.0000     -10.442104      -284.1441
  14   1.0000     -10.419084      -283.5177
  15   1.0000     -10.415759      -283.4272
  16   1.0000     -10.378983      -282.4265
  17   1.0000     -10.375931      -282.3434
  18   1.0000      -1.222689       -33.2711
  19   1.0000      -1.218319       -33.1522
  20   1.0000      -1.199581       -32.6423
  21   1.0000      -1.196164       -32.5493
  22   1.0000      -1.123950       -30.5842
  23   1.0000      -1.098309       -29.8865
  24   1.0000      -1.067613       -29.0512
  25   1.0000      -1.057938       -28.7880
  26   1.0000      -1.001161       -27.2430
  27   1.0000      -0.953776       -25.9536
  28   1.0000      -0.897378       -24.4189
  29   1.0000      -0.842262       -22.9191
  30   1.0000      -0.830629       -22.6026
  31   1.0000      -0.802040       -21.8246
  32   1.0000      -0.787137       -21.4191
  33   1.0000      -0.783956       -21.3325
  34   1.0000      -0.708987       -19.2925
  35   1.0000      -0.698421       -19.0050
  36   1.0000      -0.695444       -18.9240
  37   1.0000      -0.677798       -18.4438
  38   1.0000      -0.660159       -17.9638
  39   1.0000      -0.637620       -17.3505
  40   1.0000      -0.625131       -17.0107
  41   1.0000      -0.600887       -16.3510
  42   1.0000      -0.595536       -16.2054
  43   1.0000      -0.589007       -16.0277
  44   1.0000      -0.583391       -15.8749
  45   1.0000      -0.576009       -15.6740
  46   1.0000      -0.566816       -15.4239
  47   1.0000      -0.565149       -15.3785
  48   1.0000      -0.557983       -15.1835
  49   1.0000      -0.554719       -15.0947
  50   1.0000      -0.549258       -14.9461
  51   1.0000      -0.546653       -14.8752
  52   1.0000      -0.536559       -14.6005
  53   1.0000      -0.524383       -14.2692
  54   1.0000      -0.514509       -14.0005
  55   1.0000      -0.511479       -13.9181
  56   1.0000      -0.496048       -13.4982
  57   1.0000      -0.424711       -11.5570
  58   1.0000      -0.421462       -11.4686
  59   1.0000      -0.411637       -11.2012
  60   1.0000      -0.404546       -11.0083
  61   1.0000      -0.399926       -10.8826
  62   1.0000      -0.393591       -10.7102
  63   1.0000      -0.390659       -10.6304
  64   1.0000      -0.383390       -10.4326
  65   1.0000      -0.350551        -9.5390
  66   1.0000      -0.318653        -8.6710
  67   0.0000       0.007051         0.1919
  68   0.0000       0.027955         0.7607
  69   0.0000       0.032870         0.8944
  70   0.0000       0.035733         0.9723
  71   0.0000       0.054386         1.4799

                 SPIN DOWN ORBITALS
  NO   OCC          E(Eh)            E(eV)
   0   1.0000     -19.331590      -526.0393
   1   1.0000     -19.327149      -525.9185
   2   1.0000     -19.323418      -525.8169
   3   1.0000     -19.317448      -525.6545
   4   1.0000     -14.561852      -396.2481
   5   1.0000     -14.561836      -396.2477
   6   1.0000     -14.561463      -396.2375
   7   1.0000     -14.561018      -396.2254
   8   1.0000     -10.507103      -285.9128
   9   1.0000     -10.505099      -285.8583
  10   1.0000     -10.483252      -285.2638
  11   1.0000     -10.481464      -285.2151
  12   1.0000     -10.447280      -284.2849
  13   1.0000     -10.442271      -284.1486
  14   1.0000     -10.406654      -283.1795
  15   1.0000     -10.404159      -283.1116
  16   1.0000     -10.379585      -282.4429
  17   1.0000     -10.376546      -282.3602
  18   1.0000      -1.220927       -33.2231
  19   1.0000      -1.216726       -33.1088
  20   1.0000      -1.195384       -32.5281
  21   1.0000      -1.191933       -32.4342
  22   1.0000      -1.120562       -30.4920
  23   1.0000      -1.095874       -29.8202
  24   1.0000      -1.065594       -28.9963
  25   1.0000      -1.056104       -28.7381
  26   1.0000      -0.989052       -26.9135
  27   1.0000      -0.936572       -25.4854
  28   1.0000      -0.890840       -24.2410
  29   1.0000      -0.836651       -22.7664
  30   1.0000      -0.821663       -22.3586
  31   1.0000      -0.797147       -21.6915
  32   1.0000      -0.785450       -21.3732
  33   1.0000      -0.781992       -21.2791
  34   1.0000      -0.703989       -19.1565
  35   1.0000      -0.690266       -18.7831
  36   1.0000      -0.687739       -18.7143
  37   1.0000      -0.668525       -18.1915
  38   1.0000      -0.650060       -17.6890
  39   1.0000      -0.633991       -17.2518
  40   1.0000      -0.620632       -16.8882
  41   1.0000      -0.596048       -16.2193
  42   1.0000      -0.589197       -16.0329
  43   1.0000      -0.583852       -15.8874
  44   1.0000      -0.576405       -15.6848
  45   1.0000      -0.566167       -15.4062
  46   1.0000      -0.563211       -15.3258
  47   1.0000      -0.562101       -15.2955
  48   1.0000      -0.551585       -15.0094
  49   1.0000      -0.545556       -14.8453
  50   1.0000      -0.541638       -14.7387
  51   1.0000      -0.537908       -14.6372
  52   1.0000      -0.531065       -14.4510
  53   1.0000      -0.515593       -14.0300
  54   1.0000      -0.509097       -13.8532
  55   1.0000      -0.503950       -13.7132
  56   1.0000      -0.489312       -13.3149
  57   1.0000      -0.419486       -11.4148
  58   1.0000      -0.418223       -11.3804
  59   1.0000      -0.407079       -11.0772
  60   1.0000      -0.393961       -10.7202
  61   1.0000      -0.390177       -10.6173
  62   1.0000      -0.388526       -10.5723
  63   1.0000      -0.385674       -10.4947
  64   1.0000      -0.375796       -10.2259
  65   0.0000      -0.067057        -1.8247
  66   0.0000      -0.031448        -0.8557
  67   0.0000       0.006468         0.1760
  68   0.0000       0.027902         0.7593
  69   0.0000       0.032671         0.8890

----------------------------------------------------------------------------------------------------
          SPIN FLIP ABSORPTION SPECTRUM VIA TRANSITION ELECTRIC DIPOLE MOMENTS
----------------------------------------------------------------------------------------------------
     Transition      Energy     Energy  Wavelength fosc(D2)      D2        DX        DY        DZ
                      (eV)      (cm-1)    (nm)                 (au**2)    (au)      (au)      (au)
----------------------------------------------------------------------------------------------------
  1-3A  ->  2-3A    0.355755    2869.4  3485.1   0.000029865   0.00343   0.00070  -0.04307   0.03964

Dispersion correction             ... done (  0.1 sec)

MULLIKEN ATOMIC CHARGES AND SPIN DENSITIES
------------------------------------------
   0 O :   -0.691047    0.039562
   1 O :   -0.654319   -0.035452
   2 O :   -0.661944   -0.000034
   3 O :   -0.644894   -0.000852
   4 N :   -0.213056    0.006097
   5 N :   -0.349771   -0.008740
   6 N :   -0.020294    0.007435
   7 N :    0.071252   -0.001314
   8 C :    0.318150    0.439320
   9 C :    0.940467    0.307954
  10 C :    0.633981   -0.197769
  11 C :    0.118237   -0.215677
  12 C :   -1.545435    0.050696
  13 C :   -1.461140    0.033124
  14 C :    0.316762   -0.178667
  15 C :   -0.244357   -0.344477
  16 C :    0.513226    0.025411
  17 C :    0.353295    0.016879
  18 H :    0.355515    0.003022
  19 H :    0.666227    0.007090
  20 H :    0.255039    0.007851
  21 H :    0.351966    0.002760
  22 H :    0.394441    0.007998
  23 H :    0.363680    0.008231
  24 H :    0.269182    0.032926
  25 H :    0.369102   -0.015569
  26 H :    0.031913    0.000202
  27 H :    0.105095    0.000916
  28 H :    0.025000   -0.000261
  29 H :    0.033727    0.001339
Sum of atomic charges       :   -0.0000000

LOEWDIN ATOMIC CHARGES AND SPIN DENSITIES
-----------------------------------------
   0 O :    0.089020    0.034055
   1 O :    0.101991   -0.035693
   2 O :    0.093235   -0.000312
   3 O :    0.084821   -0.000650
   4 N :    0.302070   -0.000619
   5 N :    0.296184   -0.006700
   6 N :    0.336733    0.004240
   7 N :    0.324145   -0.004797
   8 C :   -0.058896    0.154948
   9 C :    0.012905   -0.147951
  10 C :   -0.135746    0.015687
  11 C :   -0.127997   -0.003753
  12 C :    0.189247    0.021805
  13 C :    0.198892   -0.025454
  14 C :   -0.392314    0.018606
  15 C :   -0.416541   -0.025321
  16 C :   -0.480194   -0.000136
  17 C :   -0.493731   -0.000267
  18 H :    0.075111    0.004086
  19 H :    0.041135    0.000392
  20 H :    0.000476    0.007250
  21 H :    0.006190    0.000805
  22 H :    0.010601    0.003908
  23 H :    0.021025   -0.008744
  24 H :   -0.009255   -0.004021
  25 H :    0.005805   -0.000282
  26 H :   -0.027659   -0.000070
  27 H :   -0.031607   -0.000939
  28 H :   -0.008199    0.000442
  29 H :   -0.007447   -0.000516

  Mayer bond orders larger than 0.100000
B(  0-O , 12-C ) :   0.1069 B(  0-O , 14-C ) :   1.2652 B(  1-O , 15-C ) :   1.4294
B(  2-O , 16-C ) :   1.5172 B(  3-O , 17-C ) :   1.5855 B(  4-N ,  8-C ) :   0.1621
B(  4-N ,  9-C ) :   0.1178 B(  4-N , 10-C ) :   0.5213 B(  4-N , 16-C ) :   1.0288
B(  4-N , 26-H ) :   1.0979 B(  5-N ,  9-C ) :   0.2119 B(  5-N , 10-C ) :   0.1725
B(  5-N , 11-C ) :  -0.1710 B(  5-N , 15-C ) :   0.1100 B(  5-N , 17-C ) :   1.2271
B(  5-N , 27-H ) :   1.0256 B(  6-N , 14-C ) :   1.0011 B(  6-N , 16-C ) :   0.9226
B(  6-N , 28-H ) :   1.1118 B(  7-N , 10-C ) :  -0.1333 B(  7-N , 11-C ) :   0.1437
B(  7-N , 15-C ) :   0.9470 B(  7-N , 17-C ) :   0.9849 B(  7-N , 29-H ) :   1.1004
B(  8-C ,  9-C ) :   0.1532 B(  8-C , 10-C ) :   0.3352 B(  8-C , 11-C ) :   0.5558
B(  8-C , 12-C ) :   0.3248 B(  8-C , 14-C ) :   0.6831 B(  8-C , 18-H ) :  -0.2673
B(  8-C , 21-H ) :  -0.1840 B(  9-C , 11-C ) :   0.8100 B(  9-C , 13-C ) :   0.2850
B(  9-C , 15-C ) :   0.3071 B(  9-C , 25-H ) :  -0.1013 B( 10-C , 11-C ) :   0.3761
B( 10-C , 12-C ) :  -0.3974 B( 10-C , 18-H ) :   1.1359 B( 10-C , 19-H ) :  -0.1481
B( 11-C , 12-C ) :   0.2194 B( 11-C , 13-C ) :  -0.1540 B( 11-C , 17-C ) :  -0.2232
B( 11-C , 18-H ) :  -0.1863 B( 11-C , 19-H ) :   0.6976 B( 12-C , 20-H ) :   0.8515
B( 12-C , 21-H ) :   1.1197 B( 12-C , 22-H ) :   0.8743 B( 13-C , 23-H ) :   0.8553
B( 13-C , 24-H ) :   1.0279 B( 13-C , 25-H ) :   0.9579

Dispersion correction           -0.059331132
FINAL SINGLE POINT ENERGY      -908.779580458149

DIPOLE MOMENT
-------------

Method             : TDA/CIS
Type of density    : Electron Density
Level              : Relaxed density
State              :   2
Multiplicity       :   3
Irrep              :   0
Energy             :     0.0000000000000000 Eh
Relativity type    :
Basis              : AO
                                X                 Y                 Z
Electronic contribution:     -2.120337161      -9.806376705      -6.630048477
Nuclear contribution   :      2.018808729      11.252159646       9.160255508
                        -----------------------------------------
Total Dipole Moment    :     -0.101528431       1.445782941       2.530207031
                        -----------------------------------------
Magnitude (a.u.)       :      2.915912199
Magnitude (Debye)      :      7.411659796

Rotational constants in cm-1:             0.020260             0.013826             0.012120
Rotational constants in MHz :           607.365821           414.478438           363.351009

                             ****ORCA TERMINATED NORMALLY****
TOTAL RUN TIME: 0 days 0 hours 4 minutes 37 seconds 415 msec
