                         Program Version 6.0.0  -   RELEASE  -
|  1> ! Opt wB97M-D3BJ def2-TZVPPD
|  2> %pal nprocs 8 end %pal nprocs 64 end
|  3> %geom
|  4> Constraints
|  5>     {A 2 1 0 114.91525423728814 C }
|  6> end
|  7> MaxIter 200
|  8> end
|  9> *xyz 0 1
| 10> O   1.3538253417534283 0.8939798930669832 0.0
| 11> C   0.7509 -0.4065 0.0
| 12> C   -0.7502 -0.4076 0.0
| 13> H   1.2625 -0.6786 0.9136
| 14> H   1.2625 -0.6787 -0.9136
| 15> H   -1.2614 -0.6806 -0.9136
| 16> H   -1.2614 -0.6805 0.9136
| 17> *
| 18>
| 19>                          ****END OF INPUT****
 Total Charge           Charge          ....    0
 Multiplicity           Mult            ....    1
 Number of Electrons    NEL             ....   24
Dispersion correction           -0.005418811
FINAL SINGLE POINT ENERGY      -153.704953309464
Dispersion correction             ... done (  0.1 sec)
Dispersion correction           -0.005478746
FINAL SINGLE POINT ENERGY      -153.728732046388
Dispersion correction             ... done (  0.1 sec)
Dispersion correction           -0.005536769
FINAL SINGLE POINT ENERGY      -153.742246234170
Dispersion correction             ... done (  0.1 sec)
FINAL SINGLE POINT ENERGY      -153.752826636126
FINAL SINGLE POINT ENERGY      -153.757134536416
FINAL SINGLE POINT ENERGY      -153.758115975685
FINAL SINGLE POINT ENERGY      -153.760314319584
FINAL SINGLE POINT ENERGY      -153.761990655974
FINAL SINGLE POINT ENERGY      -153.765337033461
FINAL SINGLE POINT ENERGY      -153.771745387646
FINAL SINGLE POINT ENERGY      -153.927315228015
FINAL SINGLE POINT ENERGY      -153.927379988215
FINAL SINGLE POINT ENERGY      -153.927407248162
FINAL SINGLE POINT ENERGY      -153.927396530294
FINAL SINGLE POINT ENERGY      -153.927462025773
FINAL SINGLE POINT ENERGY      -153.927470811574
FINAL SINGLE POINT ENERGY      -153.927471883653
Dispersion correction             ... done (  0.0 sec)
Dispersion correction           -0.005554349
FINAL SINGLE POINT ENERGY      -153.927472369455
Dispersion correction             ... done (  0.1 sec)
Dispersion correction           -0.005554390
FINAL SINGLE POINT ENERGY      -153.927472637952
Dispersion correction             ... done (  0.1 sec)
                    ***********************HURRAY********************

CARTESIAN COORDINATES (ANGSTROEM)
---------------------------------
  O      0.995614    1.171589    0.092785
  C      0.887213    0.039578   -0.312687
  C     -0.312127   -0.713140    0.214247
  H     -0.000820   -1.614853    0.744942
  H      1.598932   -0.423911   -1.012753
  H     -0.953565   -1.042680   -0.605255
  H     -0.858521   -0.055102    0.878722

 Multiplicity           Mult            ....    1
 Number of Electrons    NEL             ....   24
 Basis Dimension        Dim             ....  182

ORBITAL ENERGIES
----------------

  NO   OCC          E(Eh)            E(eV)
   0   2.0000     -19.336940      -526.1849
   1   2.0000     -10.443493      -284.1819
   2   2.0000     -10.352062      -281.6939
   3   2.0000      -1.186301       -32.2809
   4   2.0000      -0.872870       -23.7520
   5   2.0000      -0.708894       -19.2900
   6   2.0000      -0.598759       -16.2931
   7   2.0000      -0.555755       -15.1229
   8   2.0000      -0.546484       -14.8706
   9   2.0000      -0.507257       -13.8032
  10   2.0000      -0.471683       -12.8351
  11   2.0000      -0.367003        -9.9867
  12   0.0000       0.039166         1.0658
  13   0.0000       0.050909         1.3853
  14   0.0000       0.058921         1.6033
  15   0.0000       0.084751         2.3062
  16   0.0000       0.087137         2.3711

MULLIKEN ATOMIC CHARGES
-----------------------
   0 O :   -0.472989
   1 C :    0.244173
   2 C :   -0.690407
   3 H :    0.218582
   4 H :    0.243596
   5 H :    0.218788
   6 H :    0.238256
Sum of atomic charges:   -0.0000000

LOEWDIN ATOMIC CHARGES
----------------------
   0 O :    0.051882
   1 C :   -0.196974
   2 C :    0.164081
   3 H :   -0.014959
   4 H :    0.023039
   5 H :   -0.014999
   6 H :   -0.012070

  Mayer bond orders larger than 0.100000
B(  0-O ,  1-C ) :   1.7722 B(  1-C ,  2-C ) :   0.7800 B(  1-C ,  4-H ) :   0.9812
B(  2-C ,  3-H ) :   0.9941 B(  2-C ,  5-H ) :   0.9942 B(  2-C ,  6-H ) :   0.9601

Dispersion correction           -0.005554405
FINAL SINGLE POINT ENERGY      -153.927472647162

DIPOLE MOMENT
-------------

Method             : SCF
Type of density    : Electron Density
Multiplicity       :   1
Irrep              :   0
Energy             :  -153.9219182418298999 Eh
Relativity type    :
Basis              : AO
                                X                 Y                 Z
Electronic contribution:      1.880420893       2.548325808      -0.243882098
Nuclear contribution   :     -2.120568560      -3.566076011      -0.019645403
                        -----------------------------------------
Total Dipole Moment    :     -0.240147667      -1.017750203      -0.263527501
                        -----------------------------------------
Magnitude (a.u.)       :      1.078393769
Magnitude (Debye)      :      2.741059126

Rotational constants in cm-1:             1.670927             0.367416             0.318743
Rotational constants in MHz :         50093.138221         11014.857065          9555.688775

                             ****ORCA TERMINATED NORMALLY****
TOTAL RUN TIME: 0 days 0 hours 9 minutes 34 seconds 935 msec
