                         Program Version 6.0.0  -   RELEASE  -
|  1> ! Opt wB97M-D3BJ def2-TZVPPD
|  2> %pal nprocs 8 end %pal nprocs 64 end
|  3> %geom
|  4> Constraints
|  5>     {A 2 1 0 79.0909090909091 C }
|  6> end
|  7> MaxIter 500
|  8> end
|  9> *xyz 0 1
| 10> O   -0.0007 0.8141 0.0
| 11> C   0.7509 -0.4065 0.0
| 12> C   -0.7502 -0.4076 0.0
| 13> H   1.2625 -0.6786 0.9136
| 14> H   1.2625 -0.6787 -0.9136
| 15> H   -1.2614 -0.6806 -0.9136
| 16> H   -1.2614 -0.6805 0.9136
| 17> *
| 18>
| 19>                          ****END OF INPUT****
 Total Charge           Charge          ....    0
 Multiplicity           Mult            ....    1
 Number of Electrons    NEL             ....   24
Dispersion correction           -0.005328621
FINAL SINGLE POINT ENERGY      -153.842225718344
Dispersion correction             ... done (  0.2 sec)
Dispersion correction           -0.005305447
FINAL SINGLE POINT ENERGY      -153.850643090815
Dispersion correction             ... done (  0.2 sec)
Dispersion correction           -0.005306435
FINAL SINGLE POINT ENERGY      -153.853525841771
Dispersion correction             ... done (  0.1 sec)
FINAL SINGLE POINT ENERGY      -153.854080132260
FINAL SINGLE POINT ENERGY      -153.854235822620
FINAL SINGLE POINT ENERGY      -153.854279675902
Dispersion correction             ... done (  0.1 sec)
Dispersion correction           -0.005316454
FINAL SINGLE POINT ENERGY      -153.854289058668
Dispersion correction             ... done (  0.1 sec)
Dispersion correction           -0.005316971
FINAL SINGLE POINT ENERGY      -153.854292276007
Dispersion correction             ... done (  0.1 sec)
                    ***********************HURRAY********************

CARTESIAN COORDINATES (ANGSTROEM)
---------------------------------
  O      0.176055    0.904022   -0.000644
  C      0.662730   -0.356181   -0.000043
  C     -0.731078   -0.607138    0.000069
  H      1.218796   -0.648004    0.895016
  H      1.218659   -0.648322   -0.895091
  H     -1.271778   -0.682638   -0.928085
  H     -1.271184   -0.680139    0.928778

 Multiplicity           Mult            ....    1
 Number of Electrons    NEL             ....   24
 Basis Dimension        Dim             ....  182

ORBITAL ENERGIES
----------------

  NO   OCC          E(Eh)            E(eV)
   0   2.0000     -19.343947      -526.3756
   1   2.0000     -10.416559      -283.4490
   2   2.0000     -10.396538      -282.9042
   3   2.0000      -1.164694       -31.6929
   4   2.0000      -0.847109       -23.0510
   5   2.0000      -0.739094       -20.1118
   6   2.0000      -0.627274       -17.0690
   7   2.0000      -0.586561       -15.9611
   8   2.0000      -0.506193       -13.7742
   9   2.0000      -0.500080       -13.6079
  10   2.0000      -0.405949       -11.0464
  11   2.0000      -0.372288       -10.1305
  12   0.0000       0.027417         0.7461
  13   0.0000       0.045641         1.2420
  14   0.0000       0.060822         1.6550
  15   0.0000       0.076809         2.0901
  16   0.0000       0.102150         2.7797

MULLIKEN ATOMIC CHARGES
-----------------------
   0 O :   -0.440481
   1 C :   -0.094014
   2 C :   -0.295850
   3 H :    0.208280
   4 H :    0.208261
   5 H :    0.206802
   6 H :    0.207002
Sum of atomic charges:    0.0000000

LOEWDIN ATOMIC CHARGES
----------------------
   0 O :   -0.023846
   1 C :   -0.265075
   2 C :    0.245151
   3 H :    0.024562
   4 H :    0.024565
   5 H :   -0.002668
   6 H :   -0.002689

  Mayer bond orders larger than 0.100000
B(  0-O ,  1-C ) :   0.6876 B(  0-O ,  2-C ) :   0.9326 B(  1-C ,  2-C ) :   0.7775
B(  1-C ,  3-H ) :   1.0510 B(  1-C ,  4-H ) :   1.0508 B(  2-C ,  5-H ) :   0.9723
B(  2-C ,  6-H ) :   0.9724

Dispersion correction           -0.005317183
FINAL SINGLE POINT ENERGY      -153.854293652743

DIPOLE MOMENT
-------------

Method             : SCF
Type of density    : Electron Density
Multiplicity       :   1
Irrep              :   0
Energy             :  -153.8489764698822739 Eh
Relativity type    :
Basis              : AO
                                X                 Y                 Z
Electronic contribution:      0.028415314       1.495512283      -0.000920426
Nuclear contribution   :     -0.257968072      -2.499523224       0.001370505
                        -----------------------------------------
Total Dipole Moment    :     -0.229552757      -1.004010941       0.000450079
                        -----------------------------------------
Magnitude (a.u.)       :      1.029918755
Magnitude (Debye)      :      2.617845431

Rotational constants in cm-1:             0.957320             0.596346             0.430351
Rotational constants in MHz :         28699.717522         17877.995480         12901.612448

                             ****ORCA TERMINATED NORMALLY****
TOTAL RUN TIME: 0 days 0 hours 2 minutes 2 seconds 83 msec
