                         Program Version 6.0.0  -   RELEASE  -
|  1> ! Engrad def2-TZVPPD wB97M-D3BJ
|  2> %pal nprocs 8 end%pal nprocs 32 end
|  3> %tddft Nroots 2 Iroot 1
|  4> sf true
|  5> end
|  6> *xyz 0 3
|  7> O   2.93340927 0.4439273 -1.01108504
|  8> O   -0.31416208 1.41349787 -2.34523429
|  9> O   0.17590087 -3.08175297 -0.3345311
| 10> O   -3.08148447 -1.56259146 -0.34546029
| 11> N   0.22541925 -1.50676686 1.18867061
| 12> N   -2.02311823 -0.07431212 1.0481474
| 13> N   1.58473688 -1.31307487 -0.64855429
| 14> N   -1.41041203 -0.23083424 -1.23346234
| 15> C   1.65425219 0.43507892 0.99304947
| 16> C   -0.72046241 1.61156715 -0.01163169
| 17> C   0.39584936 -0.1714031 1.58085145
| 18> C   -0.89350108 0.78853917 1.19401119
| 19> C   2.22645272 1.64084316 1.60129874
| 20> C   -0.56390233 3.0591306 0.08950043
| 21> C   2.11930271 -0.06925308 -0.27855279
| 22> C   -0.77353881 0.98062818 -1.32400175
| 23> C   0.65110269 -2.0278823 0.0366938
| 24> C   -2.22926868 -0.69403568 -0.19646857
| 25> H   0.55093308 -0.04624064 2.70197399
| 26> H   -1.03176846 1.49941757 2.04070354
| 27> H   3.1925708 1.77588737 1.29178766
| 28> H   1.66161189 2.48700373 1.30529296
| 29> H   2.16472172 1.55890934 2.68429579
| 30> H   -1.46342459 3.63536953 -0.22166129
| 31> H   -0.28367659 3.2563069 1.09970119
| 32> H   0.20514653 3.43033194 -0.49544195
| 33> H   -0.54901749 -1.98669028 1.6139969
| 34> H   -2.87998721 -0.00482921 1.60866244
| 35> H   1.88632255 -1.73578774 -1.55299065
| 36> H   -1.28084513 -0.89821466 -2.03176806
| 37> *
| 38>
| 39>                          ****END OF INPUT****

CARTESIAN COORDINATES (ANGSTROEM)
---------------------------------
  O      2.933409    0.443927   -1.011085
  O     -0.314162    1.413498   -2.345234
  O      0.175901   -3.081753   -0.334531
  O     -3.081484   -1.562591   -0.345460
  N      0.225419   -1.506767    1.188671
  N     -2.023118   -0.074312    1.048147
  N      1.584737   -1.313075   -0.648554
  N     -1.410412   -0.230834   -1.233462
  C      1.654252    0.435079    0.993049
  C     -0.720462    1.611567   -0.011632
  C      0.395849   -0.171403    1.580851
  C     -0.893501    0.788539    1.194011
  C      2.226453    1.640843    1.601299
  C     -0.563902    3.059131    0.089500
  C      2.119303   -0.069253   -0.278553
  C     -0.773539    0.980628   -1.324002
  C      0.651103   -2.027882    0.036694
  C     -2.229269   -0.694036   -0.196469
  H      0.550933   -0.046241    2.701974
  H     -1.031768    1.499418    2.040704
  H      3.192571    1.775887    1.291788
  H      1.661612    2.487004    1.305293
  H      2.164722    1.558909    2.684296
  H     -1.463425    3.635370   -0.221661
  H     -0.283677    3.256307    1.099701
  H      0.205147    3.430332   -0.495442
  H     -0.549017   -1.986690    1.613997
  H     -2.879987   -0.004829    1.608662
  H      1.886323   -1.735788   -1.552991
  H     -1.280845   -0.898215   -2.031768

 Total Charge           Charge          ....    0
 Multiplicity           Mult            ....    3
 Number of Electrons    NEL             ....  132
 Basis Dimension        Dim             ....  882

ORBITAL ENERGIES
----------------
                 SPIN UP ORBITALS
  NO   OCC          E(Eh)            E(eV)
   0   1.0000     -19.334470      -526.1177
   1   1.0000     -19.332204      -526.0560
   2   1.0000     -19.324561      -525.8480
   3   1.0000     -19.305069      -525.3176
   4   1.0000     -14.565916      -396.3587
   5   1.0000     -14.564299      -396.3147
   6   1.0000     -14.561074      -396.2270
   7   1.0000     -14.551904      -395.9774
   8   1.0000     -10.511542      -286.0336
   9   1.0000     -10.492409      -285.5130
  10   1.0000     -10.478849      -285.1440
  11   1.0000     -10.477122      -285.0970
  12   1.0000     -10.444007      -284.1959
  13   1.0000     -10.443598      -284.1848
  14   1.0000     -10.416365      -283.4437
  15   1.0000     -10.406361      -283.1715
  16   1.0000     -10.366514      -282.0872
  17   1.0000     -10.366135      -282.0769
  18   1.0000      -1.221985       -33.2519
  19   1.0000      -1.216012       -33.0894
  20   1.0000      -1.198317       -32.6079
  21   1.0000      -1.195056       -32.5191
  22   1.0000      -1.119315       -30.4581
  23   1.0000      -1.097655       -29.8687
  24   1.0000      -1.067652       -29.0523
  25   1.0000      -1.055291       -28.7159
  26   1.0000      -0.984892       -26.8003
  27   1.0000      -0.958360       -26.0783
  28   1.0000      -0.885732       -24.1020
  29   1.0000      -0.843720       -22.9588
  30   1.0000      -0.833230       -22.6733
  31   1.0000      -0.801908       -21.8210
  32   1.0000      -0.785787       -21.3823
  33   1.0000      -0.781000       -21.2521
  34   1.0000      -0.701787       -19.0966
  35   1.0000      -0.697675       -18.9847
  36   1.0000      -0.688090       -18.7239
  37   1.0000      -0.671307       -18.2672
  38   1.0000      -0.664944       -18.0940
  39   1.0000      -0.639385       -17.3986
  40   1.0000      -0.624801       -17.0017
  41   1.0000      -0.602803       -16.4031
  42   1.0000      -0.589552       -16.0425
  43   1.0000      -0.586281       -15.9535
  44   1.0000      -0.579641       -15.7728
  45   1.0000      -0.574818       -15.6416
  46   1.0000      -0.563819       -15.3423
  47   1.0000      -0.558960       -15.2101
  48   1.0000      -0.556256       -15.1365
  49   1.0000      -0.550217       -14.9722
  50   1.0000      -0.546574       -14.8730
  51   1.0000      -0.539497       -14.6805
  52   1.0000      -0.531720       -14.4688
  53   1.0000      -0.527034       -14.3413
  54   1.0000      -0.513282       -13.9671
  55   1.0000      -0.512813       -13.9543
  56   1.0000      -0.495997       -13.4968
  57   1.0000      -0.418420       -11.3858
  58   1.0000      -0.415112       -11.2958
  59   1.0000      -0.408472       -11.1151
  60   1.0000      -0.403825       -10.9886
  61   1.0000      -0.396897       -10.8001
  62   1.0000      -0.392540       -10.6816
  63   1.0000      -0.387144       -10.5347
  64   1.0000      -0.381317       -10.3762
  65   1.0000      -0.337440        -9.1822
  66   1.0000      -0.325890        -8.8679
  67   0.0000       0.006701         0.1823
  68   0.0000       0.029526         0.8034
  69   0.0000       0.031323         0.8524
  70   0.0000       0.038159         1.0384
  71   0.0000       0.052913         1.4398

                 SPIN DOWN ORBITALS
  NO   OCC          E(Eh)            E(eV)
   0   1.0000     -19.330948      -526.0218
   1   1.0000     -19.327788      -525.9358
   2   1.0000     -19.324245      -525.8395
   3   1.0000     -19.304935      -525.3140
   4   1.0000     -14.565555      -396.3489
   5   1.0000     -14.563290      -396.2873
   6   1.0000     -14.560558      -396.2129
   7   1.0000     -14.551604      -395.9693
   8   1.0000     -10.511570      -286.0344
   9   1.0000     -10.492443      -285.5139
  10   1.0000     -10.479818      -285.1703
  11   1.0000     -10.478030      -285.1217
  12   1.0000     -10.443778      -284.1896
  13   1.0000     -10.443029      -284.1693
  14   1.0000     -10.405057      -283.1360
  15   1.0000     -10.394820      -282.8574
  16   1.0000     -10.367084      -282.1027
  17   1.0000     -10.366642      -282.0907
  18   1.0000      -1.219512       -33.1846
  19   1.0000      -1.212842       -33.0031
  20   1.0000      -1.194607       -32.5069
  21   1.0000      -1.191358       -32.4185
  22   1.0000      -1.116538       -30.3825
  23   1.0000      -1.095235       -29.8029
  24   1.0000      -1.065789       -29.0016
  25   1.0000      -1.053550       -28.6686
  26   1.0000      -0.970496       -26.4085
  27   1.0000      -0.942168       -25.6377
  28   1.0000      -0.881687       -23.9919
  29   1.0000      -0.837664       -22.7940
  30   1.0000      -0.824115       -22.4253
  31   1.0000      -0.797087       -21.6898
  32   1.0000      -0.783643       -21.3240
  33   1.0000      -0.779121       -21.2009
  34   1.0000      -0.697228       -18.9725
  35   1.0000      -0.690769       -18.7968
  36   1.0000      -0.682831       -18.5808
  37   1.0000      -0.663922       -18.0662
  38   1.0000      -0.655966       -17.8497
  39   1.0000      -0.634278       -17.2596
  40   1.0000      -0.616163       -16.7666
  41   1.0000      -0.598962       -16.2986
  42   1.0000      -0.581324       -15.8186
  43   1.0000      -0.577982       -15.7277
  44   1.0000      -0.571312       -15.5462
  45   1.0000      -0.566078       -15.4038
  46   1.0000      -0.559288       -15.2190
  47   1.0000      -0.553771       -15.0689
  48   1.0000      -0.549842       -14.9620
  49   1.0000      -0.545021       -14.8308
  50   1.0000      -0.537227       -14.6187
  51   1.0000      -0.533532       -14.5181
  52   1.0000      -0.526934       -14.3386
  53   1.0000      -0.517686       -14.0869
  54   1.0000      -0.508433       -13.8352
  55   1.0000      -0.503823       -13.7097
  56   1.0000      -0.488630       -13.2963
  57   1.0000      -0.414386       -11.2760
  58   1.0000      -0.408770       -11.1232
  59   1.0000      -0.398817       -10.8524
  60   1.0000      -0.394640       -10.7387
  61   1.0000      -0.387774       -10.5519
  62   1.0000      -0.383773       -10.4430
  63   1.0000      -0.381544       -10.3823
  64   1.0000      -0.373196       -10.1552
  65   0.0000      -0.063498        -1.7279
  66   0.0000      -0.042753        -1.1634
  67   0.0000       0.006357         0.1730
  68   0.0000       0.029393         0.7998
  69   0.0000       0.031227         0.8497

----------------------------------------------------------------------------------------------------
          SPIN FLIP ABSORPTION SPECTRUM VIA TRANSITION ELECTRIC DIPOLE MOMENTS
----------------------------------------------------------------------------------------------------
     Transition      Energy     Energy  Wavelength fosc(D2)      D2        DX        DY        DZ
                      (eV)      (cm-1)    (nm)                 (au**2)    (au)      (au)      (au)
----------------------------------------------------------------------------------------------------
  1-3A  ->  2-3A    0.075955     612.6  16323.4   0.000000298   0.00016   0.00269   0.00462  -0.01148

Dispersion correction             ... done (  0.1 sec)

MULLIKEN ATOMIC CHARGES AND SPIN DENSITIES
------------------------------------------
   0 O :   -0.683213   -0.033536
   1 O :   -0.648408    0.018753
   2 O :   -0.674603   -0.002093
   3 O :   -0.637582   -0.000433
   4 N :   -0.275002    0.003621
   5 N :   -0.308822    0.011888
   6 N :   -0.006611   -0.004498
   7 N :   -0.030683    0.006866
   8 C :    0.884043    0.451817
   9 C :    0.849516    0.416425
  10 C :   -0.077998   -0.247965
  11 C :    0.349540   -0.159042
  12 C :   -1.401094   -0.010132
  13 C :   -1.618431    0.020028
  14 C :    0.043008   -0.376622
  15 C :    0.025861   -0.206125
  16 C :    0.465291    0.031558
  17 C :    0.305668    0.013028
  18 H :    0.519686   -0.001596
  19 H :    0.472786    0.006226
  20 H :    0.386823   -0.002959
  21 H :    0.255585    0.029800
  22 H :    0.358956    0.004979
  23 H :    0.332199    0.006359
  24 H :    0.364678    0.004150
  25 H :    0.352308    0.010560
  26 H :    0.093474    0.001976
  27 H :    0.115177   -0.000032
  28 H :    0.081825    0.004034
  29 H :    0.106022    0.002965
Sum of atomic charges       :    0.0000000

LOEWDIN ATOMIC CHARGES AND SPIN DENSITIES
-----------------------------------------
   0 O :    0.103384   -0.029386
   1 O :    0.125626    0.015980
   2 O :    0.083133   -0.001376
   3 O :    0.085616    0.000139
   4 N :    0.263592    0.001446
   5 N :    0.254237    0.002390
   6 N :    0.315968   -0.004522
   7 N :    0.306509    0.002318
   8 C :    0.011332   -0.074661
   9 C :   -0.035022    0.092456
  10 C :   -0.100535   -0.002210
  11 C :   -0.118305    0.005453
  12 C :    0.226960   -0.013585
  13 C :    0.195371    0.014381
  14 C :   -0.415596   -0.019984
  15 C :   -0.443522    0.009649
  16 C :   -0.538912    0.000116
  17 C :   -0.443044    0.000064
  18 H :    0.071869   -0.000611
  19 H :    0.065165   -0.000108
  20 H :   -0.037130   -0.000510
  21 H :   -0.027885   -0.003908
  22 H :    0.016719   -0.001461
  23 H :    0.044807    0.005380
  24 H :   -0.030452    0.000012
  25 H :   -0.028286    0.002486
  26 H :   -0.017841    0.000058
  27 H :   -0.006546    0.000144
  28 H :    0.033937   -0.000319
  29 H :    0.038853    0.000166

  Mayer bond orders larger than 0.100000
B(  0-O , 14-C ) :   1.3211 B(  1-O , 15-C ) :   1.4847 B(  2-O , 16-C ) :   1.5076
B(  3-O , 17-C ) :   1.5780 B(  4-N ,  5-N ) :   0.1179 B(  4-N ,  8-C ) :   0.1600
B(  4-N , 10-C ) :   0.3873 B(  4-N , 11-C ) :  -0.1130 B(  4-N , 16-C ) :   1.0539
B(  4-N , 26-H ) :   1.1012 B(  5-N ,  9-C ) :   0.1588 B(  5-N , 10-C ) :   0.1887
B(  5-N , 11-C ) :   0.2702 B(  5-N , 17-C ) :   1.1313 B(  5-N , 27-H ) :   1.0315
B(  6-N , 10-C ) :   0.1150 B(  6-N , 14-C ) :   0.9886 B(  6-N , 16-C ) :   0.9456
B(  6-N , 28-H ) :   1.0795 B(  7-N ,  9-C ) :  -0.1638 B(  7-N , 11-C ) :   0.1403
B(  7-N , 15-C ) :   0.9883 B(  7-N , 17-C ) :   0.9723 B(  7-N , 29-H ) :   1.0585
B(  8-C ,  9-C ) :   0.2451 B(  8-C , 10-C ) :   0.2650 B(  8-C , 12-C ) :   0.3956
B(  8-C , 14-C ) :   0.5971 B(  8-C , 18-H ) :  -0.1617 B(  8-C , 20-H ) :  -0.1006
B(  9-C , 11-C ) :   0.1447 B(  9-C , 13-C ) :   0.2365 B(  9-C , 15-C ) :   0.4958
B(  9-C , 17-C ) :   0.1089 B(  9-C , 24-H ) :  -0.1257 B(  9-C , 25-H ) :  -0.1276
B( 10-C , 11-C ) :   0.7874 B( 10-C , 14-C ) :   0.1089 B( 10-C , 16-C ) :  -0.1181
B( 10-C , 18-H ) :   0.8531 B( 11-C , 13-C ) :  -0.1318 B( 11-C , 15-C ) :  -0.1357
B( 11-C , 17-C ) :  -0.2683 B( 11-C , 19-H ) :   0.8881 B( 12-C , 20-H ) :   0.9552
B( 12-C , 21-H ) :   0.8204 B( 12-C , 22-H ) :   1.0420 B( 13-C , 23-H ) :   0.8122
B( 13-C , 24-H ) :   0.9829 B( 13-C , 25-H ) :   0.9995 B( 14-C , 15-C ) :   0.1057

Dispersion correction           -0.061073037
FINAL SINGLE POINT ENERGY      -908.774183174359

DIPOLE MOMENT
-------------

Method             : TDA/CIS
Type of density    : Electron Density
Level              : Relaxed density
State              :   1
Multiplicity       :   3
Irrep              :   0
Energy             :     0.0000000000000000 Eh
Relativity type    :
Basis              : AO
                                X                 Y                 Z
Electronic contribution:     -2.350536346     -10.594625309      -6.960600933
Nuclear contribution   :      2.147096425      12.497034452       9.600708424
                        -----------------------------------------
Total Dipole Moment    :     -0.203439921       1.902409143       2.640107491
                        -----------------------------------------
Magnitude (a.u.)       :      3.260477866
Magnitude (Debye)      :      8.287476118

Rotational constants in cm-1:             0.019175             0.016292             0.013119
Rotational constants in MHz :           574.863918           488.425806           393.299464

                             ****ORCA TERMINATED NORMALLY****
TOTAL RUN TIME: 0 days 0 hours 5 minutes 49 seconds 770 msec
