                         Program Version 6.0.0  -   RELEASE  -
|  1> ! Engrad def2-TZVPPD wB97M-D3BJ
|  2> %pal nprocs 8 end%pal nprocs 64 end
|  3> %tddft Nroots 2 Iroot 1
|  4> sf true
|  5> end
|  6> *xyz 0 3
|  7> O   2.55532367 1.17423858 -0.56054181
|  8> O   -0.58178397 0.85651362 -2.31636079
|  9> O   0.73307577 -2.90086339 -1.44370458
| 10> O   -2.57967688 -1.6580382 0.97530411
| 11> N   0.59789284 -2.06442762 0.67727548
| 12> N   -2.00322271 0.51766004 1.48278486
| 13> N   1.73597314 -0.89928768 -0.94043844
| 14> N   -1.61442862 -0.33863296 -0.64511139
| 15> C   1.34712878 0.14218063 1.16840605
| 16> C   -0.86305523 1.8783246 -0.16789583
| 17> C   0.72582739 -1.00381389 1.52868841
| 18> C   -1.32087309 1.65803835 1.1218983
| 19> C   1.6138575 1.26066655 2.13877649
| 20> C   -0.05239218 3.07003255 -0.57836587
| 21> C   1.92130167 0.22706355 -0.16223292
| 22> C   -1.00152654 0.84615398 -1.15648853
| 23> C   0.98345617 -2.01871951 -0.64160314
| 24> C   -2.1163512 -0.58670581 0.63163086
| 25> H   0.34636806 -1.17753212 2.48236397
| 26> H   -1.20720059 2.37064391 1.85536638
| 27> H   1.26273585 2.19982694 1.72995662
| 28> H   1.10142348 1.08754922 3.08231023
| 29> H   2.68702067 1.39194935 2.33088248
| 30> H   -0.4411453 3.55379508 -1.49975412
| 31> H   0.00928345 3.79514716 0.2738115
| 32> H   0.97740169 2.68712717 -0.78825482
| 33> H   0.02068209 -2.85828055 0.89568973
| 34> H   -2.16258428 0.34795886 2.45252661
| 35> H   2.05629594 -0.83999053 -1.88037532
| 36> H   -1.51991196 -1.14035305 -1.20421906
| 37> *
| 38>
| 39>                          ****END OF INPUT****

CARTESIAN COORDINATES (ANGSTROEM)
---------------------------------
  O      2.555324    1.174239   -0.560542
  O     -0.581784    0.856514   -2.316361
  O      0.733076   -2.900863   -1.443705
  O     -2.579677   -1.658038    0.975304
  N      0.597893   -2.064428    0.677275
  N     -2.003223    0.517660    1.482785
  N      1.735973   -0.899288   -0.940438
  N     -1.614429   -0.338633   -0.645111
  C      1.347129    0.142181    1.168406
  C     -0.863055    1.878325   -0.167896
  C      0.725827   -1.003814    1.528688
  C     -1.320873    1.658038    1.121898
  C      1.613857    1.260667    2.138776
  C     -0.052392    3.070033   -0.578366
  C      1.921302    0.227064   -0.162233
  C     -1.001527    0.846154   -1.156489
  C      0.983456   -2.018720   -0.641603
  C     -2.116351   -0.586706    0.631631
  H      0.346368   -1.177532    2.482364
  H     -1.207201    2.370644    1.855366
  H      1.262736    2.199827    1.729957
  H      1.101423    1.087549    3.082310
  H      2.687021    1.391949    2.330882
  H     -0.441145    3.553795   -1.499754
  H      0.009283    3.795147    0.273811
  H      0.977402    2.687127   -0.788255
  H      0.020682   -2.858281    0.895690
  H     -2.162584    0.347959    2.452527
  H      2.056296   -0.839991   -1.880375
  H     -1.519912   -1.140353   -1.204219

 Total Charge           Charge          ....    0
 Multiplicity           Mult            ....    3
 Number of Electrons    NEL             ....  132
 Basis Dimension        Dim             ....  882

ORBITAL ENERGIES
----------------
                 SPIN UP ORBITALS
  NO   OCC          E(Eh)            E(eV)
   0   1.0000     -19.342446      -526.3347
   1   1.0000     -19.325303      -525.8682
   2   1.0000     -19.324560      -525.8480
   3   1.0000     -19.322816      -525.8006
   4   1.0000     -14.595295      -397.1582
   5   1.0000     -14.582316      -396.8050
   6   1.0000     -14.566696      -396.3799
   7   1.0000     -14.552507      -395.9939
   8   1.0000     -10.521379      -286.3013
   9   1.0000     -10.511463      -286.0315
  10   1.0000     -10.477297      -285.1018
  11   1.0000     -10.461763      -284.6790
  12   1.0000     -10.434295      -283.9316
  13   1.0000     -10.415204      -283.4121
  14   1.0000     -10.404032      -283.1081
  15   1.0000     -10.383517      -282.5499
  16   1.0000     -10.368801      -282.1494
  17   1.0000     -10.365311      -282.0545
  18   1.0000      -1.227319       -33.3970
  19   1.0000      -1.222741       -33.2725
  20   1.0000      -1.195857       -32.5409
  21   1.0000      -1.182787       -32.1853
  22   1.0000      -1.126312       -30.6485
  23   1.0000      -1.123490       -30.5717
  24   1.0000      -1.071960       -29.1695
  25   1.0000      -1.059607       -28.8334
  26   1.0000      -0.972944       -26.4751
  27   1.0000      -0.957974       -26.0678
  28   1.0000      -0.855162       -23.2701
  29   1.0000      -0.851233       -23.1632
  30   1.0000      -0.818595       -22.2751
  31   1.0000      -0.812420       -22.1071
  32   1.0000      -0.794869       -21.6295
  33   1.0000      -0.791316       -21.5328
  34   1.0000      -0.699532       -19.0352
  35   1.0000      -0.696455       -18.9515
  36   1.0000      -0.693071       -18.8594
  37   1.0000      -0.690820       -18.7982
  38   1.0000      -0.647705       -17.6250
  39   1.0000      -0.643906       -17.5216
  40   1.0000      -0.636094       -17.3090
  41   1.0000      -0.603831       -16.4311
  42   1.0000      -0.600538       -16.3415
  43   1.0000      -0.597278       -16.2528
  44   1.0000      -0.578554       -15.7433
  45   1.0000      -0.575583       -15.6624
  46   1.0000      -0.563690       -15.3388
  47   1.0000      -0.556236       -15.1359
  48   1.0000      -0.551982       -15.0202
  49   1.0000      -0.546245       -14.8641
  50   1.0000      -0.526792       -14.3347
  51   1.0000      -0.522947       -14.2301
  52   1.0000      -0.520330       -14.1589
  53   1.0000      -0.515528       -14.0282
  54   1.0000      -0.509524       -13.8649
  55   1.0000      -0.501112       -13.6359
  56   1.0000      -0.493479       -13.4283
  57   1.0000      -0.476451       -12.9649
  58   1.0000      -0.428534       -11.6610
  59   1.0000      -0.416318       -11.3286
  60   1.0000      -0.409600       -11.1458
  61   1.0000      -0.400550       -10.8995
  62   1.0000      -0.392665       -10.6850
  63   1.0000      -0.389133       -10.5889
  64   1.0000      -0.384276       -10.4567
  65   1.0000      -0.346118        -9.4183
  66   1.0000      -0.224297        -6.1034
  67   0.0000       0.010165         0.2766
  68   0.0000       0.016513         0.4493
  69   0.0000       0.031658         0.8615
  70   0.0000       0.038686         1.0527
  71   0.0000       0.041521         1.1298

                 SPIN DOWN ORBITALS
  NO   OCC          E(Eh)            E(eV)
   0   1.0000     -19.340836      -526.2909
   1   1.0000     -19.324495      -525.8462
   2   1.0000     -19.322830      -525.8009
   3   1.0000     -19.318439      -525.6815
   4   1.0000     -14.591140      -397.0451
   5   1.0000     -14.582106      -396.7993
   6   1.0000     -14.566707      -396.3803
   7   1.0000     -14.551591      -395.9689
   8   1.0000     -10.521654      -286.3088
   9   1.0000     -10.511474      -286.0318
  10   1.0000     -10.477267      -285.1009
  11   1.0000     -10.461313      -284.6668
  12   1.0000     -10.433948      -283.9222
  13   1.0000     -10.406142      -283.1655
  14   1.0000     -10.393198      -282.8133
  15   1.0000     -10.383615      -282.5525
  16   1.0000     -10.369156      -282.1591
  17   1.0000     -10.365169      -282.0506
  18   1.0000      -1.224981       -33.3334
  19   1.0000      -1.221396       -33.2359
  20   1.0000      -1.195805       -32.5395
  21   1.0000      -1.172504       -31.9055
  22   1.0000      -1.123627       -30.5754
  23   1.0000      -1.115523       -30.3549
  24   1.0000      -1.071854       -29.1666
  25   1.0000      -1.054410       -28.6919
  26   1.0000      -0.960079       -26.1251
  27   1.0000      -0.946683       -25.7606
  28   1.0000      -0.854106       -23.2414
  29   1.0000      -0.838783       -22.8244
  30   1.0000      -0.817333       -22.2408
  31   1.0000      -0.802931       -21.8489
  32   1.0000      -0.794668       -21.6240
  33   1.0000      -0.784635       -21.3510
  34   1.0000      -0.699075       -19.0228
  35   1.0000      -0.692935       -18.8557
  36   1.0000      -0.685275       -18.6473
  37   1.0000      -0.683650       -18.6030
  38   1.0000      -0.646532       -17.5930
  39   1.0000      -0.637452       -17.3460
  40   1.0000      -0.627438       -17.0735
  41   1.0000      -0.599649       -16.3173
  42   1.0000      -0.594998       -16.1907
  43   1.0000      -0.587605       -15.9896
  44   1.0000      -0.570005       -15.5106
  45   1.0000      -0.567861       -15.4523
  46   1.0000      -0.562360       -15.3026
  47   1.0000      -0.555068       -15.1042
  48   1.0000      -0.544452       -14.8153
  49   1.0000      -0.534342       -14.5402
  50   1.0000      -0.522281       -14.2120
  51   1.0000      -0.519340       -14.1320
  52   1.0000      -0.510905       -13.9024
  53   1.0000      -0.508701       -13.8425
  54   1.0000      -0.497805       -13.5460
  55   1.0000      -0.494965       -13.4687
  56   1.0000      -0.475129       -12.9289
  57   1.0000      -0.455009       -12.3814
  58   1.0000      -0.424468       -11.5504
  59   1.0000      -0.416018       -11.3204
  60   1.0000      -0.400260       -10.8916
  61   1.0000      -0.388851       -10.5812
  62   1.0000      -0.383364       -10.4319
  63   1.0000      -0.381434       -10.3794
  64   1.0000      -0.345828        -9.4104
  65   0.0000      -0.106190        -2.8896
  66   0.0000       0.010119         0.2754
  67   0.0000       0.019681         0.5355
  68   0.0000       0.029756         0.8097
  69   0.0000       0.037789         1.0283

----------------------------------------------------------------------------------------------------
          SPIN FLIP ABSORPTION SPECTRUM VIA TRANSITION ELECTRIC DIPOLE MOMENTS
----------------------------------------------------------------------------------------------------
     Transition      Energy     Energy  Wavelength fosc(D2)      D2        DX        DY        DZ
                      (eV)      (cm-1)    (nm)                 (au**2)    (au)      (au)      (au)
----------------------------------------------------------------------------------------------------
  1-3A  ->  2-3A    3.774916   30446.8   328.4   0.000703327   0.00760  -0.00896   0.04490   0.07422

Dispersion correction             ... done (  0.1 sec)

MULLIKEN ATOMIC CHARGES AND SPIN DENSITIES
------------------------------------------
   0 O :   -0.683512   -0.001687
   1 O :   -0.684498    0.034337
   2 O :   -0.651001   -0.000231
   3 O :   -0.635509    0.006433
   4 N :   -0.039255   -0.001074
   5 N :   -0.008043    0.056004
   6 N :    0.072220    0.000566
   7 N :    0.060178    0.003444
   8 C :    1.058649    0.001265
   9 C :    0.728658    0.458269
  10 C :   -0.004127    0.017274
  11 C :   -0.260916   -0.342531
  12 C :   -1.432926   -0.010899
  13 C :   -1.229018   -0.029484
  14 C :    0.078713   -0.017998
  15 C :    0.467634   -0.243547
  16 C :    0.377132    0.001144
  17 C :    0.385333   -0.002981
  18 H :    0.239635    0.000349
  19 H :    0.313575    0.030175
  20 H :    0.216009    0.003741
  21 H :    0.321878    0.002943
  22 H :    0.362143   -0.001002
  23 H :    0.350959   -0.005301
  24 H :    0.274365    0.012523
  25 H :    0.211239    0.025935
  26 H :    0.051709   -0.000334
  27 H :    0.055739    0.000170
  28 H :    0.004502   -0.000088
  29 H :   -0.001466    0.002585
Sum of atomic charges       :   -0.0000000

LOEWDIN ATOMIC CHARGES AND SPIN DENSITIES
-----------------------------------------
   0 O :    0.094439    0.000613
   1 O :    0.074477    0.030710
   2 O :    0.084626   -0.000181
   3 O :    0.078952    0.005691
   4 N :    0.281438   -0.000251
   5 N :    0.299831    0.022126
   6 N :    0.358892    0.000237
   7 N :    0.355697   -0.002041
   8 C :   -0.129521   -0.000358
   9 C :   -0.137530   -0.037726
  10 C :    0.053739   -0.001100
  11 C :    0.079096   -0.022896
  12 C :    0.182243   -0.000815
  13 C :    0.164834   -0.003043
  14 C :   -0.415907    0.000231
  15 C :   -0.386745    0.008804
  16 C :   -0.468759   -0.000113
  17 C :   -0.454374   -0.000164
  18 H :    0.011803   -0.000128
  19 H :   -0.005920   -0.001508
  20 H :   -0.030069   -0.000251
  21 H :   -0.004614    0.000009
  22 H :    0.013383   -0.000085
  23 H :    0.015324   -0.000113
  24 H :    0.012057    0.000268
  25 H :   -0.013810   -0.000128
  26 H :   -0.015512   -0.000001
  27 H :   -0.028143    0.002207
  28 H :   -0.014819    0.000087
  29 H :   -0.055107   -0.000081

  Mayer bond orders larger than 0.100000
B(  0-O , 14-C ) :   1.4625 B(  1-O , 15-C ) :   1.4450 B(  2-O , 16-C ) :   1.5751
B(  3-O , 17-C ) :   1.5826 B(  4-N , 10-C ) :   0.8672 B(  4-N , 16-C ) :   1.0236
B(  4-N , 26-H ) :   1.1192 B(  5-N , 11-C ) :   0.9468 B(  5-N , 17-C ) :   0.9785
B(  5-N , 27-H ) :   1.0960 B(  6-N ,  8-C ) :  -0.1044 B(  6-N , 14-C ) :   1.0422
B(  6-N , 16-C ) :   0.9195 B(  6-N , 28-H ) :   1.1132 B(  7-N , 15-C ) :   0.8913
B(  7-N , 17-C ) :   0.9170 B(  7-N , 29-H ) :   1.1372 B(  8-C , 10-C ) :   0.9625
B(  8-C , 12-C ) :   0.3700 B(  8-C , 14-C ) :   0.6248 B(  8-C , 20-H ) :  -0.1105
B(  8-C , 21-H ) :  -0.1018 B(  9-C , 11-C ) :   1.1849 B(  9-C , 13-C ) :   0.3648
B(  9-C , 15-C ) :   0.7853 B(  9-C , 17-C ) :   0.1068 B(  9-C , 24-H ) :  -0.1117
B( 10-C , 12-C ) :  -0.1847 B( 10-C , 18-H ) :   1.0890 B( 11-C , 17-C ) :  -0.1059
B( 11-C , 19-H ) :   0.9702 B( 12-C , 14-C ) :  -0.1127 B( 12-C , 20-H ) :   1.0086
B( 12-C , 21-H ) :   1.0455 B( 12-C , 22-H ) :   0.8933 B( 13-C , 23-H ) :   0.9251
B( 13-C , 24-H ) :   1.0965 B( 13-C , 25-H ) :   0.9642 B( 15-C , 17-C ) :  -0.1092

Dispersion correction           -0.061500139
FINAL SINGLE POINT ENERGY      -908.907937158351

DIPOLE MOMENT
-------------

Method             : TDA/CIS
Type of density    : Electron Density
Level              : Relaxed density
State              :   1
Multiplicity       :   3
Irrep              :   0
Energy             :     0.0000000000000000 Eh
Relativity type    :
Basis              : AO
                                X                 Y                 Z
Electronic contribution:     -3.200891425      -9.963333233      -5.746853608
Nuclear contribution   :      2.838748439      10.758351784       8.589248461
                        -----------------------------------------
Total Dipole Moment    :     -0.362142986       0.795018551       2.842394853
                        -----------------------------------------
Magnitude (a.u.)       :      2.973619098
Magnitude (Debye)      :      7.558339077

Rotational constants in cm-1:             0.017346             0.016714             0.013528
Rotational constants in MHz :           520.008294           501.075355           405.562014

                             ****ORCA TERMINATED NORMALLY****
TOTAL RUN TIME: 0 days 0 hours 5 minutes 12 seconds 808 msec
