                         Program Version 6.0.0  -   RELEASE  -
|  1> ! Engrad def2-TZVPPD wB97M-D3BJ
|  2> %pal nprocs 8 end%pal nprocs 64 end
|  3> %tddft
|  4>  Iroot 2 Nroots 3
|  5> sf true
|  6> end
|  7> *xyz 0 3
|  8> O   1.26269406 -0.61872992 0.07679784
|  9> C   0.46620579 0.333823 0.56753517
| 10> C   -0.56674573 0.53638307 -0.48035287
| 11> H   0.8766783 1.23147699 1.05167012
| 12> H   -0.01812361 -0.22091012 1.42835695
| 13> H   -1.04990538 1.61832067 -0.84948887
| 14> H   -1.1949849 -0.31511418 -0.76026435
| 15> *
| 16>
| 17>                          ****END OF INPUT****

CARTESIAN COORDINATES (ANGSTROEM)
---------------------------------
  O      1.262694   -0.618730    0.076798
  C      0.466206    0.333823    0.567535
  C     -0.566746    0.536383   -0.480353
  H      0.876678    1.231477    1.051670
  H     -0.018124   -0.220910    1.428357
  H     -1.049905    1.618321   -0.849489
  H     -1.194985   -0.315114   -0.760264

 Total Charge           Charge          ....    0
 Multiplicity           Mult            ....    3
 Number of Electrons    NEL             ....   24
 Basis Dimension        Dim             ....  182

ORBITAL ENERGIES
----------------
                 SPIN UP ORBITALS
  NO   OCC          E(Eh)            E(eV)
   0   1.0000     -19.387017      -527.5475
   1   1.0000     -10.419654      -283.5332
   2   1.0000     -10.383655      -282.5536
   3   1.0000      -1.186110       -32.2757
   4   1.0000      -0.865749       -23.5582
   5   1.0000      -0.731615       -19.9083
   6   1.0000      -0.618562       -16.8319
   7   1.0000      -0.595081       -16.1930
   8   1.0000      -0.552566       -15.0361
   9   1.0000      -0.498418       -13.5626
  10   1.0000      -0.428134       -11.6501
  11   1.0000      -0.414675       -11.2839
  12   1.0000      -0.325201        -8.8492
  13   0.0000       0.040060         1.0901
  14   0.0000       0.059879         1.6294
  15   0.0000       0.075795         2.0625
  16   0.0000       0.086926         2.3654
  17   0.0000       0.110135         2.9969

                 SPIN DOWN ORBITALS
  NO   OCC          E(Eh)            E(eV)
   0   1.0000     -19.363331      -526.9030
   1   1.0000     -10.420906      -283.5673
   2   1.0000     -10.369436      -282.1667
   3   1.0000      -1.134956       -30.8837
   4   1.0000      -0.831730       -22.6325
   5   1.0000      -0.703693       -19.1485
   6   1.0000      -0.584284       -15.8992
   7   1.0000      -0.555076       -15.1044
   8   1.0000      -0.528755       -14.3882
   9   1.0000      -0.472148       -12.8478
  10   1.0000      -0.383635       -10.4392
  11   0.0000      -0.053417        -1.4535
  12   0.0000       0.000361         0.0098
  13   0.0000       0.040158         1.0927
  14   0.0000       0.060687         1.6514
  15   0.0000       0.075972         2.0673

----------------------------------------------------------------------------------------------------
          SPIN FLIP ABSORPTION SPECTRUM VIA TRANSITION ELECTRIC DIPOLE MOMENTS
----------------------------------------------------------------------------------------------------
     Transition      Energy     Energy  Wavelength fosc(D2)      D2        DX        DY        DZ
                      (eV)      (cm-1)    (nm)                 (au**2)    (au)      (au)      (au)
----------------------------------------------------------------------------------------------------
  1-3A  ->  2-3A    0.283733    2288.5  4369.7   0.000333614   0.04799   0.11760  -0.16707   0.07906
  1-3A  ->  3-3A    1.019255    8220.8  1216.4   0.001692470   0.06778   0.11319  -0.08631  -0.21798

Dispersion correction             ... done (  0.1 sec)

MULLIKEN ATOMIC CHARGES AND SPIN DENSITIES
------------------------------------------
   0 O :   -0.354612    0.609359
   1 C :   -0.041663    0.020301
   2 C :   -0.287332   -0.583673
   3 H :    0.232465   -0.002089
   4 H :    0.150914    0.062835
   5 H :    0.179341   -0.027670
   6 H :    0.120886   -0.079064
Sum of atomic charges       :    0.0000000

LOEWDIN ATOMIC CHARGES AND SPIN DENSITIES
-----------------------------------------
   0 O :    0.046548    0.561697
   1 C :   -0.310871    0.015073
   2 C :    0.222001   -0.525234
   3 H :    0.028717    0.007407
   4 H :    0.064260    0.048984
   5 H :    0.024608   -0.045887
   6 H :   -0.075263   -0.062040

  Mayer bond orders larger than 0.100000
B(  0-O ,  1-C ) :   0.9145 B(  0-O ,  2-C ) :   0.1044 B(  0-O ,  4-H ) :   0.1001
B(  1-C ,  2-C ) :   0.8687 B(  1-C ,  3-H ) :   0.9457 B(  1-C ,  4-H ) :   0.9130
B(  2-C ,  5-H ) :   0.9900 B(  2-C ,  6-H ) :   1.0476

Dispersion correction           -0.005474492
FINAL SINGLE POINT ENERGY      -153.729722663030

DIPOLE MOMENT
-------------

Method             : TDA/CIS
Type of density    : Electron Density
Level              : Relaxed density
State              :   2
Multiplicity       :   3
Irrep              :   0
Energy             :     0.0000000000000000 Eh
Relativity type    :
Basis              : AO
                                X                 Y                 Z
Electronic contribution:      2.277101538      -1.458096450      -0.048857126
Nuclear contribution   :     -2.786866880       1.914823445       0.547949633
                        -----------------------------------------
Total Dipole Moment    :     -0.509765343       0.456726994       0.499092508
                        -----------------------------------------
Magnitude (a.u.)       :      0.847085346
Magnitude (Debye)      :      2.153119838

Rotational constants in cm-1:             1.300204             0.384012             0.325691
Rotational constants in MHz :         38979.148281         11512.378971          9763.972995

                             ****ORCA TERMINATED NORMALLY****
TOTAL RUN TIME: 0 days 0 hours 0 minutes 26 seconds 368 msec
