                         Program Version 6.0.0  -   RELEASE  -
|  1> ! Engrad def2-TZVPPD wB97M-D3BJ
|  2> %pal nprocs 8 end%pal nprocs 64 end
|  3> %tddft Nroots 2 Iroot 1
|  4> sf true
|  5> end
|  6> *xyz 0 3
|  7> O   2.95988846 1.25031012 -0.50119131
|  8> O   -0.79952605 0.2140543 -2.05922892
|  9> O   1.30914512 -2.72585584 -1.75006661
| 10> O   -3.13651243 -1.23612876 1.58684772
| 11> N   0.59085376 -1.83672998 0.25398105
| 12> N   -2.27036141 0.83676621 1.57142964
| 13> N   2.20329105 -0.78048257 -0.9833065
| 14> N   -2.07705203 -0.45400576 -0.30496491
| 15> C   1.62314303 0.20637999 1.14160586
| 16> C   -0.89518768 1.6373817 -0.1717179
| 17> C   0.70943483 -0.90423261 1.2118761
| 18> C   -1.35545884 1.7811354 1.16867643
| 19> C   1.82808606 1.21828487 2.16446591
| 20> C   0.01398718 2.66875305 -0.70464528
| 21> C   2.26136298 0.298369 -0.14746569
| 22> C   -1.14760953 0.45636244 -0.90493003
| 23> C   1.41581473 -1.87121083 -0.86164963
| 24> C   -2.53047067 -0.3906716 0.96861496
| 25> H   0.20343067 -1.14874938 2.14868412
| 26> H   -1.19898152 2.6176471 1.89699118
| 27> H   1.97593154 2.23739215 1.76932036
| 28> H   1.04020488 1.23701005 2.92029248
| 29> H   2.75563187 1.06985199 2.78604081
| 30> H   0.26993395 2.49428841 -1.73626535
| 31> H   -0.22155509 3.77051078 -0.45189235
| 32> H   0.98892374 2.62090102 -0.18698584
| 33> H   -0.01058268 -2.68141989 0.25954069
| 34> H   -2.57160883 0.98359718 2.49889237
| 35> H   2.80400413 -0.83774807 -1.76564552
| 36> H   -2.30651266 -1.28131515 -0.86656502
| 37> *
| 38>
| 39>                          ****END OF INPUT****

CARTESIAN COORDINATES (ANGSTROEM)
---------------------------------
  O      2.959888    1.250310   -0.501191
  O     -0.799526    0.214054   -2.059229
  O      1.309145   -2.725856   -1.750067
  O     -3.136512   -1.236129    1.586848
  N      0.590854   -1.836730    0.253981
  N     -2.270361    0.836766    1.571430
  N      2.203291   -0.780483   -0.983306
  N     -2.077052   -0.454006   -0.304965
  C      1.623143    0.206380    1.141606
  C     -0.895188    1.637382   -0.171718
  C      0.709435   -0.904233    1.211876
  C     -1.355459    1.781135    1.168676
  C      1.828086    1.218285    2.164466
  C      0.013987    2.668753   -0.704645
  C      2.261363    0.298369   -0.147466
  C     -1.147610    0.456362   -0.904930
  C      1.415815   -1.871211   -0.861650
  C     -2.530471   -0.390672    0.968615
  H      0.203431   -1.148749    2.148684
  H     -1.198982    2.617647    1.896991
  H      1.975932    2.237392    1.769320
  H      1.040205    1.237010    2.920292
  H      2.755632    1.069852    2.786041
  H      0.269934    2.494288   -1.736265
  H     -0.221555    3.770511   -0.451892
  H      0.988924    2.620901   -0.186986
  H     -0.010583   -2.681420    0.259541
  H     -2.571609    0.983597    2.498892
  H      2.804004   -0.837748   -1.765646
  H     -2.306513   -1.281315   -0.866565

 Total Charge           Charge          ....    0
 Multiplicity           Mult            ....    3
 Number of Electrons    NEL             ....  132
 Basis Dimension        Dim             ....  882

ORBITAL ENERGIES
----------------
                 SPIN UP ORBITALS
  NO   OCC          E(Eh)            E(eV)
   0   1.0000     -19.334416      -526.1162
   1   1.0000     -19.331008      -526.0235
   2   1.0000     -19.320323      -525.7327
   3   1.0000     -19.313975      -525.5600
   4   1.0000     -14.594086      -397.1253
   5   1.0000     -14.582985      -396.8232
   6   1.0000     -14.568557      -396.4306
   7   1.0000     -14.561455      -396.2373
   8   1.0000     -10.514045      -286.1017
   9   1.0000     -10.509039      -285.9655
  10   1.0000     -10.474538      -285.0267
  11   1.0000     -10.467939      -284.8471
  12   1.0000     -10.452674      -284.4317
  13   1.0000     -10.416455      -283.4461
  14   1.0000     -10.410203      -283.2760
  15   1.0000     -10.395784      -282.8837
  16   1.0000     -10.368652      -282.1454
  17   1.0000     -10.364334      -282.0279
  18   1.0000      -1.228919       -33.4406
  19   1.0000      -1.220672       -33.2162
  20   1.0000      -1.191964       -32.4350
  21   1.0000      -1.179799       -32.1040
  22   1.0000      -1.123146       -30.5624
  23   1.0000      -1.121194       -30.5093
  24   1.0000      -1.076092       -29.2820
  25   1.0000      -1.065855       -29.0034
  26   1.0000      -0.968682       -26.3592
  27   1.0000      -0.953487       -25.9457
  28   1.0000      -0.857079       -23.3223
  29   1.0000      -0.847399       -23.0589
  30   1.0000      -0.820797       -22.3350
  31   1.0000      -0.818574       -22.2745
  32   1.0000      -0.793243       -21.5852
  33   1.0000      -0.789636       -21.4871
  34   1.0000      -0.708589       -19.2817
  35   1.0000      -0.700220       -19.0540
  36   1.0000      -0.688935       -18.7469
  37   1.0000      -0.683371       -18.5955
  38   1.0000      -0.647773       -17.6268
  39   1.0000      -0.637902       -17.3582
  40   1.0000      -0.632149       -17.2017
  41   1.0000      -0.609329       -16.5807
  42   1.0000      -0.597891       -16.2694
  43   1.0000      -0.588383       -16.0107
  44   1.0000      -0.572154       -15.5691
  45   1.0000      -0.566128       -15.4051
  46   1.0000      -0.560358       -15.2481
  47   1.0000      -0.558813       -15.2061
  48   1.0000      -0.547267       -14.8919
  49   1.0000      -0.544443       -14.8151
  50   1.0000      -0.539744       -14.6872
  51   1.0000      -0.529083       -14.3971
  52   1.0000      -0.519216       -14.1286
  53   1.0000      -0.513085       -13.9618
  54   1.0000      -0.502550       -13.6751
  55   1.0000      -0.496854       -13.5201
  56   1.0000      -0.482862       -13.1393
  57   1.0000      -0.474884       -12.9223
  58   1.0000      -0.426848       -11.6151
  59   1.0000      -0.411333       -11.1930
  60   1.0000      -0.409622       -11.1464
  61   1.0000      -0.397835       -10.8256
  62   1.0000      -0.392673       -10.6852
  63   1.0000      -0.383607       -10.4385
  64   1.0000      -0.374290       -10.1849
  65   1.0000      -0.333393        -9.0721
  66   1.0000      -0.233799        -6.3620
  67   0.0000       0.004657         0.1267
  68   0.0000       0.012957         0.3526
  69   0.0000       0.027389         0.7453
  70   0.0000       0.036242         0.9862
  71   0.0000       0.040741         1.1086

                 SPIN DOWN ORBITALS
  NO   OCC          E(Eh)            E(eV)
   0   1.0000     -19.332788      -526.0719
   1   1.0000     -19.323531      -525.8200
   2   1.0000     -19.320315      -525.7325
   3   1.0000     -19.313729      -525.5533
   4   1.0000     -14.594025      -397.1236
   5   1.0000     -14.578398      -396.6984
   6   1.0000     -14.568571      -396.4310
   7   1.0000     -14.560654      -396.2155
   8   1.0000     -10.514288      -286.1083
   9   1.0000     -10.509030      -285.9653
  10   1.0000     -10.474592      -285.0281
  11   1.0000     -10.467742      -284.8418
  12   1.0000     -10.452515      -284.4274
  13   1.0000     -10.407684      -283.2075
  14   1.0000     -10.399464      -282.9838
  15   1.0000     -10.395455      -282.8747
  16   1.0000     -10.368552      -282.1426
  17   1.0000     -10.364633      -282.0360
  18   1.0000      -1.225122       -33.3373
  19   1.0000      -1.220513       -33.2118
  20   1.0000      -1.181255       -32.1436
  21   1.0000      -1.179531       -32.0967
  22   1.0000      -1.121675       -30.5223
  23   1.0000      -1.112562       -30.2744
  24   1.0000      -1.075934       -29.2776
  25   1.0000      -1.060076       -28.8461
  26   1.0000      -0.956127       -26.0175
  27   1.0000      -0.943901       -25.6848
  28   1.0000      -0.856726       -23.3127
  29   1.0000      -0.835876       -22.7453
  30   1.0000      -0.820225       -22.3195
  31   1.0000      -0.807940       -21.9852
  32   1.0000      -0.793072       -21.5806
  33   1.0000      -0.781604       -21.2685
  34   1.0000      -0.708325       -19.2745
  35   1.0000      -0.692742       -18.8505
  36   1.0000      -0.688568       -18.7369
  37   1.0000      -0.673103       -18.3161
  38   1.0000      -0.646599       -17.5949
  39   1.0000      -0.629426       -17.1276
  40   1.0000      -0.625901       -17.0316
  41   1.0000      -0.599529       -16.3140
  42   1.0000      -0.589995       -16.0546
  43   1.0000      -0.587276       -15.9806
  44   1.0000      -0.565660       -15.3924
  45   1.0000      -0.561185       -15.2706
  46   1.0000      -0.555419       -15.1137
  47   1.0000      -0.550181       -14.9712
  48   1.0000      -0.545504       -14.8439
  49   1.0000      -0.539864       -14.6904
  50   1.0000      -0.523437       -14.2434
  51   1.0000      -0.519545       -14.1375
  52   1.0000      -0.517081       -14.0705
  53   1.0000      -0.498089       -13.5537
  54   1.0000      -0.495510       -13.4835
  55   1.0000      -0.489065       -13.3081
  56   1.0000      -0.472536       -12.8584
  57   1.0000      -0.446942       -12.1619
  58   1.0000      -0.420715       -11.4482
  59   1.0000      -0.409683       -11.1480
  60   1.0000      -0.395406       -10.7596
  61   1.0000      -0.387831       -10.5534
  62   1.0000      -0.385432       -10.4881
  63   1.0000      -0.380926       -10.3655
  64   1.0000      -0.336167        -9.1476
  65   0.0000      -0.093606        -2.5471
  66   0.0000       0.005847         0.1591
  67   0.0000       0.013010         0.3540
  68   0.0000       0.026619         0.7243
  69   0.0000       0.033604         0.9144

----------------------------------------------------------------------------------------------------
          SPIN FLIP ABSORPTION SPECTRUM VIA TRANSITION ELECTRIC DIPOLE MOMENTS
----------------------------------------------------------------------------------------------------
     Transition      Energy     Energy  Wavelength fosc(D2)      D2        DX        DY        DZ
                      (eV)      (cm-1)    (nm)                 (au**2)    (au)      (au)      (au)
----------------------------------------------------------------------------------------------------
  1-3A  ->  2-3A    3.081233   24851.8   402.4   0.000438451   0.00581   0.00983   0.04448   0.06110

Dispersion correction             ... done (  0.1 sec)

MULLIKEN ATOMIC CHARGES AND SPIN DENSITIES
------------------------------------------
   0 O :   -0.724266    0.000597
   1 O :   -0.711396    0.030523
   2 O :   -0.693658   -0.000051
   3 O :   -0.656018    0.008113
   4 N :   -0.009351    0.002483
   5 N :    0.003739    0.041175
   6 N :    0.068442    0.000413
   7 N :   -0.008301    0.000606
   8 C :    0.662279   -0.008333
   9 C :    1.053285    0.437748
  10 C :   -0.264054   -0.012609
  11 C :   -0.166032   -0.285281
  12 C :   -1.305298   -0.001274
  13 C :   -1.375666   -0.028086
  14 C :    0.541104    0.014633
  15 C :    0.216389   -0.259568
  16 C :    0.420472    0.001391
  17 C :    0.510070    0.014031
  18 H :    0.257256   -0.003334
  19 H :    0.229810    0.018455
  20 H :    0.253216    0.001672
  21 H :    0.318444    0.004320
  22 H :    0.343543   -0.001154
  23 H :    0.286218   -0.007082
  24 H :    0.362685    0.010901
  25 H :    0.156840    0.017150
  26 H :    0.125339   -0.000136
  27 H :    0.018518    0.000604
  28 H :    0.011815   -0.000497
  29 H :    0.074576    0.002591
Sum of atomic charges       :   -0.0000000

LOEWDIN ATOMIC CHARGES AND SPIN DENSITIES
-----------------------------------------
   0 O :    0.059918    0.000693
   1 O :    0.069883    0.025540
   2 O :    0.063755    0.000012
   3 O :    0.080747    0.006805
   4 N :    0.257701    0.000059
   5 N :    0.276240    0.017680
   6 N :    0.354969   -0.000122
   7 N :    0.325169   -0.002078
   8 C :   -0.130324    0.000847
   9 C :   -0.145138   -0.035455
  10 C :    0.066434   -0.000237
  11 C :    0.103429   -0.020732
  12 C :    0.135980    0.000015
  13 C :    0.156861   -0.002332
  14 C :   -0.412221    0.000018
  15 C :   -0.410684    0.007040
  16 C :   -0.448887   -0.000077
  17 C :   -0.501568    0.000419
  18 H :    0.043784   -0.000004
  19 H :    0.066051   -0.000672
  20 H :    0.001334    0.000038
  21 H :   -0.011681   -0.000141
  22 H :    0.027573    0.000186
  23 H :   -0.010311    0.000163
  24 H :    0.044178    0.000248
  25 H :   -0.037347    0.000253
  26 H :    0.024965    0.000005
  27 H :   -0.048951    0.001846
  28 H :   -0.015175   -0.000001
  29 H :    0.013318   -0.000016

  Mayer bond orders larger than 0.100000
B(  0-O , 14-C ) :   1.3531 B(  1-O , 15-C ) :   1.3633 B(  2-O , 16-C ) :   1.5185
B(  3-O , 17-C ) :   1.5268 B(  4-N , 10-C ) :   1.0551 B(  4-N , 16-C ) :   1.0130
B(  4-N , 26-H ) :   1.0596 B(  5-N , 11-C ) :   0.9684 B(  5-N , 17-C ) :   0.9756
B(  5-N , 27-H ) :   1.1242 B(  6-N , 14-C ) :   1.0571 B(  6-N , 16-C ) :   1.0217
B(  6-N , 28-H ) :   1.1128 B(  7-N , 15-C ) :   0.8908 B(  7-N , 17-C ) :   1.0219
B(  7-N , 29-H ) :   1.0851 B(  8-C , 10-C ) :   1.3418 B(  8-C , 12-C ) :   0.2477
B(  8-C , 14-C ) :   0.6681 B(  8-C , 20-H ) :  -0.1029 B(  9-C , 11-C ) :   1.0345
B(  9-C , 13-C ) :   0.3291 B(  9-C , 15-C ) :   0.8674 B(  9-C , 24-H ) :  -0.1088
B(  9-C , 25-H ) :  -0.1145 B( 10-C , 18-H ) :   0.9928 B( 11-C , 15-C ) :   0.1018
B( 11-C , 19-H ) :   0.9576 B( 12-C , 20-H ) :   0.9968 B( 12-C , 21-H ) :   0.9403
B( 12-C , 22-H ) :   0.9065 B( 13-C , 23-H ) :   1.0393 B( 13-C , 24-H ) :   0.9837
B( 13-C , 25-H ) :   0.9201

Dispersion correction           -0.058172356
FINAL SINGLE POINT ENERGY      -908.861911121113

DIPOLE MOMENT
-------------

Method             : TDA/CIS
Type of density    : Electron Density
Level              : Relaxed density
State              :   1
Multiplicity       :   3
Irrep              :   0
Energy             :     0.0000000000000000 Eh
Relativity type    :
Basis              : AO
                                X                 Y                 Z
Electronic contribution:     -3.585835783      -9.417954199      -5.218060995
Nuclear contribution   :      3.025859935      10.294730729       7.775507769
                        -----------------------------------------
Total Dipole Moment    :     -0.559975848       0.876776530       2.557446773
                        -----------------------------------------
Magnitude (a.u.)       :      2.760949843
Magnitude (Debye)      :      7.017776788

Rotational constants in cm-1:             0.019517             0.013687             0.011506
Rotational constants in MHz :           585.098383           410.311768           344.936687

                             ****ORCA TERMINATED NORMALLY****
TOTAL RUN TIME: 0 days 0 hours 4 minutes 47 seconds 900 msec
