                         Program Version 6.0.0  -   RELEASE  -
|  1> ! EnGrad wB97M-D3BJ def2-TZVPPD
|  2> %pal nprocs 8 end%pal nprocs 16 end
|  3> %tddft
|  4>  sf true
|  5>  nroots 2 Iroot 1 end
|  6> *xyz 0 3
|  7> O   0.01519347444086 0.7917120511696 -4.525939526e-05
|  8> C   0.72234457112137 -0.42888256605938 0.00013194469445
|  9> C   -0.72906062893715 -0.45408873086981 -0.00013618799828
| 10> H   1.25811799732302 -0.65473855300918 0.91475156191364
| 11> H   1.25787426716632 -0.65488680840908 -0.91462672608317
| 12> H   -1.26127000344743 -0.65877426194116 -0.91892920407423
| 13> H   -1.26099967766698 -0.658741130881 0.91885387094285
| 14> *
| 15>
| 16>                          ****END OF INPUT****

CARTESIAN COORDINATES (ANGSTROEM)
---------------------------------
  O      0.015193    0.791712   -0.000045
  C      0.722345   -0.428883    0.000132
  C     -0.729061   -0.454089   -0.000136
  H      1.258118   -0.654739    0.914752
  H      1.257874   -0.654887   -0.914627
  H     -1.261270   -0.658774   -0.918929
  H     -1.261000   -0.658741    0.918854

 Total Charge           Charge          ....    0
 Multiplicity           Mult            ....    3
 Number of Electrons    NEL             ....   24
 Basis Dimension        Dim             ....  182

ORBITAL ENERGIES
----------------
                 SPIN UP ORBITALS
  NO   OCC          E(Eh)            E(eV)
   0   1.0000     -19.509571      -530.8824
   1   1.0000     -10.442719      -284.1608
   2   1.0000     -10.418286      -283.4960
   3   1.0000      -1.335462       -36.3398
   4   1.0000      -0.881145       -23.9772
   5   1.0000      -0.811062       -22.0701
   6   1.0000      -0.716390       -19.4940
   7   1.0000      -0.678560       -18.4645
   8   1.0000      -0.602240       -16.3878
   9   1.0000      -0.532413       -14.4877
  10   1.0000      -0.523590       -14.2476
  11   1.0000      -0.489585       -13.3223
  12   1.0000      -0.120365        -3.2753
  13   0.0000       0.031032         0.8444
  14   0.0000       0.054203         1.4749
  15   0.0000       0.066386         1.8065
  16   0.0000       0.085296         2.3210
  17   0.0000       0.098519         2.6808

                 SPIN DOWN ORBITALS
  NO   OCC          E(Eh)            E(eV)
   0   1.0000     -19.478035      -530.0243
   1   1.0000     -10.442120      -284.1445
   2   1.0000     -10.414301      -283.3875
   3   1.0000      -1.271115       -34.5888
   4   1.0000      -0.849658       -23.1204
   5   1.0000      -0.795399       -21.6439
   6   1.0000      -0.656498       -17.8642
   7   1.0000      -0.648833       -17.6556
   8   1.0000      -0.569586       -15.4992
   9   1.0000      -0.511644       -13.9225
  10   1.0000      -0.470709       -12.8086
  11   0.0000      -0.146108        -3.9758
  12   0.0000       0.034111         0.9282
  13   0.0000       0.053181         1.4471
  14   0.0000       0.064754         1.7620
  15   0.0000       0.074125         2.0170

----------------------------------------------------------------------------------------------------
          SPIN FLIP ABSORPTION SPECTRUM VIA TRANSITION ELECTRIC DIPOLE MOMENTS
----------------------------------------------------------------------------------------------------
     Transition      Energy     Energy  Wavelength fosc(D2)      D2        DX        DY        DZ
                      (eV)      (cm-1)    (nm)                 (au**2)    (au)      (au)      (au)
----------------------------------------------------------------------------------------------------
  1-3A  ->  2-3A    6.927802   55876.5   179.0   0.004691021   0.02764   0.00000   0.00003   0.16625

Dispersion correction             ... done (  0.0 sec)

MULLIKEN ATOMIC CHARGES AND SPIN DENSITIES
------------------------------------------
   0 O :   -0.333132    0.068223
   1 C :   -0.080058   -0.077245
   2 C :   -0.330119   -0.143170
   3 H :    0.169424    0.010077
   4 H :    0.169222    0.010179
   5 H :    0.202305    0.065999
   6 H :    0.202358    0.065937
Sum of atomic charges       :   -0.0000000

LOEWDIN ATOMIC CHARGES AND SPIN DENSITIES
-----------------------------------------
   0 O :   -0.120185    0.096904
   1 C :   -0.017885   -0.025028
   2 C :    0.043588   -0.031847
   3 H :    0.022507   -0.007729
   4 H :    0.022501   -0.007738
   5 H :    0.024737   -0.012279
   6 H :    0.024737   -0.012284

  Mayer bond orders larger than 0.100000
B(  0-O ,  1-C ) :   1.0237 B(  0-O ,  2-C ) :   1.0734 B(  1-C ,  2-C ) :   0.7275
B(  1-C ,  3-H ) :   1.0263 B(  1-C ,  4-H ) :   1.0265 B(  2-C ,  5-H ) :   1.0774
B(  2-C ,  6-H ) :   1.0775

Dispersion correction           -0.005229436
FINAL SINGLE POINT ENERGY      -153.877982767033

DIPOLE MOMENT
-------------

Method             : TDA/CIS
Type of density    : Electron Density
Level              : Relaxed density
State              :   1
Multiplicity       :   3
Irrep              :   0
Energy             :     0.0000000000000000 Eh
Relativity type    :
Basis              : AO
                                X                 Y                 Z
Electronic contribution:     -0.049533860       0.335932779      -0.000020808
Nuclear contribution   :     -0.019013406      -2.402817707       0.000107791
                        -----------------------------------------
Total Dipole Moment    :     -0.068547266      -2.066884928       0.000086983
                        -----------------------------------------
Magnitude (a.u.)       :      2.068021286
Magnitude (Debye)      :      5.256492369

Rotational constants in cm-1:             0.853359             0.748551             0.474904
Rotational constants in MHz :         25583.054479         22441.001545         14237.260745

                             ****ORCA TERMINATED NORMALLY****
TOTAL RUN TIME: 0 days 0 hours 0 minutes 22 seconds 612 msec
