                         Program Version 6.0.0  -   RELEASE  -
|  1> ! Opt wB97M-D3BJ def2-TZVPPD
|  2> %pal nprocs 8 end %pal nprocs 64 end
|  3> %geom
|  4> Constraints
|  5>     {A 2 1 0 73.72881355932203 C }
|  6> end
|  7> MaxIter 200
|  8> end
|  9> *xyz 0 1
| 10> O   0.3482631807792597 0.9692363525791582 0.0
| 11> C   0.7509 -0.4065 0.0
| 12> C   -0.7502 -0.4076 0.0
| 13> H   1.2625 -0.6786 0.9136
| 14> H   1.2625 -0.6787 -0.9136
| 15> H   -1.2614 -0.6806 -0.9136
| 16> H   -1.2614 -0.6805 0.9136
| 17> *
| 18>
| 19>                          ****END OF INPUT****
 Total Charge           Charge          ....    0
 Multiplicity           Mult            ....    1
 Number of Electrons    NEL             ....   24
Dispersion correction           -0.005234530
FINAL SINGLE POINT ENERGY      -153.850180502884
Dispersion correction             ... done (  0.1 sec)
Dispersion correction           -0.005237548
FINAL SINGLE POINT ENERGY      -153.863291048246
Dispersion correction             ... done (  0.1 sec)
Dispersion correction           -0.005257935
FINAL SINGLE POINT ENERGY      -153.866978393562
Dispersion correction             ... done (  0.1 sec)
FINAL SINGLE POINT ENERGY      -153.867487626561
FINAL SINGLE POINT ENERGY      -153.867637656535
Dispersion correction             ... done (  0.1 sec)
Dispersion correction           -0.005247455
FINAL SINGLE POINT ENERGY      -153.867656896589
Dispersion correction             ... done (  0.1 sec)
Dispersion correction           -0.005248694
FINAL SINGLE POINT ENERGY      -153.867664208741
Dispersion correction             ... done (  0.1 sec)
                    ***********************HURRAY********************

CARTESIAN COORDINATES (ANGSTROEM)
---------------------------------
  O      0.233493    0.883439   -0.000146
  C      0.726374   -0.384290    0.000030
  C     -0.686374   -0.507254   -0.000136
  H      1.266133   -0.684864    0.899354
  H      1.266178   -0.685052   -0.899231
  H     -1.227573   -0.593064   -0.927099
  H     -1.227067   -0.592178    0.927227

 Multiplicity           Mult            ....    1
 Number of Electrons    NEL             ....   24
 Basis Dimension        Dim             ....  182

ORBITAL ENERGIES
----------------

  NO   OCC          E(Eh)            E(eV)
   0   2.0000     -19.346792      -526.4530
   1   2.0000     -10.409967      -283.2696
   2   2.0000     -10.396606      -282.9060
   3   2.0000      -1.176529       -32.0150
   4   2.0000      -0.835385       -22.7320
   5   2.0000      -0.742790       -20.2123
   6   2.0000      -0.628408       -17.0999
   7   2.0000      -0.589886       -16.0516
   8   2.0000      -0.500903       -13.6303
   9   2.0000      -0.495841       -13.4925
  10   2.0000      -0.416790       -11.3414
  11   2.0000      -0.377008       -10.2589
  12   0.0000       0.038529         1.0484
  13   0.0000       0.054844         1.4924
  14   0.0000       0.062744         1.7073
  15   0.0000       0.077079         2.0974
  16   0.0000       0.107489         2.9249

MULLIKEN ATOMIC CHARGES
-----------------------
   0 O :   -0.417542
   1 C :   -0.109030
   2 C :   -0.265101
   3 H :    0.199787
   4 H :    0.199776
   5 H :    0.196016
   6 H :    0.196094
Sum of atomic charges:   -0.0000000

LOEWDIN ATOMIC CHARGES
----------------------
   0 O :   -0.027306
   1 C :   -0.208782
   2 C :    0.188673
   3 H :    0.023321
   4 H :    0.023326
   5 H :    0.000389
   6 H :    0.000379

  Mayer bond orders larger than 0.100000
B(  0-O ,  1-C ) :   0.7210 B(  0-O ,  2-C ) :   0.9074 B(  1-C ,  2-C ) :   0.7941
B(  1-C ,  3-H ) :   1.0466 B(  1-C ,  4-H ) :   1.0465 B(  2-C ,  5-H ) :   0.9828
B(  2-C ,  6-H ) :   0.9828

Dispersion correction           -0.005249077
FINAL SINGLE POINT ENERGY      -153.867664762319

DIPOLE MOMENT
-------------

Method             : SCF
Type of density    : Electron Density
Multiplicity       :   1
Irrep              :   0
Energy             :  -153.8624156851809346 Eh
Relativity type    :
Basis              : AO
                                X                 Y                 Z
Electronic contribution:      0.088185946       1.536230661      -0.000457288
Nuclear contribution   :     -0.290941445      -2.456835717       0.000520519
                        -----------------------------------------
Total Dipole Moment    :     -0.202755499      -0.920605057       0.000063231
                        -----------------------------------------
Magnitude (a.u.)       :      0.942668270
Magnitude (Debye)      :      2.396072323

Rotational constants in cm-1:             0.913701             0.648785             0.447076
Rotational constants in MHz :         27392.058324         19450.099682         13403.007920

                             ****ORCA TERMINATED NORMALLY****
TOTAL RUN TIME: 0 days 0 hours 1 minutes 42 seconds 887 msec
