                         Program Version 6.0.0  -   RELEASE  -
|  1> ! Engrad def2-TZVPPD wB97M-D3BJ
|  2> %pal nprocs 8 end%pal nprocs 64 end
|  3>  %tddft nroots 2 Iroot 1
|  4> sf true
|  5> end
|  6> *xyz 0 3
|  7> O   2.48546684204191 1.25621355827181 -0.3335675822155
|  8> O   -0.7978246323531 0.82227441787029 -2.40164276500932
|  9> O   0.55371699555844 -2.6601162185842 -1.58800032253405
| 10> O   -2.43606375492028 -1.54474884800828 1.11599744869648
| 11> N   0.6142032432092 -2.13401996461926 0.62588401855173
| 12> N   -1.84839612299856 0.63095270071042 1.43502733063328
| 13> N   1.60855211039679 -0.74842841162862 -0.92271115225602
| 14> N   -1.67514601764061 -0.31399311921403 -0.65104601925831
| 15> C   1.46489859371839 -0.03663932663212 1.3737172360666
| 16> C   -0.88178282114814 1.94157695452142 -0.30846787649472
| 17> C   0.84824635383789 -1.20139774203344 1.60807907022554
| 18> C   -1.26253196257641 1.78489803620924 0.9641097532287
| 19> C   1.7444086874243 0.98812870187983 2.42376572789237
| 20> C   -0.22598121027719 3.17281942741558 -0.84235540643142
| 21> C   1.90954050075483 0.24423512501972 0.00795223993655
| 22> C   -1.09768278245054 0.82322664782234 -1.22902267847058
| 23> C   0.90086457721879 -1.91080132633743 -0.70322817822353
| 24> C   -2.02605199341996 -0.49438337722723 0.66569692724271
| 25> H   0.48711465450984 -1.47441441248077 2.58808275197048
| 26> H   -1.13672535004714 2.56545895818864 1.69878975889291
| 27> H   1.34299289019696 1.95565278928295 2.12722792032983
| 28> H   1.30827671377153 0.69671589424298 3.37699751520791
| 29> H   2.81595530515632 1.12495399692773 2.55757697355677
| 30> H   -0.77586461236232 3.55716436807198 -1.69880504562128
| 31> H   -0.17592726438756 3.94441488586593 -0.07746396054301
| 32> H   0.78486117327659 2.94390692336838 -1.17363795587428
| 33> H   -0.00696546243225 -2.90417629599037 0.80470070433088
| 34> H   -2.09251661501771 0.53412667938468 2.40344362539314
| 35> H   1.79649448403034 -0.529706759924 -1.88940352439972
| 36> H   -1.7735325230704 -1.11889426237417 -1.25309653482416
| 37> *
| 38>
| 39>                          ****END OF INPUT****

CARTESIAN COORDINATES (ANGSTROEM)
---------------------------------
  O      2.485467    1.256214   -0.333568
  O     -0.797825    0.822274   -2.401643
  O      0.553717   -2.660116   -1.588000
  O     -2.436064   -1.544749    1.115997
  N      0.614203   -2.134020    0.625884
  N     -1.848396    0.630953    1.435027
  N      1.608552   -0.748428   -0.922711
  N     -1.675146   -0.313993   -0.651046
  C      1.464899   -0.036639    1.373717
  C     -0.881783    1.941577   -0.308468
  C      0.848246   -1.201398    1.608079
  C     -1.262532    1.784898    0.964110
  C      1.744409    0.988129    2.423766
  C     -0.225981    3.172819   -0.842355
  C      1.909541    0.244235    0.007952
  C     -1.097683    0.823227   -1.229023
  C      0.900865   -1.910801   -0.703228
  C     -2.026052   -0.494383    0.665697
  H      0.487115   -1.474414    2.588083
  H     -1.136725    2.565459    1.698790
  H      1.342993    1.955653    2.127228
  H      1.308277    0.696716    3.376998
  H      2.815955    1.124954    2.557577
  H     -0.775865    3.557164   -1.698805
  H     -0.175927    3.944415   -0.077464
  H      0.784861    2.943907   -1.173638
  H     -0.006965   -2.904176    0.804701
  H     -2.092517    0.534127    2.403444
  H      1.796494   -0.529707   -1.889404
  H     -1.773533   -1.118894   -1.253097

 Total Charge           Charge          ....    0
 Multiplicity           Mult            ....    3
 Number of Electrons    NEL             ....  132
 Basis Dimension        Dim             ....  882

ORBITAL ENERGIES
----------------
                 SPIN UP ORBITALS
  NO   OCC          E(Eh)            E(eV)
   0   1.0000     -19.332586      -526.0664
   1   1.0000     -19.327460      -525.9269
   2   1.0000     -19.322442      -525.7904
   3   1.0000     -19.319440      -525.7087
   4   1.0000     -14.592984      -397.0953
   5   1.0000     -14.584735      -396.8708
   6   1.0000     -14.570545      -396.4847
   7   1.0000     -14.550117      -395.9288
   8   1.0000     -10.514457      -286.1129
   9   1.0000     -10.509622      -285.9814
  10   1.0000     -10.478047      -285.1222
  11   1.0000     -10.457853      -284.5726
  12   1.0000     -10.431293      -283.8499
  13   1.0000     -10.408802      -283.2379
  14   1.0000     -10.395895      -282.8867
  15   1.0000     -10.379298      -282.4351
  16   1.0000     -10.373560      -282.2789
  17   1.0000     -10.347793      -281.5778
  18   1.0000      -1.228516       -33.4296
  19   1.0000      -1.224335       -33.3158
  20   1.0000      -1.193183       -32.4682
  21   1.0000      -1.189927       -32.3796
  22   1.0000      -1.125258       -30.6198
  23   1.0000      -1.123413       -30.5696
  24   1.0000      -1.070069       -29.1181
  25   1.0000      -1.060714       -28.8635
  26   1.0000      -0.976407       -26.5694
  27   1.0000      -0.955660       -26.0048
  28   1.0000      -0.859652       -23.3923
  29   1.0000      -0.845408       -23.0047
  30   1.0000      -0.810909       -22.0659
  31   1.0000      -0.808976       -22.0134
  32   1.0000      -0.794384       -21.6163
  33   1.0000      -0.789132       -21.4734
  34   1.0000      -0.701573       -19.0908
  35   1.0000      -0.695124       -18.9153
  36   1.0000      -0.692205       -18.8359
  37   1.0000      -0.690891       -18.8001
  38   1.0000      -0.644929       -17.5494
  39   1.0000      -0.640836       -17.4380
  40   1.0000      -0.629220       -17.1219
  41   1.0000      -0.599800       -16.3214
  42   1.0000      -0.597002       -16.2452
  43   1.0000      -0.593833       -16.1590
  44   1.0000      -0.574270       -15.6267
  45   1.0000      -0.569873       -15.5070
  46   1.0000      -0.567367       -15.4388
  47   1.0000      -0.556585       -15.1455
  48   1.0000      -0.550711       -14.9856
  49   1.0000      -0.548871       -14.9355
  50   1.0000      -0.532818       -14.4987
  51   1.0000      -0.521720       -14.1967
  52   1.0000      -0.516805       -14.0630
  53   1.0000      -0.513533       -13.9739
  54   1.0000      -0.511899       -13.9295
  55   1.0000      -0.496435       -13.5087
  56   1.0000      -0.492802       -13.4098
  57   1.0000      -0.477622       -12.9967
  58   1.0000      -0.420943       -11.4544
  59   1.0000      -0.418978       -11.4010
  60   1.0000      -0.405209       -11.0263
  61   1.0000      -0.403629       -10.9833
  62   1.0000      -0.389008       -10.5855
  63   1.0000      -0.387097       -10.5334
  64   1.0000      -0.385428       -10.4880
  65   1.0000      -0.347651        -9.4601
  66   1.0000      -0.208392        -5.6706
  67   0.0000       0.011785         0.3207
  68   0.0000       0.020643         0.5617
  69   0.0000       0.033062         0.8997
  70   0.0000       0.039317         1.0699
  71   0.0000       0.041464         1.1283

                 SPIN DOWN ORBITALS
  NO   OCC          E(Eh)            E(eV)
   0   1.0000     -19.330576      -526.0117
   1   1.0000     -19.327431      -525.9261
   2   1.0000     -19.322379      -525.7887
   3   1.0000     -19.313338      -525.5427
   4   1.0000     -14.587683      -396.9510
   5   1.0000     -14.584531      -396.8653
   6   1.0000     -14.570561      -396.4851
   7   1.0000     -14.549205      -395.9040
   8   1.0000     -10.514462      -286.1131
   9   1.0000     -10.510023      -285.9923
  10   1.0000     -10.478052      -285.1223
  11   1.0000     -10.457420      -284.5609
  12   1.0000     -10.431255      -283.8489
  13   1.0000     -10.399261      -282.9783
  14   1.0000     -10.385627      -282.6073
  15   1.0000     -10.379221      -282.4330
  16   1.0000     -10.374051      -282.2923
  17   1.0000     -10.347764      -281.5770
  18   1.0000      -1.227247       -33.3951
  19   1.0000      -1.221039       -33.2261
  20   1.0000      -1.193002       -32.4632
  21   1.0000      -1.180862       -32.1329
  22   1.0000      -1.123241       -30.5649
  23   1.0000      -1.114086       -30.3158
  24   1.0000      -1.069970       -29.1154
  25   1.0000      -1.055131       -28.7116
  26   1.0000      -0.956030       -26.0149
  27   1.0000      -0.951966       -25.9043
  28   1.0000      -0.848897       -23.0997
  29   1.0000      -0.844851       -22.9896
  30   1.0000      -0.809490       -22.0274
  31   1.0000      -0.798793       -21.7363
  32   1.0000      -0.794293       -21.6138
  33   1.0000      -0.782330       -21.2883
  34   1.0000      -0.695021       -18.9125
  35   1.0000      -0.691435       -18.8149
  36   1.0000      -0.689577       -18.7643
  37   1.0000      -0.683408       -18.5965
  38   1.0000      -0.642234       -17.4761
  39   1.0000      -0.632533       -17.2121
  40   1.0000      -0.623165       -16.9572
  41   1.0000      -0.596925       -16.2432
  42   1.0000      -0.589279       -16.0351
  43   1.0000      -0.585392       -15.9293
  44   1.0000      -0.567505       -15.4426
  45   1.0000      -0.563942       -15.3457
  46   1.0000      -0.556216       -15.1354
  47   1.0000      -0.549434       -14.9509
  48   1.0000      -0.546848       -14.8805
  49   1.0000      -0.544624       -14.8200
  50   1.0000      -0.524307       -14.2671
  51   1.0000      -0.515542       -14.0286
  52   1.0000      -0.513162       -13.9639
  53   1.0000      -0.507252       -13.8030
  54   1.0000      -0.501784       -13.6542
  55   1.0000      -0.494876       -13.4662
  56   1.0000      -0.477140       -12.9836
  57   1.0000      -0.445002       -12.1091
  58   1.0000      -0.419652       -11.4193
  59   1.0000      -0.415162       -11.2971
  60   1.0000      -0.403988       -10.9931
  61   1.0000      -0.386281       -10.5112
  62   1.0000      -0.380685       -10.3590
  63   1.0000      -0.378684       -10.3045
  64   1.0000      -0.346201        -9.4206
  65   0.0000      -0.106971        -2.9108
  66   0.0000       0.010829         0.2947
  67   0.0000       0.021375         0.5816
  68   0.0000       0.031508         0.8574
  69   0.0000       0.037678         1.0253

----------------------------------------------------------------------------------------------------
          SPIN FLIP ABSORPTION SPECTRUM VIA TRANSITION ELECTRIC DIPOLE MOMENTS
----------------------------------------------------------------------------------------------------
     Transition      Energy     Energy  Wavelength fosc(D2)      D2        DX        DY        DZ
                      (eV)      (cm-1)    (nm)                 (au**2)    (au)      (au)      (au)
----------------------------------------------------------------------------------------------------
  1-3A  ->  2-3A    4.288659   34590.4   289.1   0.001611473   0.01534  -0.05237  -0.08894   0.06844

Dispersion correction             ... done (  0.1 sec)

MULLIKEN ATOMIC CHARGES AND SPIN DENSITIES
------------------------------------------
   0 O :   -0.691799    0.036312
   1 O :   -0.659608    0.000077
   2 O :   -0.637612    0.007716
   3 O :   -0.671310    0.000592
   4 N :   -0.010039    0.061552
   5 N :    0.027342    0.001806
   6 N :    0.049655    0.004109
   7 N :    0.056859   -0.002252
   8 C :    1.200527    0.621995
   9 C :    0.871220    0.002756
  10 C :   -0.198282   -0.488827
  11 C :   -0.262699   -0.019402
  12 C :   -1.452209   -0.013180
  13 C :   -1.361183    0.002303
  14 C :    0.130126   -0.301229
  15 C :    0.460216    0.022671
  16 C :    0.357629    0.019640
  17 C :    0.428742   -0.003965
  18 H :    0.165359    0.030702
  19 H :    0.158925   -0.006750
  20 H :    0.254700    0.009183
  21 H :    0.342608    0.010409
  22 H :    0.364360    0.002786
  23 H :    0.341437   -0.000284
  24 H :    0.334392    0.000799
  25 H :    0.226732   -0.002638
  26 H :    0.063781    0.001040
  27 H :    0.026436   -0.001751
  28 H :    0.046881    0.003792
  29 H :    0.036814    0.000036
Sum of atomic charges       :   -0.0000000

LOEWDIN ATOMIC CHARGES AND SPIN DENSITIES
-----------------------------------------
   0 O :    0.078938    0.029708
   1 O :    0.102479   -0.000058
   2 O :    0.091701    0.006287
   3 O :    0.069701    0.000204
   4 N :    0.290167    0.025820
   5 N :    0.282163   -0.001327
   6 N :    0.341717    0.000274
   7 N :    0.345553   -0.000070
   8 C :   -0.142300   -0.036232
   9 C :   -0.132806   -0.000298
  10 C :    0.050815   -0.032034
  11 C :    0.043655   -0.000326
  12 C :    0.173133   -0.003881
  13 C :    0.184419    0.000157
  14 C :   -0.409584    0.011378
  15 C :   -0.392519    0.000073
  16 C :   -0.481669    0.000688
  17 C :   -0.490847   -0.000561
  18 H :    0.040731   -0.002005
  19 H :    0.036266    0.000039
  20 H :   -0.013966   -0.000335
  21 H :   -0.005761    0.000262
  22 H :    0.003074   -0.000427
  23 H :    0.000521    0.000011
  24 H :   -0.004777    0.000018
  25 H :   -0.012833    0.000124
  26 H :   -0.016677    0.002355
  27 H :   -0.019458   -0.000051
  28 H :   -0.003411    0.000203
  29 H :   -0.008426    0.000003

  Mayer bond orders larger than 0.100000
B(  0-O , 14-C ) :   1.4395 B(  1-O , 15-C ) :   1.4663 B(  2-O , 16-C ) :   1.5702
B(  3-O , 17-C ) :   1.5301 B(  4-N , 10-C ) :   0.8579 B(  4-N , 16-C ) :   0.9996
B(  4-N , 26-H ) :   1.1068 B(  5-N , 11-C ) :   0.9563 B(  5-N , 17-C ) :   1.0318
B(  5-N , 27-H ) :   1.1230 B(  6-N , 14-C ) :   0.9600 B(  6-N , 16-C ) :   0.9228
B(  6-N , 28-H ) :   1.1046 B(  7-N , 15-C ) :   0.9542 B(  7-N , 16-C ) :   0.1160
B(  7-N , 17-C ) :   0.9500 B(  7-N , 29-H ) :   1.1142 B(  8-C , 10-C ) :   1.0673
B(  8-C , 12-C ) :   0.2859 B(  8-C , 14-C ) :   0.5952 B(  8-C , 21-H ) :  -0.1009
B(  9-C , 11-C ) :   1.1733 B(  9-C , 13-C ) :   0.3349 B(  9-C , 15-C ) :   0.7552
B(  9-C , 19-H ) :  -0.1121 B( 10-C , 12-C ) :  -0.1274 B( 10-C , 14-C ) :   0.1545
B( 10-C , 16-C ) :  -0.1048 B( 10-C , 18-H ) :   1.1460 B( 11-C , 13-C ) :  -0.1302
B( 11-C , 15-C ) :  -0.1020 B( 11-C , 19-H ) :   1.1474 B( 12-C , 20-H ) :   0.9887
B( 12-C , 21-H ) :   0.9918 B( 12-C , 22-H ) :   0.9247 B( 13-C , 23-H ) :   0.9263
B( 13-C , 24-H ) :   1.0093 B( 13-C , 25-H ) :   0.9918

Dispersion correction           -0.059175953
FINAL SINGLE POINT ENERGY      -908.928681984663

DIPOLE MOMENT
-------------

Method             : TDA/CIS
Type of density    : Electron Density
Level              : Relaxed density
State              :   1
Multiplicity       :   3
Irrep              :   0
Energy             :     0.0000000000000000 Eh
Relativity type    :
Basis              : AO
                                X                 Y                 Z
Electronic contribution:     -2.944605646      -9.678691503      -5.764291057
Nuclear contribution   :      2.505597518      10.316231174       8.267280518
                        -----------------------------------------
Total Dipole Moment    :     -0.439008128       0.637539670       2.502989461
                        -----------------------------------------
Magnitude (a.u.)       :      2.619950612
Magnitude (Debye)      :      6.659385226

Rotational constants in cm-1:             0.016975             0.015886             0.014078
Rotational constants in MHz :           508.884544           476.247090           422.055201

                             ****ORCA TERMINATED NORMALLY****
TOTAL RUN TIME: 0 days 0 hours 6 minutes 36 seconds 517 msec
