                         Program Version 6.0.0  -   RELEASE  -
|  1> ! Engrad def2-TZVPPD wB97M-D3BJ
|  2> %pal nprocs 8 end%pal nprocs 64 end
|  3> %tddft Nroots 2 Iroot 2
|  4> sf true
|  5> end
|  6> *xyz 0 3
|  7> O   2.30983275 -0.28622386 -1.16902298
|  8> O   -0.19407883 2.79275293 -2.28270904
|  9> O   0.20872811 -3.78592034 0.77985253
| 10> O   -2.14530469 -1.08721166 -1.39405236
| 11> N   0.38792546 -1.88321318 1.99536842
| 12> N   -1.38288803 -0.1722235 0.52669819
| 13> N   1.06277623 -1.92934445 -0.22952903
| 14> N   -0.79664214 0.721624 -1.61348947
| 15> C   1.33343979 0.17176673 0.96008717
| 16> C   -0.32536729 2.67756724 -0.09556654
| 17> C   0.58430864 -0.46708397 2.06921448
| 18> C   -0.35440801 0.4228404 1.30561146
| 19> C   2.26953483 1.31595729 1.23057417
| 20> C   -1.52159418 3.37193035 0.34361906
| 21> C   1.62474792 -0.66612238 -0.24008101
| 22> C   -0.43762985 2.02757451 -1.3686511
| 23> C   0.51965001 -2.62058685 0.84485135
| 24> C   -1.48017802 -0.23132907 -0.85787324
| 25> H   0.83446905 -0.15748072 3.07068639
| 26> H   -0.50626746 1.39980447 1.70635018
| 27> H   2.41806333 1.90638588 0.31675905
| 28> H   1.87781864 1.96160085 1.98973363
| 29> H   3.24098128 0.92849798 1.55618658
| 30> H   -2.42032457 2.74264516 0.26418935
| 31> H   -1.4390337 3.78708803 1.34581804
| 32> H   -1.66464044 4.2191605 -0.35933717
| 33> H   -0.03315531 -2.37157214 2.76879961
| 34> H   -1.840951 -0.96778012 0.93180389
| 35> H   1.24069437 -2.49459946 -1.03499238
| 36> H   -0.83189155 0.50589246 -2.58285223
| 37> *
| 38>
| 39>                          ****END OF INPUT****

CARTESIAN COORDINATES (ANGSTROEM)
---------------------------------
  O      2.309833   -0.286224   -1.169023
  O     -0.194079    2.792753   -2.282709
  O      0.208728   -3.785920    0.779853
  O     -2.145305   -1.087212   -1.394052
  N      0.387925   -1.883213    1.995368
  N     -1.382888   -0.172224    0.526698
  N      1.062776   -1.929344   -0.229529
  N     -0.796642    0.721624   -1.613489
  C      1.333440    0.171767    0.960087
  C     -0.325367    2.677567   -0.095567
  C      0.584309   -0.467084    2.069214
  C     -0.354408    0.422840    1.305611
  C      2.269535    1.315957    1.230574
  C     -1.521594    3.371930    0.343619
  C      1.624748   -0.666122   -0.240081
  C     -0.437630    2.027575   -1.368651
  C      0.519650   -2.620587    0.844851
  C     -1.480178   -0.231329   -0.857873
  H      0.834469   -0.157481    3.070686
  H     -0.506267    1.399804    1.706350
  H      2.418063    1.906386    0.316759
  H      1.877819    1.961601    1.989734
  H      3.240981    0.928498    1.556187
  H     -2.420325    2.742645    0.264189
  H     -1.439034    3.787088    1.345818
  H     -1.664640    4.219161   -0.359337
  H     -0.033155   -2.371572    2.768800
  H     -1.840951   -0.967780    0.931804
  H      1.240694   -2.494599   -1.034992
  H     -0.831892    0.505892   -2.582852

 Total Charge           Charge          ....    0
 Multiplicity           Mult            ....    3
 Number of Electrons    NEL             ....  132
 Basis Dimension        Dim             ....  882

ORBITAL ENERGIES
----------------
                 SPIN UP ORBITALS
  NO   OCC          E(Eh)            E(eV)
   0   1.0000     -19.335910      -526.1569
   1   1.0000     -19.334405      -526.1159
   2   1.0000     -19.327282      -525.9221
   3   1.0000     -19.322290      -525.7862
   4   1.0000     -14.568297      -396.4235
   5   1.0000     -14.568088      -396.4178
   6   1.0000     -14.567203      -396.3937
   7   1.0000     -14.565843      -396.3567
   8   1.0000     -10.514157      -286.1048
   9   1.0000     -10.509447      -285.9766
  10   1.0000     -10.491027      -285.4754
  11   1.0000     -10.484308      -285.2925
  12   1.0000     -10.441728      -284.1339
  13   1.0000     -10.439872      -284.0834
  14   1.0000     -10.417680      -283.4795
  15   1.0000     -10.400516      -283.0124
  16   1.0000     -10.375982      -282.3448
  17   1.0000     -10.367561      -282.1157
  18   1.0000      -1.226442       -33.3732
  19   1.0000      -1.221834       -33.2478
  20   1.0000      -1.205211       -32.7955
  21   1.0000      -1.198402       -32.6102
  22   1.0000      -1.124034       -30.5865
  23   1.0000      -1.092151       -29.7189
  24   1.0000      -1.074870       -29.2487
  25   1.0000      -1.063714       -28.9451
  26   1.0000      -0.996522       -27.1167
  27   1.0000      -0.943056       -25.6619
  28   1.0000      -0.880968       -23.9724
  29   1.0000      -0.825234       -22.4558
  30   1.0000      -0.816515       -22.2185
  31   1.0000      -0.806789       -21.9538
  32   1.0000      -0.791203       -21.5297
  33   1.0000      -0.778801       -21.1922
  34   1.0000      -0.722565       -19.6620
  35   1.0000      -0.700232       -19.0543
  36   1.0000      -0.694270       -18.8920
  37   1.0000      -0.664275       -18.0758
  38   1.0000      -0.641332       -17.4515
  39   1.0000      -0.633076       -17.2269
  40   1.0000      -0.614214       -16.7136
  41   1.0000      -0.606916       -16.5150
  42   1.0000      -0.601800       -16.3758
  43   1.0000      -0.591957       -16.1080
  44   1.0000      -0.580591       -15.7987
  45   1.0000      -0.570346       -15.5199
  46   1.0000      -0.565785       -15.3958
  47   1.0000      -0.560526       -15.2527
  48   1.0000      -0.557678       -15.1752
  49   1.0000      -0.554110       -15.0781
  50   1.0000      -0.546543       -14.8722
  51   1.0000      -0.543143       -14.7797
  52   1.0000      -0.532678       -14.4949
  53   1.0000      -0.514999       -14.0138
  54   1.0000      -0.511590       -13.9211
  55   1.0000      -0.491387       -13.3713
  56   1.0000      -0.440429       -11.9847
  57   1.0000      -0.425548       -11.5798
  58   1.0000      -0.418935       -11.3998
  59   1.0000      -0.409868       -11.1531
  60   1.0000      -0.403795       -10.9878
  61   1.0000      -0.399367       -10.8673
  62   1.0000      -0.395182       -10.7534
  63   1.0000      -0.388304       -10.5663
  64   1.0000      -0.380340       -10.3496
  65   1.0000      -0.374082       -10.1793
  66   1.0000      -0.303881        -8.2690
  67   0.0000       0.009560         0.2601
  68   0.0000       0.025084         0.6826
  69   0.0000       0.032054         0.8722
  70   0.0000       0.035771         0.9734
  71   0.0000       0.041421         1.1271

                 SPIN DOWN ORBITALS
  NO   OCC          E(Eh)            E(eV)
   0   1.0000     -19.334342      -526.1142
   1   1.0000     -19.330723      -526.0157
   2   1.0000     -19.327278      -525.9220
   3   1.0000     -19.322285      -525.7861
   4   1.0000     -14.568197      -396.4208
   5   1.0000     -14.568055      -396.4169
   6   1.0000     -14.567223      -396.3943
   7   1.0000     -14.565729      -396.3536
   8   1.0000     -10.514184      -286.1055
   9   1.0000     -10.509449      -285.9767
  10   1.0000     -10.491054      -285.4761
  11   1.0000     -10.484766      -285.3050
  12   1.0000     -10.441437      -284.1260
  13   1.0000     -10.439462      -284.0722
  14   1.0000     -10.417289      -283.4689
  15   1.0000     -10.376346      -282.3547
  16   1.0000     -10.373258      -282.2707
  17   1.0000     -10.367442      -282.1124
  18   1.0000      -1.225558       -33.3491
  19   1.0000      -1.220809       -33.2199
  20   1.0000      -1.198532       -32.6137
  21   1.0000      -1.197954       -32.5980
  22   1.0000      -1.123687       -30.5771
  23   1.0000      -1.091257       -29.6946
  24   1.0000      -1.073860       -29.2212
  25   1.0000      -1.063210       -28.9314
  26   1.0000      -0.995731       -27.0952
  27   1.0000      -0.913943       -24.8697
  28   1.0000      -0.880356       -23.9557
  29   1.0000      -0.824017       -22.4226
  30   1.0000      -0.811729       -22.0883
  31   1.0000      -0.803236       -21.8572
  32   1.0000      -0.787370       -21.4254
  33   1.0000      -0.773571       -21.0499
  34   1.0000      -0.715416       -19.4674
  35   1.0000      -0.697765       -18.9872
  36   1.0000      -0.689206       -18.7542
  37   1.0000      -0.661958       -18.0128
  38   1.0000      -0.636511       -17.3203
  39   1.0000      -0.628712       -17.1081
  40   1.0000      -0.610762       -16.6197
  41   1.0000      -0.603856       -16.4318
  42   1.0000      -0.589208       -16.0332
  43   1.0000      -0.584121       -15.8947
  44   1.0000      -0.575530       -15.6610
  45   1.0000      -0.563768       -15.3409
  46   1.0000      -0.558084       -15.1862
  47   1.0000      -0.555643       -15.1198
  48   1.0000      -0.554337       -15.0843
  49   1.0000      -0.550489       -14.9796
  50   1.0000      -0.538125       -14.6431
  51   1.0000      -0.533575       -14.5193
  52   1.0000      -0.529629       -14.4119
  53   1.0000      -0.514597       -14.0029
  54   1.0000      -0.500296       -13.6137
  55   1.0000      -0.490242       -13.3402
  56   1.0000      -0.428035       -11.6474
  57   1.0000      -0.423528       -11.5248
  58   1.0000      -0.418388       -11.3849
  59   1.0000      -0.404815       -11.0156
  60   1.0000      -0.396064       -10.7775
  61   1.0000      -0.394397       -10.7321
  62   1.0000      -0.385504       -10.4901
  63   1.0000      -0.380442       -10.3524
  64   1.0000      -0.371499       -10.1090
  65   0.0000      -0.057169        -1.5556
  66   0.0000       0.008477         0.2307
  67   0.0000       0.017577         0.4783
  68   0.0000       0.031396         0.8543
  69   0.0000       0.033517         0.9120

----------------------------------------------------------------------------------------------------
          SPIN FLIP ABSORPTION SPECTRUM VIA TRANSITION ELECTRIC DIPOLE MOMENTS
----------------------------------------------------------------------------------------------------
     Transition      Energy     Energy  Wavelength fosc(D2)      D2        DX        DY        DZ
                      (eV)      (cm-1)    (nm)                 (au**2)    (au)      (au)      (au)
----------------------------------------------------------------------------------------------------
  1-3A  ->  2-3A    1.920684   15491.4   645.5   0.000316209   0.00672   0.04382   0.05039  -0.04754

Dispersion correction             ... done (  0.1 sec)

MULLIKEN ATOMIC CHARGES AND SPIN DENSITIES
------------------------------------------
   0 O :   -0.666847    0.000058
   1 O :   -0.572439   -0.005335
   2 O :   -0.645366   -0.000001
   3 O :   -0.647631   -0.000038
   4 N :   -0.202790   -0.000253
   5 N :   -0.133910    0.000355
   6 N :    0.033319   -0.000527
   7 N :    0.087428   -0.002238
   8 C :    1.612363    0.009934
   9 C :    0.099089    0.143751
  10 C :    0.039557    0.001278
  11 C :   -0.850876   -0.056635
  12 C :   -1.678572    0.006820
  13 C :   -1.080817    0.070025
  14 C :    0.088451    0.007238
  15 C :    0.606704   -0.181461
  16 C :    0.446069    0.000257
  17 C :    0.490298    0.009198
  18 H :    0.287655    0.000336
  19 H :    0.515709    0.012323
  20 H :    0.293330   -0.002691
  21 H :    0.339598   -0.008322
  22 H :    0.418944   -0.003567
  23 H :    0.298115    0.004918
  24 H :    0.296053   -0.015602
  25 H :    0.374586    0.008977
  26 H :    0.037614   -0.000219
  27 H :    0.105420   -0.000674
  28 H :    0.020058    0.000017
  29 H :   -0.011109    0.002077
Sum of atomic charges       :   -0.0000000

LOEWDIN ATOMIC CHARGES AND SPIN DENSITIES
-----------------------------------------
   0 O :    0.103289   -0.000408
   1 O :    0.115508   -0.013359
   2 O :    0.095115    0.000023
   3 O :    0.099037   -0.000392
   4 N :    0.285535   -0.000222
   5 N :    0.280520   -0.000665
   6 N :    0.343673   -0.000195
   7 N :    0.342883   -0.001429
   8 C :   -0.142986   -0.001348
   9 C :    0.134868    0.044144
  10 C :   -0.099956   -0.000499
  11 C :   -0.002078   -0.000946
  12 C :    0.189375   -0.002817
  13 C :    0.090193   -0.004956
  14 C :   -0.376096   -0.000333
  15 C :   -0.483007   -0.009262
  16 C :   -0.479452   -0.000045
  17 C :   -0.460142   -0.000304
  18 H :    0.054171   -0.000023
  19 H :   -0.013500   -0.000828
  20 H :    0.003919   -0.001419
  21 H :   -0.015106   -0.000571
  22 H :    0.013271   -0.000485
  23 H :    0.013669   -0.002395
  24 H :   -0.006286   -0.000913
  25 H :    0.014342   -0.000063
  26 H :   -0.024535   -0.000015
  27 H :   -0.037055   -0.000047
  28 H :   -0.013408   -0.000023
  29 H :   -0.025760   -0.000204

  Mayer bond orders larger than 0.100000
B(  0-O ,  8-C ) :  -0.1298 B(  0-O , 14-C ) :   1.5563 B(  1-O , 15-C ) :   1.3934
B(  2-O , 16-C ) :   1.5721 B(  3-O , 17-C ) :   1.4957 B(  4-N ,  8-C ) :   0.1340
B(  4-N , 10-C ) :   0.5454 B(  4-N , 16-C ) :   1.0959 B(  4-N , 26-H ) :   1.1197
B(  5-N , 11-C ) :   0.6914 B(  5-N , 17-C ) :   0.9656 B(  5-N , 19-H ) :  -0.1438
B(  5-N , 27-H ) :   1.0256 B(  6-N , 10-C ) :   0.1360 B(  6-N , 14-C ) :   1.0555
B(  6-N , 16-C ) :   0.9414 B(  6-N , 28-H ) :   1.1163 B(  7-N , 15-C ) :   0.9306
B(  7-N , 17-C ) :   0.9589 B(  7-N , 29-H ) :   1.1398 B(  8-C , 10-C ) :   0.5852
B(  8-C , 11-C ) :   0.3698 B(  8-C , 14-C ) :   0.3484 B(  8-C , 18-H ) :  -0.1005
B(  8-C , 20-H ) :  -0.1386 B(  8-C , 21-H ) :  -0.1407 B(  9-C , 13-C ) :   0.3581
B(  9-C , 15-C ) :   0.7196 B( 10-C , 11-C ) :   0.8225 B( 10-C , 12-C ) :  -0.1151
B( 10-C , 16-C ) :  -0.1167 B( 10-C , 18-H ) :   1.0828 B( 11-C , 19-H ) :   0.9230
B( 12-C , 20-H ) :   1.0629 B( 12-C , 21-H ) :   1.0727 B( 12-C , 22-H ) :   0.7596
B( 13-C , 23-H ) :   0.9406 B( 13-C , 24-H ) :   0.9970 B( 13-C , 25-H ) :   0.9099

Dispersion correction           -0.057401414
FINAL SINGLE POINT ENERGY      -908.658703506386

DIPOLE MOMENT
-------------

Method             : TDA/CIS
Type of density    : Electron Density
Level              : Relaxed density
State              :   2
Multiplicity       :   3
Irrep              :   0
Energy             :     0.0000000000000000 Eh
Relativity type    :
Basis              : AO
                                X                 Y                 Z
Electronic contribution:     -0.211055254      -9.679268870      -6.523772066
Nuclear contribution   :     -0.084042435      10.694726767       9.081641963
                        -----------------------------------------
Total Dipole Moment    :     -0.295097689       1.015457897       2.557869897
                        -----------------------------------------
Magnitude (a.u.)       :      2.767839555
Magnitude (Debye)      :      7.035289044

Rotational constants in cm-1:             0.022682             0.012484             0.011363
Rotational constants in MHz :           679.995455           374.274013           340.643419

                             ****ORCA TERMINATED NORMALLY****
TOTAL RUN TIME: 0 days 0 hours 4 minutes 33 seconds 784 msec
