                         Program Version 6.0.0  -   RELEASE  -
|  1> ! Engrad def2-TZVPPD wB97M-D3BJ
|  2> %pal nprocs 8 end%pal nprocs 64 end
|  3> %tddft
|  4>  Iroot 2 Nroots 3
|  5> sf true
|  6> end
|  7> *xyz 0 3
|  8> O   2.87176262 0.65712358 -0.88911441
|  9> O   -0.64259752 1.54379153 -2.34058242
| 10> O   0.28058417 -3.10157635 -0.36938033
| 11> O   -3.03945535 -1.71560219 -0.4794171
| 12> N   0.37199166 -1.57337964 1.29107763
| 13> N   -1.98973835 -0.14110501 0.87352275
| 14> N   1.67648054 -1.28437905 -0.59963368
| 15> N   -1.56569948 -0.19189171 -1.29927982
| 16> C   1.69228699 0.44696408 1.06231343
| 17> C   -0.70813438 1.57261567 -0.03802089
| 18> C   0.46455667 -0.19923375 1.61472254
| 19> C   -0.86605897 0.69682161 1.13659451
| 20> C   2.31992479 1.61439787 1.64770262
| 21> C   -0.54670218 3.04579973 0.14017169
| 22> C   2.18612637 -0.06950376 -0.20762594
| 23> C   -0.9190409 0.99460018 -1.28865678
| 24> C   0.7177657 -2.04901254 0.06335473
| 25> C   -2.26174509 -0.77849739 -0.30592908
| 26> H   0.36080289 -0.01470166 2.71214478
| 27> H   -1.17834069 1.35067779 2.01473384
| 28> H   3.38665232 1.53416205 1.81557631
| 29> H   2.1891598 2.51715746 1.12444208
| 30> H   1.8729826 1.7809717 2.69915218
| 31> H   -1.55576444 3.55198043 0.28960211
| 32> H   0.05114581 3.27794765 1.05500668
| 33> H   -0.00652366 3.5481976 -0.62119997
| 34> H   -0.35968056 -2.06922129 1.68788952
| 35> H   -2.43475316 -0.56781513 1.68179037
| 36> H   1.92292001 -1.65299288 -1.50421928
| 37> H   -1.6511938 -0.57976626 -2.20017616
| 38> *
| 39>
| 40>                          ****END OF INPUT****

CARTESIAN COORDINATES (ANGSTROEM)
---------------------------------
  O      2.871763    0.657124   -0.889114
  O     -0.642598    1.543792   -2.340582
  O      0.280584   -3.101576   -0.369380
  O     -3.039455   -1.715602   -0.479417
  N      0.371992   -1.573380    1.291078
  N     -1.989738   -0.141105    0.873523
  N      1.676481   -1.284379   -0.599634
  N     -1.565699   -0.191892   -1.299280
  C      1.692287    0.446964    1.062313
  C     -0.708134    1.572616   -0.038021
  C      0.464557   -0.199234    1.614723
  C     -0.866059    0.696822    1.136595
  C      2.319925    1.614398    1.647703
  C     -0.546702    3.045800    0.140172
  C      2.186126   -0.069504   -0.207626
  C     -0.919041    0.994600   -1.288657
  C      0.717766   -2.049013    0.063355
  C     -2.261745   -0.778497   -0.305929
  H      0.360803   -0.014702    2.712145
  H     -1.178341    1.350678    2.014734
  H      3.386652    1.534162    1.815576
  H      2.189160    2.517157    1.124442
  H      1.872983    1.780972    2.699152
  H     -1.555764    3.551980    0.289602
  H      0.051146    3.277948    1.055007
  H     -0.006524    3.548198   -0.621200
  H     -0.359681   -2.069221    1.687890
  H     -2.434753   -0.567815    1.681790
  H      1.922920   -1.652993   -1.504219
  H     -1.651194   -0.579766   -2.200176

 Total Charge           Charge          ....    0
 Multiplicity           Mult            ....    3
 Number of Electrons    NEL             ....  132
 Basis Dimension        Dim             ....  882

ORBITAL ENERGIES
----------------
                 SPIN UP ORBITALS
  NO   OCC          E(Eh)            E(eV)
   0   1.0000     -19.333042      -526.0788
   1   1.0000     -19.327367      -525.9244
   2   1.0000     -19.323996      -525.8327
   3   1.0000     -19.317659      -525.6602
   4   1.0000     -14.569310      -396.4511
   5   1.0000     -14.562974      -396.2787
   6   1.0000     -14.562694      -396.2710
   7   1.0000     -14.556679      -396.1074
   8   1.0000     -10.509968      -285.9908
   9   1.0000     -10.503190      -285.8063
  10   1.0000     -10.479600      -285.1644
  11   1.0000     -10.467961      -284.8477
  12   1.0000     -10.448515      -284.3185
  13   1.0000     -10.446180      -284.2550
  14   1.0000     -10.412144      -283.3288
  15   1.0000     -10.411273      -283.3051
  16   1.0000     -10.378217      -282.4056
  17   1.0000     -10.374076      -282.2930
  18   1.0000      -1.225749       -33.3543
  19   1.0000      -1.220703       -33.2170
  20   1.0000      -1.200661       -32.6716
  21   1.0000      -1.190179       -32.3864
  22   1.0000      -1.125566       -30.6282
  23   1.0000      -1.109132       -30.1810
  24   1.0000      -1.077429       -29.3183
  25   1.0000      -1.064940       -28.9785
  26   1.0000      -0.983729       -26.7686
  27   1.0000      -0.957784       -26.0626
  28   1.0000      -0.885358       -24.0918
  29   1.0000      -0.846412       -23.0320
  30   1.0000      -0.835924       -22.7466
  31   1.0000      -0.808197       -21.9922
  32   1.0000      -0.800758       -21.7897
  33   1.0000      -0.790597       -21.5132
  34   1.0000      -0.707859       -19.2618
  35   1.0000      -0.700662       -19.0660
  36   1.0000      -0.695346       -18.9213
  37   1.0000      -0.671037       -18.2598
  38   1.0000      -0.664127       -18.0718
  39   1.0000      -0.651264       -17.7218
  40   1.0000      -0.618043       -16.8178
  41   1.0000      -0.606226       -16.4963
  42   1.0000      -0.596164       -16.2224
  43   1.0000      -0.585910       -15.9434
  44   1.0000      -0.582724       -15.8567
  45   1.0000      -0.573521       -15.6063
  46   1.0000      -0.564558       -15.3624
  47   1.0000      -0.562399       -15.3036
  48   1.0000      -0.557813       -15.1789
  49   1.0000      -0.552941       -15.0463
  50   1.0000      -0.545590       -14.8463
  51   1.0000      -0.533293       -14.5116
  52   1.0000      -0.528528       -14.3820
  53   1.0000      -0.524844       -14.2817
  54   1.0000      -0.511781       -13.9263
  55   1.0000      -0.503497       -13.7008
  56   1.0000      -0.490944       -13.3593
  57   1.0000      -0.423273       -11.5179
  58   1.0000      -0.414865       -11.2890
  59   1.0000      -0.411452       -11.1962
  60   1.0000      -0.406906       -11.0725
  61   1.0000      -0.402686       -10.9576
  62   1.0000      -0.396356       -10.7854
  63   1.0000      -0.388929       -10.5833
  64   1.0000      -0.385722       -10.4960
  65   1.0000      -0.336042        -9.1442
  66   1.0000      -0.326052        -8.8723
  67   0.0000       0.004587         0.1248
  68   0.0000       0.028012         0.7622
  69   0.0000       0.031394         0.8543
  70   0.0000       0.038288         1.0419
  71   0.0000       0.051340         1.3970

                 SPIN DOWN ORBITALS
  NO   OCC          E(Eh)            E(eV)
   0   1.0000     -19.328946      -525.9674
   1   1.0000     -19.323882      -525.8296
   2   1.0000     -19.322132      -525.7819
   3   1.0000     -19.317326      -525.6512
   4   1.0000     -14.568905      -396.4401
   5   1.0000     -14.562652      -396.2699
   6   1.0000     -14.561990      -396.2519
   7   1.0000     -14.556400      -396.0998
   8   1.0000     -10.510004      -285.9917
   9   1.0000     -10.503229      -285.8074
  10   1.0000     -10.480556      -285.1904
  11   1.0000     -10.469040      -284.8770
  12   1.0000     -10.448266      -284.3118
  13   1.0000     -10.445291      -284.2308
  14   1.0000     -10.400726      -283.0181
  15   1.0000     -10.400175      -283.0032
  16   1.0000     -10.378811      -282.4218
  17   1.0000     -10.374686      -282.3095
  18   1.0000      -1.223476       -33.2925
  19   1.0000      -1.218067       -33.1453
  20   1.0000      -1.196005       -32.5449
  21   1.0000      -1.185250       -32.2523
  22   1.0000      -1.123092       -30.5609
  23   1.0000      -1.106753       -30.1163
  24   1.0000      -1.075610       -29.2688
  25   1.0000      -1.063087       -28.9281
  26   1.0000      -0.968938       -26.3661
  27   1.0000      -0.940584       -25.5946
  28   1.0000      -0.880453       -23.9584
  29   1.0000      -0.842241       -22.9185
  30   1.0000      -0.828285       -22.5388
  31   1.0000      -0.803314       -21.8593
  32   1.0000      -0.799237       -21.7483
  33   1.0000      -0.788817       -21.4648
  34   1.0000      -0.701517       -19.0893
  35   1.0000      -0.694453       -18.8970
  36   1.0000      -0.689155       -18.7529
  37   1.0000      -0.664712       -18.0877
  38   1.0000      -0.651962       -17.7408
  39   1.0000      -0.647700       -17.6248
  40   1.0000      -0.614035       -16.7087
  41   1.0000      -0.600834       -16.3495
  42   1.0000      -0.587807       -15.9951
  43   1.0000      -0.578462       -15.7408
  44   1.0000      -0.574043       -15.6205
  45   1.0000      -0.563131       -15.3236
  46   1.0000      -0.560536       -15.2530
  47   1.0000      -0.557621       -15.1736
  48   1.0000      -0.551723       -15.0131
  49   1.0000      -0.540516       -14.7082
  50   1.0000      -0.539131       -14.6705
  51   1.0000      -0.526222       -14.3192
  52   1.0000      -0.523683       -14.2502
  53   1.0000      -0.515541       -14.0286
  54   1.0000      -0.500941       -13.6313
  55   1.0000      -0.499540       -13.5932
  56   1.0000      -0.486596       -13.2409
  57   1.0000      -0.417769       -11.3681
  58   1.0000      -0.410978       -11.1833
  59   1.0000      -0.402114       -10.9421
  60   1.0000      -0.398788       -10.8516
  61   1.0000      -0.391362       -10.6495
  62   1.0000      -0.386050       -10.5049
  63   1.0000      -0.382227       -10.4009
  64   1.0000      -0.373845       -10.1728
  65   0.0000      -0.061614        -1.6766
  66   0.0000      -0.047088        -1.2813
  67   0.0000       0.004288         0.1167
  68   0.0000       0.028103         0.7647
  69   0.0000       0.031145         0.8475

----------------------------------------------------------------------------------------------------
          SPIN FLIP ABSORPTION SPECTRUM VIA TRANSITION ELECTRIC DIPOLE MOMENTS
----------------------------------------------------------------------------------------------------
     Transition      Energy     Energy  Wavelength fosc(D2)      D2        DX        DY        DZ
                      (eV)      (cm-1)    (nm)                 (au**2)    (au)      (au)      (au)
----------------------------------------------------------------------------------------------------
  1-3A  ->  2-3A    0.021704     175.1  57124.0   0.000000231   0.00043   0.01604   0.00496  -0.01233
  1-3A  ->  3-1A    1.921088   15494.6   645.4   0.003114507   0.06617  -0.17592   0.15730  -0.10238

Dispersion correction             ... done (  0.1 sec)

MULLIKEN ATOMIC CHARGES AND SPIN DENSITIES
------------------------------------------
   0 O :   -0.647583    0.128759
   1 O :   -0.708147   -0.163747
   2 O :   -0.633105    0.000895
   3 O :   -0.670369   -0.002011
   4 N :   -0.197685    0.010739
   5 N :   -0.365923   -0.001192
   6 N :    0.013236    0.010503
   7 N :    0.034523   -0.005059
   8 C :    0.217162    0.440762
   9 C :    1.398209    0.587352
  10 C :    0.352146    0.052121
  11 C :    0.110347   -0.488348
  12 C :   -1.362057    0.023503
  13 C :   -1.410088    0.083125
  14 C :    0.380011   -0.027341
  15 C :   -0.282678   -0.694016
  16 C :    0.353063   -0.002789
  17 C :    0.486603    0.031460
  18 H :    0.458086    0.013711
  19 H :    0.523179   -0.015670
  20 H :    0.338949    0.021806
  21 H :    0.232522    0.029899
  22 H :    0.336507   -0.002505
  23 H :    0.340726   -0.028882
  24 H :    0.327730    0.009163
  25 H :    0.292965   -0.015896
  26 H :    0.007467    0.000621
  27 H :    0.078676   -0.000209
  28 H :    0.022683   -0.000716
  29 H :   -0.027154    0.003963
Sum of atomic charges       :   -0.0000000

LOEWDIN ATOMIC CHARGES AND SPIN DENSITIES
-----------------------------------------
   0 O :    0.114545    0.111920
   1 O :    0.101880   -0.146174
   2 O :    0.096459    0.000801
   3 O :    0.082650   -0.001143
   4 N :    0.298401   -0.004079
   5 N :    0.255117   -0.003488
   6 N :    0.341840    0.011282
   7 N :    0.341407   -0.011875
   8 C :   -0.052038    0.422259
   9 C :   -0.031845   -0.386322
  10 C :   -0.084088    0.020588
  11 C :   -0.100988   -0.009100
  12 C :    0.168101    0.072576
  13 C :    0.195829   -0.056807
  14 C :   -0.413284    0.058026
  15 C :   -0.451382   -0.080803
  16 C :   -0.466101   -0.001032
  17 C :   -0.481857    0.000660
  18 H :    0.058500    0.003999
  19 H :    0.082223   -0.001290
  20 H :    0.007202    0.016266
  21 H :   -0.035948    0.018571
  22 H :    0.049518   -0.000316
  23 H :    0.051619   -0.024029
  24 H :    0.002414   -0.005469
  25 H :   -0.020163   -0.003411
  26 H :   -0.069047   -0.000144
  27 H :   -0.014712   -0.000925
  28 H :   -0.006730    0.000820
  29 H :   -0.019525   -0.001360

  Mayer bond orders larger than 0.100000
B(  0-O , 14-C ) :   1.4653 B(  1-O , 15-C ) :   1.3430 B(  2-O , 16-C ) :   1.5228
B(  3-O , 17-C ) :   1.5398 B(  4-N ,  5-N ) :   0.1515 B(  4-N ,  8-C ) :   0.2613
B(  4-N , 10-C ) :   0.2017 B(  4-N , 11-C ) :  -0.1477 B(  4-N , 16-C ) :   1.0758
B(  4-N , 26-H ) :   1.1113 B(  5-N ,  9-C ) :   0.2400 B(  5-N , 15-C ) :   0.1079
B(  5-N , 17-C ) :   1.0565 B(  5-N , 27-H ) :   1.0888 B(  6-N , 10-C ) :   0.1385
B(  6-N , 14-C ) :   1.0029 B(  6-N , 16-C ) :   0.9307 B(  6-N , 28-H ) :   1.1135
B(  7-N , 11-C ) :   0.1235 B(  7-N , 15-C ) :   0.9217 B(  7-N , 17-C ) :   0.9658
B(  7-N , 29-H ) :   1.1492 B(  8-C ,  9-C ) :   0.2182 B(  8-C , 10-C ) :   0.1917
B(  8-C , 12-C ) :   0.2268 B(  8-C , 14-C ) :   0.9005 B(  8-C , 16-C ) :   0.1533
B(  8-C , 18-H ) :  -0.1227 B(  8-C , 22-H ) :  -0.1535 B(  9-C , 13-C ) :   0.4127
B(  9-C , 15-C ) :  -0.1485 B(  9-C , 19-H ) :  -0.1039 B(  9-C , 24-H ) :  -0.1323
B(  9-C , 25-H ) :  -0.1229 B( 10-C , 11-C ) :   0.5004 B( 10-C , 14-C ) :  -0.1693
B( 10-C , 16-C ) :  -0.1605 B( 10-C , 18-H ) :   0.8755 B( 11-C , 13-C ) :  -0.1219
B( 11-C , 17-C ) :  -0.1086 B( 11-C , 19-H ) :   0.8509 B( 12-C , 14-C ) :   0.1063
B( 12-C , 20-H ) :   0.9145 B( 12-C , 21-H ) :   0.9502 B( 12-C , 22-H ) :   1.0470
B( 13-C , 23-H ) :   0.8029 B( 13-C , 24-H ) :   0.9626 B( 13-C , 25-H ) :   1.0940
B( 15-C , 17-C ) :  -0.1077

Dispersion correction           -0.059409405
FINAL SINGLE POINT ENERGY      -908.770457516455

DIPOLE MOMENT
-------------

Method             : TDA/CIS
Type of density    : Electron Density
Level              : Relaxed density
State              :   2
Multiplicity       :   3
Irrep              :   0
Energy             :     0.0000000000000000 Eh
Relativity type    :
Basis              : AO
                                X                 Y                 Z
Electronic contribution:     -2.303790335     -10.870385439      -7.429683403
Nuclear contribution   :      2.510337875      12.304842905      10.244621666
                        -----------------------------------------
Total Dipole Moment    :      0.206547539       1.434457466       2.814938263
                        -----------------------------------------
Magnitude (a.u.)       :      3.166102893
Magnitude (Debye)      :      8.047594002

Rotational constants in cm-1:             0.018988             0.015942             0.012537
Rotational constants in MHz :           569.259808           477.927946           375.840254

                             ****ORCA TERMINATED NORMALLY****
TOTAL RUN TIME: 0 days 0 hours 5 minutes 4 seconds 180 msec
