                         Program Version 6.0.0  -   RELEASE  -
|  1> ! Engrad def2-TZVPPD wB97M-D3BJ
|  2> %pal nprocs 8 end%pal nprocs 64 end
|  3> %tddft Nroots 2 Iroot 2
|  4> sf true
|  5> end
|  6> *xyz 0 3
|  7> O   2.39468157 1.34819623 -0.52429212
|  8> O   -0.55367028 0.94006482 -2.18148355
|  9> O   0.5871716 -2.63543864 -1.66699286
| 10> O   -2.59479849 -1.70935303 0.92862368
| 11> N   0.646568 -2.09739721 0.55227087
| 12> N   -2.14938277 0.43284454 1.43358306
| 13> N   1.79030499 -0.8163456 -1.02555175
| 14> N   -1.69589196 -0.2974105 -0.68741987
| 15> C   1.64954892 -0.03505388 1.19810464
| 16> C   -0.84508595 1.89189059 -0.04803693
| 17> C   0.92819141 -1.18214181 1.50601785
| 18> C   -1.47746364 1.58427306 1.21017466
| 19> C   2.01115018 1.03617674 2.19158942
| 20> C   -0.1687287 3.18432299 -0.26507952
| 21> C   1.93707241 0.26796109 -0.14516886
| 22> C   -1.06602418 0.90040992 -1.06833915
| 23> C   0.9571476 -1.90855479 -0.7837667
| 24> C   -2.22000986 -0.60222871 0.55077027
| 25> H   0.45296802 -1.4959852 2.46708209
| 26> H   -1.45401243 2.25517742 2.00965875
| 27> H   2.07900531 1.98099372 1.68974236
| 28> H   1.37431428 0.9278288 3.0619477
| 29> H   3.08040691 0.88901505 2.49973731
| 30> H   -0.7359293 3.71452978 -0.98804142
| 31> H   -0.04117554 3.65276117 0.65514399
| 32> H   0.83870452 2.96696528 -0.51359712
| 33> H   -0.01763968 -2.85842041 0.77176923
| 34> H   -2.51058438 0.26046907 2.28828408
| 35> H   1.91231453 -0.73922501 -2.04805085
| 36> H   -1.62421448 -1.09107201 -1.35364694
| 37> *
| 38>
| 39>                          ****END OF INPUT****

CARTESIAN COORDINATES (ANGSTROEM)
---------------------------------
  O      2.394682    1.348196   -0.524292
  O     -0.553670    0.940065   -2.181484
  O      0.587172   -2.635439   -1.666993
  O     -2.594798   -1.709353    0.928624
  N      0.646568   -2.097397    0.552271
  N     -2.149383    0.432845    1.433583
  N      1.790305   -0.816346   -1.025552
  N     -1.695892   -0.297411   -0.687420
  C      1.649549   -0.035054    1.198105
  C     -0.845086    1.891891   -0.048037
  C      0.928191   -1.182142    1.506018
  C     -1.477464    1.584273    1.210175
  C      2.011150    1.036177    2.191589
  C     -0.168729    3.184323   -0.265080
  C      1.937072    0.267961   -0.145169
  C     -1.066024    0.900410   -1.068339
  C      0.957148   -1.908555   -0.783767
  C     -2.220010   -0.602229    0.550770
  H      0.452968   -1.495985    2.467082
  H     -1.454012    2.255177    2.009659
  H      2.079005    1.980994    1.689742
  H      1.374314    0.927829    3.061948
  H      3.080407    0.889015    2.499737
  H     -0.735929    3.714530   -0.988041
  H     -0.041176    3.652761    0.655144
  H      0.838705    2.966965   -0.513597
  H     -0.017640   -2.858420    0.771769
  H     -2.510584    0.260469    2.288284
  H      1.912315   -0.739225   -2.048051
  H     -1.624214   -1.091072   -1.353647

 Total Charge           Charge          ....    0
 Multiplicity           Mult            ....    3
 Number of Electrons    NEL             ....  132
 Basis Dimension        Dim             ....  882

ORBITAL ENERGIES
----------------
                 SPIN UP ORBITALS
  NO   OCC          E(Eh)            E(eV)
   0   1.0000     -19.334612      -526.1215
   1   1.0000     -19.324506      -525.8465
   2   1.0000     -19.323542      -525.8203
   3   1.0000     -19.315377      -525.5981
   4   1.0000     -14.586391      -396.9159
   5   1.0000     -14.584056      -396.8523
   6   1.0000     -14.564259      -396.3136
   7   1.0000     -14.560649      -396.2154
   8   1.0000     -10.514172      -286.1052
   9   1.0000     -10.507714      -285.9294
  10   1.0000     -10.472586      -284.9736
  11   1.0000     -10.463062      -284.7144
  12   1.0000     -10.444502      -284.2093
  13   1.0000     -10.413891      -283.3764
  14   1.0000     -10.400552      -283.0134
  15   1.0000     -10.379546      -282.4418
  16   1.0000     -10.356726      -281.8209
  17   1.0000     -10.348599      -281.5997
  18   1.0000      -1.227203       -33.3939
  19   1.0000      -1.223279       -33.2871
  20   1.0000      -1.188458       -32.3396
  21   1.0000      -1.178976       -32.0816
  22   1.0000      -1.128953       -30.7204
  23   1.0000      -1.123577       -30.5741
  24   1.0000      -1.064536       -28.9675
  25   1.0000      -1.060453       -28.8564
  26   1.0000      -0.968500       -26.3542
  27   1.0000      -0.949069       -25.8255
  28   1.0000      -0.860173       -23.4065
  29   1.0000      -0.846246       -23.0275
  30   1.0000      -0.819666       -22.3042
  31   1.0000      -0.812584       -22.1115
  32   1.0000      -0.795905       -21.6577
  33   1.0000      -0.778454       -21.1828
  34   1.0000      -0.704850       -19.1800
  35   1.0000      -0.691087       -18.8054
  36   1.0000      -0.689949       -18.7745
  37   1.0000      -0.683138       -18.5891
  38   1.0000      -0.643804       -17.5188
  39   1.0000      -0.631541       -17.1851
  40   1.0000      -0.627321       -17.0703
  41   1.0000      -0.602118       -16.3845
  42   1.0000      -0.598065       -16.2742
  43   1.0000      -0.593057       -16.1379
  44   1.0000      -0.583054       -15.8657
  45   1.0000      -0.568543       -15.4709
  46   1.0000      -0.563013       -15.3204
  47   1.0000      -0.556749       -15.1499
  48   1.0000      -0.550617       -14.9831
  49   1.0000      -0.540145       -14.6981
  50   1.0000      -0.531699       -14.4683
  51   1.0000      -0.529717       -14.4143
  52   1.0000      -0.516700       -14.0601
  53   1.0000      -0.506712       -13.7883
  54   1.0000      -0.500291       -13.6136
  55   1.0000      -0.496355       -13.5065
  56   1.0000      -0.490075       -13.3356
  57   1.0000      -0.475150       -12.9295
  58   1.0000      -0.422893       -11.5075
  59   1.0000      -0.418738       -11.3944
  60   1.0000      -0.409292       -11.1374
  61   1.0000      -0.394594       -10.7375
  62   1.0000      -0.388732       -10.5779
  63   1.0000      -0.382341       -10.4040
  64   1.0000      -0.378964       -10.3121
  65   1.0000      -0.335274        -9.1233
  66   1.0000      -0.224812        -6.1174
  67   0.0000       0.010837         0.2949
  68   0.0000       0.013800         0.3755
  69   0.0000       0.031415         0.8549
  70   0.0000       0.039645         1.0788
  71   0.0000       0.041954         1.1416

                 SPIN DOWN ORBITALS
  NO   OCC          E(Eh)            E(eV)
   0   1.0000     -19.332665      -526.0686
   1   1.0000     -19.324462      -525.8453
   2   1.0000     -19.316622      -525.6320
   3   1.0000     -19.315367      -525.5979
   4   1.0000     -14.583944      -396.8493
   5   1.0000     -14.582520      -396.8105
   6   1.0000     -14.564278      -396.3141
   7   1.0000     -14.559723      -396.1902
   8   1.0000     -10.514321      -286.1092
   9   1.0000     -10.507714      -285.9294
  10   1.0000     -10.472587      -284.9736
  11   1.0000     -10.463157      -284.7170
  12   1.0000     -10.444269      -284.2030
  13   1.0000     -10.404221      -283.1133
  14   1.0000     -10.389807      -282.7210
  15   1.0000     -10.379571      -282.4425
  16   1.0000     -10.356676      -281.8195
  17   1.0000     -10.348907      -281.6081
  18   1.0000      -1.224744       -33.3270
  19   1.0000      -1.220996       -33.2250
  20   1.0000      -1.180131       -32.1130
  21   1.0000      -1.177298       -32.0359
  22   1.0000      -1.123365       -30.5683
  23   1.0000      -1.119550       -30.4645
  24   1.0000      -1.060665       -28.8622
  25   1.0000      -1.059297       -28.8249
  26   1.0000      -0.949989       -25.8505
  27   1.0000      -0.945196       -25.7201
  28   1.0000      -0.847767       -23.0689
  29   1.0000      -0.845940       -23.0192
  30   1.0000      -0.812993       -22.1227
  31   1.0000      -0.808458       -21.9993
  32   1.0000      -0.788505       -21.4563
  33   1.0000      -0.778323       -21.1793
  34   1.0000      -0.697358       -18.9761
  35   1.0000      -0.689982       -18.7754
  36   1.0000      -0.682911       -18.5829
  37   1.0000      -0.678636       -18.4666
  38   1.0000      -0.636236       -17.3129
  39   1.0000      -0.629325       -17.1248
  40   1.0000      -0.620296       -16.8791
  41   1.0000      -0.592664       -16.1272
  42   1.0000      -0.592300       -16.1173
  43   1.0000      -0.588783       -16.0216
  44   1.0000      -0.569803       -15.5051
  45   1.0000      -0.563044       -15.3212
  46   1.0000      -0.561439       -15.2775
  47   1.0000      -0.555504       -15.1160
  48   1.0000      -0.544996       -14.8301
  49   1.0000      -0.532501       -14.4901
  50   1.0000      -0.523883       -14.2556
  51   1.0000      -0.518500       -14.1091
  52   1.0000      -0.511030       -13.9058
  53   1.0000      -0.502600       -13.6764
  54   1.0000      -0.496744       -13.5171
  55   1.0000      -0.487685       -13.2706
  56   1.0000      -0.474706       -12.9174
  57   1.0000      -0.452222       -12.3056
  58   1.0000      -0.419018       -11.4021
  59   1.0000      -0.416773       -11.3410
  60   1.0000      -0.394867       -10.7449
  61   1.0000      -0.384200       -10.4546
  62   1.0000      -0.381989       -10.3944
  63   1.0000      -0.378611       -10.3025
  64   1.0000      -0.335442        -9.1278
  65   0.0000      -0.094768        -2.5788
  66   0.0000       0.011479         0.3124
  67   0.0000       0.013933         0.3791
  68   0.0000       0.029536         0.8037
  69   0.0000       0.037656         1.0247

----------------------------------------------------------------------------------------------------
          SPIN FLIP ABSORPTION SPECTRUM VIA TRANSITION ELECTRIC DIPOLE MOMENTS
----------------------------------------------------------------------------------------------------
     Transition      Energy     Energy  Wavelength fosc(D2)      D2        DX        DY        DZ
                      (eV)      (cm-1)    (nm)                 (au**2)    (au)      (au)      (au)
----------------------------------------------------------------------------------------------------
  1-3A  ->  2-3A    3.493289   28175.3   354.9   0.001100330   0.01286   0.01985  -0.05018  -0.09973

Dispersion correction             ... done (  0.1 sec)

MULLIKEN ATOMIC CHARGES AND SPIN DENSITIES
------------------------------------------
   0 O :   -0.720169    0.000166
   1 O :   -0.654608    0.010983
   2 O :   -0.624085    0.000003
   3 O :   -0.659039   -0.000378
   4 N :   -0.026959   -0.000282
   5 N :    0.086376    0.018572
   6 N :   -0.008498   -0.003087
   7 N :   -0.023014   -0.006386
   8 C :    0.612218   -0.025178
   9 C :    1.069541    0.063417
  10 C :   -0.000513    0.002930
  11 C :   -0.317975    0.090409
  12 C :   -1.383653   -0.007432
  13 C :   -1.297291   -0.032620
  14 C :    0.484584    0.022710
  15 C :    0.213838   -0.159142
  16 C :    0.262539   -0.000443
  17 C :    0.471668   -0.000145
  18 H :    0.149905    0.001113
  19 H :    0.161905   -0.006933
  20 H :    0.277688    0.004365
  21 H :    0.363664   -0.001877
  22 H :    0.341044   -0.001415
  23 H :    0.381047    0.008967
  24 H :    0.337857   -0.000976
  25 H :    0.262002    0.017497
  26 H :    0.112849    0.000573
  27 H :   -0.076132    0.004113
  28 H :    0.111349   -0.000670
  29 H :    0.091863    0.001146
Sum of atomic charges       :    0.0000000

LOEWDIN ATOMIC CHARGES AND SPIN DENSITIES
-----------------------------------------
   0 O :    0.056299   -0.000762
   1 O :    0.074850    0.007925
   2 O :    0.093081   -0.000009
   3 O :    0.070683   -0.000979
   4 N :    0.251753   -0.000195
   5 N :    0.316641    0.012159
   6 N :    0.340241   -0.000046
   7 N :    0.306494   -0.005930
   8 C :   -0.140352   -0.000395
   9 C :   -0.045955    0.007055
  10 C :    0.063371   -0.000291
  11 C :    0.070987   -0.004967
  12 C :    0.178796   -0.000702
  13 C :    0.244127    0.001511
  14 C :   -0.418781   -0.000257
  15 C :   -0.417927   -0.006823
  16 C :   -0.487130   -0.000068
  17 C :   -0.462885   -0.003756
  18 H :    0.065597   -0.000020
  19 H :   -0.032432   -0.005542
  20 H :   -0.035459   -0.000042
  21 H :   -0.014567   -0.000439
  22 H :    0.021851   -0.000123
  23 H :    0.007441    0.000720
  24 H :   -0.033614   -0.000166
  25 H :   -0.030959    0.000809
  26 H :    0.011194   -0.000026
  27 H :   -0.081049    0.001971
  28 H :    0.017458   -0.000042
  29 H :    0.010249   -0.000571

  Mayer bond orders larger than 0.100000
B(  0-O , 14-C ) :   1.3385 B(  1-O , 15-C ) :   1.2605 B(  2-O , 16-C ) :   1.5435
B(  3-O , 17-C ) :   1.5106 B(  4-N , 10-C ) :   0.9300 B(  4-N , 16-C ) :   0.9949
B(  4-N , 26-H ) :   1.0762 B(  5-N , 11-C ) :   0.9267 B(  5-N , 17-C ) :   0.9871
B(  5-N , 27-H ) :   1.1912 B(  6-N , 14-C ) :   0.8503 B(  6-N , 16-C ) :   1.0133
B(  6-N , 28-H ) :   1.0087 B(  7-N , 15-C ) :   0.8804 B(  7-N , 17-C ) :   0.9777
B(  7-N , 29-H ) :   1.0761 B(  8-C , 10-C ) :   1.0844 B(  8-C , 12-C ) :   0.4564
B(  8-C , 14-C ) :   0.8371 B(  8-C , 20-H ) :  -0.1007 B(  9-C , 11-C ) :   0.4822
B(  9-C , 13-C ) :   0.4673 B(  9-C , 15-C ) :   0.9821 B(  9-C , 19-H ) :  -0.1026
B(  9-C , 24-H ) :  -0.1269 B( 10-C , 18-H ) :   1.0677 B( 11-C , 19-H ) :   1.1355
B( 12-C , 20-H ) :   0.9673 B( 12-C , 21-H ) :   0.9113 B( 12-C , 22-H ) :   0.9368
B( 13-C , 23-H ) :   0.8051 B( 13-C , 24-H ) :   1.0462 B( 13-C , 25-H ) :   0.9305

Dispersion correction           -0.058594767
FINAL SINGLE POINT ENERGY      -908.749564974531

DIPOLE MOMENT
-------------

Method             : TDA/CIS
Type of density    : Electron Density
Level              : Relaxed density
State              :   2
Multiplicity       :   3
Irrep              :   0
Energy             :     0.0000000000000000 Eh
Relativity type    :
Basis              : AO
                                X                 Y                 Z
Electronic contribution:     -3.496003831      -9.192202495      -6.816873965
Nuclear contribution   :      3.070209152       9.751143328       9.319875705
                        -----------------------------------------
Total Dipole Moment    :     -0.425794679       0.558940834       2.503001740
                        -----------------------------------------
Magnitude (a.u.)       :      2.599756465
Magnitude (Debye)      :      6.608055782

Rotational constants in cm-1:             0.017001             0.016327             0.013156
Rotational constants in MHz :           509.684521           489.481657           394.411005

                             ****ORCA TERMINATED NORMALLY****
TOTAL RUN TIME: 0 days 0 hours 5 minutes 52 seconds 379 msec
