                         Program Version 6.0.0  -   RELEASE  -
|  1> ! Opt wB97M-D3BJ def2-TZVPPD
|  2> %pal nprocs 8 end %pal nprocs 64 end
|  3> %geom
|  4> Constraints
|  5>     {A 2 1 0 78.18181818181819 C }
|  6> end
|  7> MaxIter 500
|  8> end
|  9> *xyz 0 1
| 10> O   -0.0007 0.8141 0.0
| 11> C   0.7509 -0.4065 0.0
| 12> C   -0.7502 -0.4076 0.0
| 13> H   1.2625 -0.6786 0.9136
| 14> H   1.2625 -0.6787 -0.9136
| 15> H   -1.2614 -0.6806 -0.9136
| 16> H   -1.2614 -0.6805 0.9136
| 17> *
| 18>
| 19>                          ****END OF INPUT****
 Total Charge           Charge          ....    0
 Multiplicity           Mult            ....    1
 Number of Electrons    NEL             ....   24
Dispersion correction           -0.005317404
FINAL SINGLE POINT ENERGY      -153.845607473667
Dispersion correction             ... done (  0.1 sec)
Dispersion correction           -0.005290030
FINAL SINGLE POINT ENERGY      -153.853317596009
Dispersion correction             ... done (  0.2 sec)
Dispersion correction           -0.005286832
FINAL SINGLE POINT ENERGY      -153.855953936914
Dispersion correction             ... done (  0.1 sec)
FINAL SINGLE POINT ENERGY      -153.856434859644
FINAL SINGLE POINT ENERGY      -153.856574834212
FINAL SINGLE POINT ENERGY      -153.856612635731
Dispersion correction             ... done (  0.1 sec)
Dispersion correction           -0.005296593
FINAL SINGLE POINT ENERGY      -153.856620313176
Dispersion correction             ... done (  0.1 sec)
Dispersion correction           -0.005297020
FINAL SINGLE POINT ENERGY      -153.856622776667
Dispersion correction             ... done (  0.2 sec)
                    ***********************HURRAY********************

CARTESIAN COORDINATES (ANGSTROEM)
---------------------------------
  O      0.167405    0.897862   -0.000590
  C      0.664980   -0.359499   -0.000040
  C     -0.730669   -0.599867    0.000076
  H      1.220647   -0.648577    0.895707
  H      1.220510   -0.648849   -0.895788
  H     -1.270581   -0.680875   -0.928000
  H     -1.270093   -0.678597    0.928636

 Multiplicity           Mult            ....    1
 Number of Electrons    NEL             ....   24
 Basis Dimension        Dim             ....  182

ORBITAL ENERGIES
----------------

  NO   OCC          E(Eh)            E(eV)
   0   2.0000     -19.344509      -526.3909
   1   2.0000     -10.415386      -283.4171
   2   2.0000     -10.396569      -282.9050
   3   2.0000      -1.166640       -31.7459
   4   2.0000      -0.845192       -22.9988
   5   2.0000      -0.739646       -20.1268
   6   2.0000      -0.627463       -17.0741
   7   2.0000      -0.587151       -15.9772
   8   2.0000      -0.505298       -13.7499
   9   2.0000      -0.499380       -13.5888
  10   2.0000      -0.407820       -11.0974
  11   2.0000      -0.373117       -10.1530
  12   0.0000       0.030397         0.8272
  13   0.0000       0.046785         1.2731
  14   0.0000       0.060914         1.6576
  15   0.0000       0.076845         2.0911
  16   0.0000       0.102874         2.7994

MULLIKEN ATOMIC CHARGES
-----------------------
   0 O :   -0.436490
   1 C :   -0.096120
   2 C :   -0.291702
   3 H :    0.206974
   4 H :    0.206949
   5 H :    0.205103
   6 H :    0.205286
Sum of atomic charges:    0.0000000

LOEWDIN ATOMIC CHARGES
----------------------
   0 O :   -0.024516
   1 C :   -0.256148
   2 C :    0.236224
   3 H :    0.024429
   4 H :    0.024431
   5 H :   -0.002201
   6 H :   -0.002220

  Mayer bond orders larger than 0.100000
B(  0-O ,  1-C ) :   0.6923 B(  0-O ,  2-C ) :   0.9290 B(  1-C ,  2-C ) :   0.7798
B(  1-C ,  3-H ) :   1.0506 B(  1-C ,  4-H ) :   1.0504 B(  2-C ,  5-H ) :   0.9739
B(  2-C ,  6-H ) :   0.9739

Dispersion correction           -0.005297133
FINAL SINGLE POINT ENERGY      -153.856623790799

DIPOLE MOMENT
-------------

Method             : SCF
Type of density    : Electron Density
Multiplicity       :   1
Irrep              :   0
Energy             :  -153.8513266577286345 Eh
Relativity type    :
Basis              : AO
                                X                 Y                 Z
Electronic contribution:      0.026424444       1.502330788      -0.000823873
Nuclear contribution   :     -0.243889094      -2.493368353       0.001234663
                        -----------------------------------------
Total Dipole Moment    :     -0.217464650      -0.991037565       0.000410790
                        -----------------------------------------
Magnitude (a.u.)       :      1.014616429
Magnitude (Debye)      :      2.578950010

Rotational constants in cm-1:             0.949603             0.604977             0.433276
Rotational constants in MHz :         28468.369649         18136.748595         12989.272979

                             ****ORCA TERMINATED NORMALLY****
TOTAL RUN TIME: 0 days 0 hours 2 minutes 1 seconds 769 msec
