                         Program Version 6.0.0  -   RELEASE  -
|  1> ! Opt wB97M-D3BJ def2-TZVPPD
|  2> %pal nprocs 8 end %pal nprocs 64 end
|  3> %geom
|  4> Constraints
|  5>     {A 2 1 0 85.45454545454545 C }
|  6> end
|  7> MaxIter 500
|  8> end
|  9> *xyz 0 1
| 10> O   -0.0007 0.8141 0.0
| 11> C   0.7509 -0.4065 0.0
| 12> C   -0.7502 -0.4076 0.0
| 13> H   1.2625 -0.6786 0.9136
| 14> H   1.2625 -0.6787 -0.9136
| 15> H   -1.2614 -0.6806 -0.9136
| 16> H   -1.2614 -0.6805 0.9136
| 17> *
| 18>
| 19>                          ****END OF INPUT****
 Total Charge           Charge          ....    0
 Multiplicity           Mult            ....    1
 Number of Electrons    NEL             ....   24
Dispersion correction           -0.005467522
FINAL SINGLE POINT ENERGY      -153.816244561846
Dispersion correction             ... done (  0.1 sec)
Dispersion correction           -0.005505008
FINAL SINGLE POINT ENERGY      -153.830753152674
Dispersion correction             ... done (  0.1 sec)
Dispersion correction           -0.005530839
FINAL SINGLE POINT ENERGY      -153.835772358958
Dispersion correction             ... done (  0.1 sec)
FINAL SINGLE POINT ENERGY      -153.837125736944
FINAL SINGLE POINT ENERGY      -153.837456559394
FINAL SINGLE POINT ENERGY      -153.837570400640
FINAL SINGLE POINT ENERGY      -153.837609604400
FINAL SINGLE POINT ENERGY      -153.837624973349
Dispersion correction             ... done (  0.1 sec)
Dispersion correction           -0.005549147
FINAL SINGLE POINT ENERGY      -153.837632939389
Dispersion correction             ... done (  0.1 sec)
Dispersion correction           -0.005549350
FINAL SINGLE POINT ENERGY      -153.837636020047
Dispersion correction             ... done (  0.1 sec)
                    ***********************HURRAY********************

CARTESIAN COORDINATES (ANGSTROEM)
---------------------------------
  O      0.239908    0.947962   -0.001538
  C      0.648154   -0.332598   -0.000311
  C     -0.734361   -0.655258    0.000399
  H      1.205690   -0.642970    0.890499
  H      1.205875   -0.644363   -0.890469
  H     -1.281964   -0.696931   -0.927055
  H     -1.281103   -0.694242    0.928474

 Multiplicity           Mult            ....    1
 Number of Electrons    NEL             ....   24
 Basis Dimension        Dim             ....  182

ORBITAL ENERGIES
----------------

  NO   OCC          E(Eh)            E(eV)
   0   2.0000     -19.340169      -526.2727
   1   2.0000     -10.425131      -283.6822
   2   2.0000     -10.396754      -282.9101
   3   2.0000      -1.152123       -31.3509
   4   2.0000      -0.859689       -23.3933
   5   2.0000      -0.736203       -20.0331
   6   2.0000      -0.626018       -17.0348
   7   2.0000      -0.582486       -15.8502
   8   2.0000      -0.511971       -13.9314
   9   2.0000      -0.504618       -13.7314
  10   2.0000      -0.393472       -10.7069
  11   2.0000      -0.366668        -9.9776
  12   0.0000       0.000323         0.0088
  13   0.0000       0.041616         1.1324
  14   0.0000       0.060713         1.6521
  15   0.0000       0.076675         2.0864
  16   0.0000       0.099015         2.6943

MULLIKEN ATOMIC CHARGES
-----------------------
   0 O :   -0.468156
   1 C :   -0.083647
   2 C :   -0.310077
   3 H :    0.215082
   4 H :    0.215122
   5 H :    0.215791
   6 H :    0.215886
Sum of atomic charges:    0.0000000

LOEWDIN ATOMIC CHARGES
----------------------
   0 O :   -0.019550
   1 C :   -0.319999
   2 C :    0.300892
   3 H :    0.024760
   4 H :    0.024761
   5 H :   -0.005429
   6 H :   -0.005435

  Mayer bond orders larger than 0.100000
B(  0-O ,  1-C ) :   0.6684 B(  0-O ,  2-C ) :   0.9476 B(  1-C ,  2-C ) :   0.7672
B(  1-C ,  3-H ) :   1.0504 B(  1-C ,  4-H ) :   1.0502 B(  2-C ,  5-H ) :   0.9652
B(  2-C ,  6-H ) :   0.9652

Dispersion correction           -0.005549184
FINAL SINGLE POINT ENERGY      -153.837636735425

DIPOLE MOMENT
-------------

Method             : SCF
Type of density    : Electron Density
Multiplicity       :   1
Irrep              :   0
Energy             :  -153.8320875514565387 Eh
Relativity type    :
Basis              : AO
                                X                 Y                 Z
Electronic contribution:      0.046059480       1.452028138      -0.002000626
Nuclear contribution   :     -0.365232456      -2.550323021       0.003225299
                        -----------------------------------------
Total Dipole Moment    :     -0.319172976      -1.098294883       0.001224673
                        -----------------------------------------
Magnitude (a.u.)       :      1.143732721
Magnitude (Debye)      :      2.907137543

Rotational constants in cm-1:             1.015136             0.539383             0.409245
Rotational constants in MHz :         30433.025676         16170.289805         12268.844585

                             ****ORCA TERMINATED NORMALLY****
TOTAL RUN TIME: 0 days 0 hours 2 minutes 30 seconds 653 msec
