                         Program Version 6.0.0  -   RELEASE  -
|  1> ! Engrad wB97M-D3BJ def2-TZVPPD
|  2> %pal nprocs 8 end%pal nprocs 16 end
|  3> %tddft nroots 2 Iroot 1
|  4>  sf true
|  5> end
|  6> *xyz 0 3
|  7> O   0.6446118935491 0.99327037682721 -0.00031022393326
|  8> C   0.7594481409889 -0.34069788158439 -0.00011399732535
|  9> C   -0.64965963440991 -0.58928814582652 0.0001121574615
| 10> H   1.26835007779561 -0.748682799411 0.88445258657745
| 11> H   1.26816754953962 -0.74915185730661 -0.88456854166392
| 12> H   -1.20573925994271 -0.53835580653038 -0.92479327942435
| 13> H   -1.20538006208378 -0.53819639466963 0.92522129830793
| 14> *
| 15>
| 16>                          ****END OF INPUT****

CARTESIAN COORDINATES (ANGSTROEM)
---------------------------------
  O      0.644612    0.993270   -0.000310
  C      0.759448   -0.340698   -0.000114
  C     -0.649660   -0.589288    0.000112
  H      1.268350   -0.748683    0.884453
  H      1.268168   -0.749152   -0.884569
  H     -1.205739   -0.538356   -0.924793
  H     -1.205380   -0.538196    0.925221

 Total Charge           Charge          ....    0
 Multiplicity           Mult            ....    3
 Number of Electrons    NEL             ....   24
 Basis Dimension        Dim             ....  182

ORBITAL ENERGIES
----------------
                 SPIN UP ORBITALS
  NO   OCC          E(Eh)            E(eV)
   0   1.0000     -19.401387      -527.9386
   1   1.0000     -10.406753      -283.1821
   2   1.0000     -10.344516      -281.4886
   3   1.0000      -1.203336       -32.7444
   4   1.0000      -0.870646       -23.6915
   5   1.0000      -0.737876       -20.0786
   6   1.0000      -0.639860       -17.4115
   7   1.0000      -0.601109       -16.3570
   8   1.0000      -0.552991       -15.0476
   9   1.0000      -0.510502       -13.8915
  10   1.0000      -0.445660       -12.1270
  11   1.0000      -0.430876       -11.7247
  12   1.0000      -0.291735        -7.9385
  13   0.0000       0.041156         1.1199
  14   0.0000       0.063582         1.7301
  15   0.0000       0.073309         1.9948
  16   0.0000       0.086423         2.3517
  17   0.0000       0.117324         3.1926

                 SPIN DOWN ORBITALS
  NO   OCC          E(Eh)            E(eV)
   0   1.0000     -19.374328      -527.2023
   1   1.0000     -10.408006      -283.2162
   2   1.0000     -10.331772      -281.1418
   3   1.0000      -1.145150       -31.1611
   4   1.0000      -0.836665       -22.7668
   5   1.0000      -0.715397       -19.4669
   6   1.0000      -0.599006       -16.2998
   7   1.0000      -0.565892       -15.3987
   8   1.0000      -0.530585       -14.4380
   9   1.0000      -0.475488       -12.9387
  10   1.0000      -0.386610       -10.5202
  11   0.0000      -0.070365        -1.9147
  12   0.0000       0.021390         0.5821
  13   0.0000       0.039882         1.0852
  14   0.0000       0.064273         1.7490
  15   0.0000       0.072460         1.9717

----------------------------------------------------------------------------------------------------
          SPIN FLIP ABSORPTION SPECTRUM VIA TRANSITION ELECTRIC DIPOLE MOMENTS
----------------------------------------------------------------------------------------------------
     Transition      Energy     Energy  Wavelength fosc(D2)      D2        DX        DY        DZ
                      (eV)      (cm-1)    (nm)                 (au**2)    (au)      (au)      (au)
----------------------------------------------------------------------------------------------------
  1-3A  ->  2-3A    1.759992   14195.3   704.5   0.000424016   0.00983  -0.00005  -0.00003  -0.09916

Dispersion correction             ... done (  0.0 sec)

MULLIKEN ATOMIC CHARGES AND SPIN DENSITIES
------------------------------------------
   0 O :   -0.534228   -0.242396
   1 C :   -0.134218   -0.048625
   2 C :   -0.286002    0.157631
   3 H :    0.234917    0.037152
   4 H :    0.234914    0.037156
   5 H :    0.242318    0.029535
   6 H :    0.242298    0.029547
Sum of atomic charges       :    0.0000000

LOEWDIN ATOMIC CHARGES AND SPIN DENSITIES
-----------------------------------------
   0 O :   -0.057121   -0.258678
   1 C :   -0.376853    0.007024
   2 C :    0.381539    0.197782
   3 H :    0.029023    0.006472
   4 H :    0.029022    0.006471
   5 H :   -0.002804    0.020464
   6 H :   -0.002807    0.020466

  Mayer bond orders larger than 0.100000
B(  0-O ,  1-C ) :   0.7531 B(  0-O ,  2-C ) :   0.8248 B(  1-C ,  2-C ) :   0.7769
B(  1-C ,  3-H ) :   1.0225 B(  1-C ,  4-H ) :   1.0225 B(  2-C ,  5-H ) :   0.9407
B(  2-C ,  6-H ) :   0.9407

Dispersion correction           -0.005672509
FINAL SINGLE POINT ENERGY      -153.795340359264

DIPOLE MOMENT
-------------

Method             : TDA/CIS
Type of density    : Electron Density
Level              : Relaxed density
State              :   1
Multiplicity       :   3
Irrep              :   0
Energy             :     0.0000000000000000 Eh
Relativity type    :
Basis              : AO
                                X                 Y                 Z
Electronic contribution:      0.164038139       1.210556241      -0.000347920
Nuclear contribution   :     -0.878405616      -2.582383446       0.000687639
                        -----------------------------------------
Total Dipole Moment    :     -0.714367477      -1.371827205       0.000339719
                        -----------------------------------------
Magnitude (a.u.)       :      1.546683836
Magnitude (Debye)      :      3.931357880

Rotational constants in cm-1:             1.120626             0.465653             0.377628
Rotational constants in MHz :         33595.523519         13959.919838         11321.014286

                             ****ORCA TERMINATED NORMALLY****
TOTAL RUN TIME: 0 days 0 hours 0 minutes 16 seconds 607 msec
