                         Program Version 6.0.0  -   RELEASE  -
|  1> ! Engrad def2-TZVPPD wB97M-D3BJ
|  2> %pal nprocs 8 end%pal nprocs 64 end
|  3> %tddft
|  4> Iroot 1 Nroots 3
|  5> sf true
|  6> end
|  7> *xyz 0 3
|  8> O   2.6080920734753947 1.131708307887154 -0.47971802652335577
|  9> O   -0.6545725701108659 0.9036039047692026 -2.3501938718829756
| 10> O   0.5222536094141437 -2.765325757798716 -1.4087737535143483
| 11> O   -2.5935845014880483 -1.548179035393989 0.8791237523870438
| 12> N   0.5704105777385152 -2.040566837592409 0.7080104687498207
| 13> N   -1.9630431803308168 0.5118972348735463 1.3845817029153218
| 14> N   1.6248013789158926 -0.8482337874025667 -0.9068333994440975
| 15> N   -1.6254595320544947 -0.30503367791628155 -0.7242704455467538
| 16> C   1.5018136601255931 0.07303897079180713 1.2563758074437354
| 17> C   -0.8326542732682285 1.8557530548970282 -0.20497555009201096
| 18> C   0.7950518596466241 -1.0248410212177061 1.591856515550718
| 19> C   -1.241119107364026 1.6020874899843534 1.0520802038228374
| 20> C   1.879285521702598 1.0757084432729744 2.2283679327108286
| 21> C   -0.34677136664834884 3.1512018279758 -0.6027484175025405
| 22> C   1.973728498740193 0.19061422141103004 -0.08851745710988171
| 23> C   -1.008833820569173 0.8289477172664538 -1.203280013692829
| 24> C   0.8802559003984709 -1.9464402522630542 -0.6071268948562915
| 25> C   -2.0933233047527824 -0.5163252174510371 0.5314420358516585
| 26> H   0.5782652113999072 -1.2685902345884192 2.6161639473252216
| 27> H   -1.222295872881511 2.3671098679010116 1.8044196014120837
| 28> H   1.609822000054133 2.066420515812778 1.8719374329444038
| 29> H   1.4129472775792329 0.9538751045603607 3.2038195178560853
| 30> H   2.94310429949619 1.1451997947592891 2.43849867547954
| 31> H   -1.0274911235348934 3.5464256778472327 -1.3545273228072012
| 32> H   -0.22362539076008506 3.894696274147318 0.174288267858869
| 33> H   0.6219940367954618 3.076368468599799 -1.0917835351255682
| 34> H   -0.0637537746917447 -2.782204088753163 0.9364420419491349
| 35> H   -2.2913562666281897 0.3825681116596314 2.3192586495851715
| 36> H   1.8389452316346788 -0.7363762327647275 -1.8847689461630541
| 37> H   -1.720287052033849 -1.0601088452747633 -1.3845489195815677
| 38> *
| 39>
| 40>                          ****END OF INPUT****

CARTESIAN COORDINATES (ANGSTROEM)
---------------------------------
  O      2.608092    1.131708   -0.479718
  O     -0.654573    0.903604   -2.350194
  O      0.522254   -2.765326   -1.408774
  O     -2.593585   -1.548179    0.879124
  N      0.570411   -2.040567    0.708010
  N     -1.963043    0.511897    1.384582
  N      1.624801   -0.848234   -0.906833
  N     -1.625460   -0.305034   -0.724270
  C      1.501814    0.073039    1.256376
  C     -0.832654    1.855753   -0.204976
  C      0.795052   -1.024841    1.591857
  C     -1.241119    1.602087    1.052080
  C      1.879286    1.075708    2.228368
  C     -0.346771    3.151202   -0.602748
  C      1.973728    0.190614   -0.088517
  C     -1.008834    0.828948   -1.203280
  C      0.880256   -1.946440   -0.607127
  C     -2.093323   -0.516325    0.531442
  H      0.578265   -1.268590    2.616164
  H     -1.222296    2.367110    1.804420
  H      1.609822    2.066421    1.871937
  H      1.412947    0.953875    3.203820
  H      2.943104    1.145200    2.438499
  H     -1.027491    3.546426   -1.354527
  H     -0.223625    3.894696    0.174288
  H      0.621994    3.076368   -1.091784
  H     -0.063754   -2.782204    0.936442
  H     -2.291356    0.382568    2.319259
  H      1.838945   -0.736376   -1.884769
  H     -1.720287   -1.060109   -1.384549

 Total Charge           Charge          ....    0
 Multiplicity           Mult            ....    3
 Number of Electrons    NEL             ....  132
 Basis Dimension        Dim             ....  882

ORBITAL ENERGIES
----------------
                 SPIN UP ORBITALS
  NO   OCC          E(Eh)            E(eV)
   0   1.0000     -19.330995      -526.0231
   1   1.0000     -19.317704      -525.6615
   2   1.0000     -19.315004      -525.5880
   3   1.0000     -19.314985      -525.5874
   4   1.0000     -14.593375      -397.1059
   5   1.0000     -14.574005      -396.5788
   6   1.0000     -14.561763      -396.2457
   7   1.0000     -14.553967      -396.0336
   8   1.0000     -10.507441      -285.9220
   9   1.0000     -10.499970      -285.7187
  10   1.0000     -10.467322      -284.8303
  11   1.0000     -10.454989      -284.4947
  12   1.0000     -10.428395      -283.7711
  13   1.0000     -10.401238      -283.0321
  14   1.0000     -10.396279      -282.8971
  15   1.0000     -10.372203      -282.2420
  16   1.0000     -10.358193      -281.8608
  17   1.0000     -10.352859      -281.7156
  18   1.0000      -1.243128       -33.8272
  19   1.0000      -1.228124       -33.4189
  20   1.0000      -1.197517       -32.5861
  21   1.0000      -1.194788       -32.5118
  22   1.0000      -1.138706       -30.9858
  23   1.0000      -1.123473       -30.5713
  24   1.0000      -1.075224       -29.2583
  25   1.0000      -1.072165       -29.1751
  26   1.0000      -0.982961       -26.7477
  27   1.0000      -0.961574       -26.1658
  28   1.0000      -0.861167       -23.4335
  29   1.0000      -0.851204       -23.1624
  30   1.0000      -0.821096       -22.3432
  31   1.0000      -0.814014       -22.1504
  32   1.0000      -0.802775       -21.8446
  33   1.0000      -0.795219       -21.6390
  34   1.0000      -0.708789       -19.2871
  35   1.0000      -0.703928       -19.1548
  36   1.0000      -0.695812       -18.9340
  37   1.0000      -0.694171       -18.8894
  38   1.0000      -0.653220       -17.7750
  39   1.0000      -0.639674       -17.4064
  40   1.0000      -0.636503       -17.3201
  41   1.0000      -0.607645       -16.5349
  42   1.0000      -0.598521       -16.2866
  43   1.0000      -0.592204       -16.1147
  44   1.0000      -0.579444       -15.7675
  45   1.0000      -0.574221       -15.6254
  46   1.0000      -0.561996       -15.2927
  47   1.0000      -0.554441       -15.0871
  48   1.0000      -0.550585       -14.9822
  49   1.0000      -0.548081       -14.9141
  50   1.0000      -0.536648       -14.6029
  51   1.0000      -0.532102       -14.4792
  52   1.0000      -0.529299       -14.4030
  53   1.0000      -0.514957       -14.0127
  54   1.0000      -0.504403       -13.7255
  55   1.0000      -0.496688       -13.5156
  56   1.0000      -0.495581       -13.4854
  57   1.0000      -0.471793       -12.8381
  58   1.0000      -0.422887       -11.5073
  59   1.0000      -0.412212       -11.2169
  60   1.0000      -0.410134       -11.1603
  61   1.0000      -0.398132       -10.8337
  62   1.0000      -0.387759       -10.5515
  63   1.0000      -0.384880       -10.4731
  64   1.0000      -0.382018       -10.3952
  65   1.0000      -0.340298        -9.2600
  66   1.0000      -0.212883        -5.7929
  67   0.0000       0.010485         0.2853
  68   0.0000       0.021275         0.5789
  69   0.0000       0.032569         0.8863
  70   0.0000       0.038535         1.0486
  71   0.0000       0.040182         1.0934

                 SPIN DOWN ORBITALS
  NO   OCC          E(Eh)            E(eV)
   0   1.0000     -19.328916      -525.9665
   1   1.0000     -19.314943      -525.5863
   2   1.0000     -19.314918      -525.5856
   3   1.0000     -19.311986      -525.5058
   4   1.0000     -14.589084      -396.9892
   5   1.0000     -14.573890      -396.5757
   6   1.0000     -14.561779      -396.2462
   7   1.0000     -14.552975      -396.0066
   8   1.0000     -10.507702      -285.9291
   9   1.0000     -10.499980      -285.7190
  10   1.0000     -10.467315      -284.8301
  11   1.0000     -10.454654      -284.4856
  12   1.0000     -10.428176      -283.7651
  13   1.0000     -10.391766      -282.7743
  14   1.0000     -10.385655      -282.6080
  15   1.0000     -10.372257      -282.2435
  16   1.0000     -10.358542      -281.8703
  17   1.0000     -10.352759      -281.7129
  18   1.0000      -1.238724       -33.7074
  19   1.0000      -1.227907       -33.4130
  20   1.0000      -1.194946       -32.5161
  21   1.0000      -1.188807       -32.3491
  22   1.0000      -1.128609       -30.7110
  23   1.0000      -1.123208       -30.5641
  24   1.0000      -1.072095       -29.1732
  25   1.0000      -1.070018       -29.1167
  26   1.0000      -0.963034       -26.2055
  27   1.0000      -0.957882       -26.0653
  28   1.0000      -0.851136       -23.1606
  29   1.0000      -0.848134       -23.0789
  30   1.0000      -0.814551       -22.1651
  31   1.0000      -0.810679       -22.0597
  32   1.0000      -0.796015       -21.6607
  33   1.0000      -0.794926       -21.6310
  34   1.0000      -0.697136       -18.9700
  35   1.0000      -0.695887       -18.9361
  36   1.0000      -0.695465       -18.9246
  37   1.0000      -0.693817       -18.8797
  38   1.0000      -0.642418       -17.4811
  39   1.0000      -0.636138       -17.3102
  40   1.0000      -0.633190       -17.2300
  41   1.0000      -0.598935       -16.2979
  42   1.0000      -0.591854       -16.1052
  43   1.0000      -0.589657       -16.0454
  44   1.0000      -0.567635       -15.4461
  45   1.0000      -0.563085       -15.3223
  46   1.0000      -0.559143       -15.2151
  47   1.0000      -0.548690       -14.9306
  48   1.0000      -0.546181       -14.8624
  49   1.0000      -0.540372       -14.7043
  50   1.0000      -0.529465       -14.4075
  51   1.0000      -0.528431       -14.3793
  52   1.0000      -0.519263       -14.1299
  53   1.0000      -0.506516       -13.7830
  54   1.0000      -0.498423       -13.5628
  55   1.0000      -0.496131       -13.5004
  56   1.0000      -0.470285       -12.7971
  57   1.0000      -0.455690       -12.4000
  58   1.0000      -0.418522       -11.3886
  59   1.0000      -0.410223       -11.1627
  60   1.0000      -0.398152       -10.8343
  61   1.0000      -0.387089       -10.5332
  62   1.0000      -0.382663       -10.4128
  63   1.0000      -0.379503       -10.3268
  64   1.0000      -0.339584        -9.2406
  65   0.0000      -0.102957        -2.8016
  66   0.0000       0.010222         0.2782
  67   0.0000       0.023001         0.6259
  68   0.0000       0.031231         0.8498
  69   0.0000       0.037705         1.0260

----------------------------------------------------------------------------------------------------
          SPIN FLIP ABSORPTION SPECTRUM VIA TRANSITION ELECTRIC DIPOLE MOMENTS
----------------------------------------------------------------------------------------------------
     Transition      Energy     Energy  Wavelength fosc(D2)      D2        DX        DY        DZ
                      (eV)      (cm-1)    (nm)                 (au**2)    (au)      (au)      (au)
----------------------------------------------------------------------------------------------------
  1-3A  ->  2-3A    4.045564   32629.7   306.5   0.000940442   0.00949   0.01083  -0.03685  -0.08952
  1-3A  ->  3-1A    5.304633   42784.8   233.7   0.490030280   3.77059   0.63992   0.34602  -1.80038

Dispersion correction             ... done (  0.1 sec)

MULLIKEN ATOMIC CHARGES AND SPIN DENSITIES
------------------------------------------
   0 O :   -0.675761   -0.001324
   1 O :   -0.685171    0.032568
   2 O :   -0.653842   -0.000158
   3 O :   -0.672112    0.008205
   4 N :   -0.034120   -0.001909
   5 N :    0.025364    0.058047
   6 N :    0.036590    0.001581
   7 N :    0.046864    0.007642
   8 C :    1.005570    0.014097
   9 C :    1.195448    0.553666
  10 C :   -0.048133    0.012598
  11 C :   -0.327878   -0.416047
  12 C :   -1.459940    0.011639
  13 C :   -1.475910   -0.002694
  14 C :    0.285622   -0.050912
  15 C :    0.319616   -0.334657
  16 C :    0.381795    0.006080
  17 C :    0.415668    0.022502
  18 H :    0.153037    0.000568
  19 H :    0.170025    0.041868
  20 H :    0.247178    0.001770
  21 H :    0.325932   -0.001020
  22 H :    0.349032   -0.001197
  23 H :    0.362726    0.007472
  24 H :    0.343430    0.007855
  25 H :    0.269555    0.018268
  26 H :    0.046231   -0.000140
  27 H :    0.018629    0.000100
  28 H :    0.018834    0.000496
  29 H :    0.015717    0.003038
Sum of atomic charges       :   -0.0000000

LOEWDIN ATOMIC CHARGES AND SPIN DENSITIES
-----------------------------------------
   0 O :    0.114490    0.000509
   1 O :    0.107916    0.025873
   2 O :    0.100468   -0.000161
   3 O :    0.095962    0.006666
   4 N :    0.282890   -0.000705
   5 N :    0.298930    0.021114
   6 N :    0.354567    0.000299
   7 N :    0.353581   -0.000469
   8 C :   -0.165418   -0.000728
   9 C :   -0.152422   -0.032775
  10 C :    0.059974   -0.002157
  11 C :    0.055574   -0.024868
  12 C :    0.157929   -0.000468
  13 C :    0.165213   -0.003366
  14 C :   -0.433071    0.000093
  15 C :   -0.429121    0.009924
  16 C :   -0.515484   -0.000163
  17 C :   -0.524747    0.000259
  18 H :    0.040030   -0.000240
  19 H :    0.039116   -0.001027
  20 H :   -0.006090   -0.000201
  21 H :    0.000459    0.000035
  22 H :    0.007904    0.000028
  23 H :    0.010732   -0.000459
  24 H :    0.000708    0.000380
  25 H :    0.002030    0.000310
  26 H :   -0.017744   -0.000035
  27 H :   -0.008370    0.002121
  28 H :    0.004455    0.000092
  29 H :   -0.000462    0.000120

  Mayer bond orders larger than 0.100000
B(  0-O , 14-C ) :   1.4493 B(  1-O , 15-C ) :   1.4093 B(  2-O , 16-C ) :   1.5531
B(  3-O , 17-C ) :   1.5186 B(  4-N , 10-C ) :   0.7984 B(  4-N , 16-C ) :   1.0050
B(  4-N , 26-H ) :   1.1249 B(  5-N , 11-C ) :   0.8887 B(  5-N , 17-C ) :   1.0493
B(  5-N , 27-H ) :   1.1266 B(  6-N ,  8-C ) :  -0.1163 B(  6-N , 14-C ) :   1.0343
B(  6-N , 16-C ) :   0.9150 B(  6-N , 28-H ) :   1.1233 B(  7-N , 15-C ) :   0.9304
B(  7-N , 16-C ) :   0.1129 B(  7-N , 17-C ) :   0.9721 B(  7-N , 29-H ) :   1.1404
B(  8-C , 10-C ) :   1.0986 B(  8-C , 12-C ) :   0.2370 B(  8-C , 14-C ) :   0.7330
B(  8-C , 20-H ) :  -0.1031 B(  8-C , 21-H ) :  -0.1197 B(  9-C , 11-C ) :   1.2013
B(  9-C , 13-C ) :   0.2597 B(  9-C , 15-C ) :   0.5639 B(  9-C , 17-C ) :   0.1084
B(  9-C , 25-H ) :  -0.1037 B( 10-C , 12-C ) :  -0.1057 B( 10-C , 18-H ) :   1.1188
B( 11-C , 13-C ) :  -0.1161 B( 11-C , 17-C ) :  -0.1239 B( 11-C , 19-H ) :   1.0829
B( 12-C , 20-H ) :   0.9816 B( 12-C , 21-H ) :   1.0415 B( 12-C , 22-H ) :   0.8977
B( 13-C , 23-H ) :   0.8872 B( 13-C , 24-H ) :   0.9741 B( 13-C , 25-H ) :   0.9884

Dispersion correction           -0.059957786
FINAL SINGLE POINT ENERGY      -908.907059159992

DIPOLE MOMENT
-------------

Method             : TDA/CIS
Type of density    : Electron Density
Level              : Relaxed density
State              :   1
Multiplicity       :   3
Irrep              :   0
Energy             :     0.0000000000000000 Eh
Relativity type    :
Basis              : AO
                                X                 Y                 Z
Electronic contribution:     -2.887586421      -9.952035271      -5.843602001
Nuclear contribution   :      2.331816969      10.766792981       8.559271508
                        -----------------------------------------
Total Dipole Moment    :     -0.555769452       0.814757710       2.715669507
                        -----------------------------------------
Magnitude (a.u.)       :      2.889216274
Magnitude (Debye)      :      7.343804147

Rotational constants in cm-1:             0.017216             0.016668             0.013827
Rotational constants in MHz :           516.113604           499.693223           414.521953

                             ****ORCA TERMINATED NORMALLY****
TOTAL RUN TIME: 0 days 0 hours 6 minutes 17 seconds 285 msec
