                         Program Version 6.0.0  -   RELEASE  -
|  1> ! opt def2-TZVPPD wB97M-D3BJ
|  2> %pal nprocs 8 end%pal nprocs 32 end
|  3> %geom Constraints
|  4> {B 9 8 3.4 C}
|  5> {A 8 9 11 61.42857142857143 C}
|  6>  end
|  7>  end
|  8> *xyz 0 1
|  9> O   2.98579685529314 0.88758230159078 -0.86184571092411
| 10> O   -0.03983205397054 0.68929041702508 -2.10362336723772
| 11> O   0.93431434349854 -3.13274393337945 -0.68767288184107
| 12> O   -3.75829998830163 -0.84727300865116 -0.0472717177755
| 13> N   0.21184538946282 -1.54604804365365 0.7617588924445
| 14> N   -2.13631993928911 0.03188773433438 1.27350571071531
| 15> N   2.02598672506387 -1.14318467211666 -0.64531219127023
| 16> N   -1.91814233924584 0.03137116037665 -1.04498946748291
| 17> C   1.18097737274226 0.71693507080484 0.70173889017321
| 18> C   -0.20686880480777 1.27024627933494 0.21345042231937
| 19> C   0.41441080275909 -0.34173258966541 1.52336266615173
| 20> C   -0.82922175114212 0.58960593673968 1.44434972027296
| 21> C   1.92822011286806 1.69488653817281 1.5963734975385
| 22> C   -0.37809776891576 2.77134929626422 0.04819649358288
| 23> C   2.1403947470937 0.1972384729179 -0.35038567829864
| 24> C   -0.67361678962426 0.6214190571346 -1.0793014500539
| 25> C   1.04142578622994 -2.02697492875068 -0.21027082435993
| 26> C   -2.68467002550422 -0.30396816036989 0.07167054343891
| 27> H   0.80817443950001 -0.54572267081061 2.51895215321335
| 28> H   -0.83785272399001 1.27240685039143 2.28901317073582
| 29> H   2.31167340578204 2.52284411740894 1.00913016264629
| 30> H   1.28982602448342 2.08257620823614 2.38710022492991
| 31> H   2.77390820759972 1.19140411795486 2.06045858523949
| 32> H   -1.41857211141493 3.00964947214868 -0.16882755561625
| 33> H   -0.09065531563179 3.29799318042223 0.95389844358819
| 34> H   0.23426221611057 3.12492645074476 -0.77764887675592
| 35> H   -0.46772570547622 -2.21560145172536 1.0787081584806
| 36> H   -2.71769301149571 -0.17090724573546 2.06627440900372
| 37> H   2.60065167263658 -1.49057255715425 -1.3966820077142
| 38> H   -2.27169977231386 -0.32388339999036 -1.91951041514436
| 39> *
| 40>
| 41>                          ****END OF INPUT****
 Total Charge           Charge          ....    0
 Multiplicity           Mult            ....    1
 Number of Electrons    NEL             ....  132
Dispersion correction           -0.051154019
FINAL SINGLE POINT ENERGY      -908.617869425447
Dispersion correction             ... done (  0.0 sec)
Dispersion correction           -0.051792379
FINAL SINGLE POINT ENERGY      -908.654712747261
Dispersion correction             ... done (  0.0 sec)
Dispersion correction           -0.052474605
FINAL SINGLE POINT ENERGY      -908.679711386014
Dispersion correction             ... done (  0.0 sec)
FINAL SINGLE POINT ENERGY      -908.702753019760
FINAL SINGLE POINT ENERGY      -908.717154822803
FINAL SINGLE POINT ENERGY      -908.722265967477
FINAL SINGLE POINT ENERGY      -908.725531813060
FINAL SINGLE POINT ENERGY      -908.728184989246
FINAL SINGLE POINT ENERGY      -908.730113146107
FINAL SINGLE POINT ENERGY      -908.731500537582
FINAL SINGLE POINT ENERGY      -908.738195152209
FINAL SINGLE POINT ENERGY      -908.738267510297
FINAL SINGLE POINT ENERGY      -908.738302452609
FINAL SINGLE POINT ENERGY      -908.738333915889
FINAL SINGLE POINT ENERGY      -908.738358618717
FINAL SINGLE POINT ENERGY      -908.738371599963
FINAL SINGLE POINT ENERGY      -908.738382061413
Dispersion correction             ... done (  0.0 sec)
Dispersion correction           -0.056637446
FINAL SINGLE POINT ENERGY      -908.738386952414
Dispersion correction             ... done (  0.0 sec)
Dispersion correction           -0.056641309
FINAL SINGLE POINT ENERGY      -908.738388472742
Dispersion correction             ... done (  0.0 sec)
                    ***********************HURRAY********************

CARTESIAN COORDINATES (ANGSTROEM)
---------------------------------
  O      3.437493    0.395466   -0.724450
  O     -0.948591    1.374941   -2.489230
  O      0.433577   -2.883246   -0.538983
  O     -2.999145   -1.820800   -0.105661
  N      0.368385   -1.324842    1.114591
  N     -2.115101   -0.065127    1.043172
  N      1.595670   -0.942858   -0.821956
  N     -1.595668   -0.383759   -1.192266
  C      1.932211    0.474694    1.082195
  C     -1.001707    1.679328   -0.142951
  C      0.424396    0.057535    1.502047
  C     -1.029425    0.866240    1.137996
  C      2.780227    1.212060    2.025500
  C     -1.012681    3.149471   -0.150242
  C      2.400936    0.021599   -0.199252
  C     -1.162385    0.929186   -1.377914
  C      0.766855   -1.799330   -0.120900
  C     -2.292540   -0.843925   -0.075533
  H      0.419550    0.070914    2.594078
  H     -1.207093    1.532025    1.978112
  H      3.785468    1.318954    1.629905
  H      2.373853    2.206216    2.237981
  H      2.817692    0.689867    2.988658
  H     -2.015048    3.515545    0.110268
  H     -0.327257    3.561718    0.589746
  H     -0.769230    3.523393   -1.140391
  H     -0.234841   -1.966524    1.601079
  H     -2.600057   -0.386370    1.862190
  H      1.955366   -1.313566   -1.686581
  H     -1.728309   -0.933804   -2.026608

 Multiplicity           Mult            ....    1
 Number of Electrons    NEL             ....  132
 Basis Dimension        Dim             ....  882

ORBITAL ENERGIES
----------------

  NO   OCC          E(Eh)            E(eV)
   0   2.0000     -19.333153      -526.0818
   1   2.0000     -19.326108      -525.8901
   2   2.0000     -19.319162      -525.7011
   3   2.0000     -19.317448      -525.6545
   4   2.0000     -14.568297      -396.4235
   5   2.0000     -14.564175      -396.3114
   6   2.0000     -14.561242      -396.2315
   7   2.0000     -14.549734      -395.9184
   8   2.0000     -10.508765      -285.9580
   9   2.0000     -10.499231      -285.6986
  10   2.0000     -10.482853      -285.2529
  11   2.0000     -10.470029      -284.9040
  12   2.0000     -10.448867      -284.3281
  13   2.0000     -10.448324      -284.3134
  14   2.0000     -10.434611      -283.9402
  15   2.0000     -10.422505      -283.6108
  16   2.0000     -10.379608      -282.4435
  17   2.0000     -10.373260      -282.2708
  18   2.0000      -1.223846       -33.3025
  19   2.0000      -1.212296       -32.9882
  20   2.0000      -1.196479       -32.5578
  21   2.0000      -1.182607       -32.1804
  22   2.0000      -1.118251       -30.4292
  23   2.0000      -1.095601       -29.8128
  24   2.0000      -1.064696       -28.9719
  25   2.0000      -1.050794       -28.5936
  26   2.0000      -0.965182       -26.2639
  27   2.0000      -0.942862       -25.6566
  28   2.0000      -0.879548       -23.9337
  29   2.0000      -0.838012       -22.8035
  30   2.0000      -0.822549       -22.3827
  31   2.0000      -0.802075       -21.8256
  32   2.0000      -0.786185       -21.3932
  33   2.0000      -0.769652       -20.9433
  34   2.0000      -0.697889       -18.9905
  35   2.0000      -0.685715       -18.6593
  36   2.0000      -0.678018       -18.4498
  37   2.0000      -0.656955       -17.8767
  38   2.0000      -0.646534       -17.5931
  39   2.0000      -0.639520       -17.4022
  40   2.0000      -0.617589       -16.8054
  41   2.0000      -0.599216       -16.3055
  42   2.0000      -0.584090       -15.8939
  43   2.0000      -0.580395       -15.7933
  44   2.0000      -0.569248       -15.4900
  45   2.0000      -0.565311       -15.3829
  46   2.0000      -0.564753       -15.3677
  47   2.0000      -0.554452       -15.0874
  48   2.0000      -0.551077       -14.9956
  49   2.0000      -0.546432       -14.8692
  50   2.0000      -0.544952       -14.8289
  51   2.0000      -0.540344       -14.7035
  52   2.0000      -0.530908       -14.4467
  53   2.0000      -0.517006       -14.0684
  54   2.0000      -0.507476       -13.8091
  55   2.0000      -0.503705       -13.7065
  56   2.0000      -0.482013       -13.1162
  57   2.0000      -0.422574       -11.4988
  58   2.0000      -0.415272       -11.3001
  59   2.0000      -0.408723       -11.1219
  60   2.0000      -0.399039       -10.8584
  61   2.0000      -0.391584       -10.6556
  62   2.0000      -0.387046       -10.5320
  63   2.0000      -0.380046       -10.3416
  64   2.0000      -0.372487       -10.1359
  65   2.0000      -0.268051        -7.2940
  66   0.0000      -0.125126        -3.4049
  67   0.0000       0.004861         0.1323
  68   0.0000       0.026898         0.7319
  69   0.0000       0.031075         0.8456
  70   0.0000       0.039229         1.0675

MULLIKEN ATOMIC CHARGES
-----------------------
   0 O :   -0.671515
   1 O :   -0.671688
   2 O :   -0.643635
   3 O :   -0.629929
   4 N :   -0.264709
   5 N :   -0.314441
   6 N :    0.097496
   7 N :    0.056914
   8 C :    0.291313
   9 C :    0.112965
  10 C :    0.081683
  11 C :    0.688008
  12 C :   -1.357409
  13 C :   -1.433093
  14 C :    0.348182
  15 C :    0.457485
  16 C :    0.333418
  17 C :    0.349027
  18 H :    0.548948
  19 H :    0.502146
  20 H :    0.329577
  21 H :    0.261940
  22 H :    0.315878
  23 H :    0.335349
  24 H :    0.302581
  25 H :    0.336081
  26 H :    0.090804
  27 H :    0.073384
  28 H :    0.050142
  29 H :    0.023099
Sum of atomic charges:   -0.0000000

LOEWDIN ATOMIC CHARGES
----------------------
   0 O :    0.083269
   1 O :    0.100529
   2 O :    0.097219
   3 O :    0.105999
   4 N :    0.258973
   5 N :    0.266221
   6 N :    0.315952
   7 N :    0.329231
   8 C :    0.013024
   9 C :    0.006614
  10 C :   -0.042166
  11 C :   -0.082492
  12 C :    0.167151
  13 C :    0.184008
  14 C :   -0.427252
  15 C :   -0.406542
  16 C :   -0.496941
  17 C :   -0.489722
  18 H :    0.021156
  19 H :    0.037633
  20 H :   -0.003848
  21 H :    0.005606
  22 H :    0.008318
  23 H :    0.019212
  24 H :    0.001480
  25 H :    0.000522
  26 H :   -0.027722
  27 H :   -0.026905
  28 H :   -0.013683
  29 H :   -0.004844

  Mayer bond orders larger than 0.100000
B(  0-O , 14-C ) :   1.3630 B(  1-O , 15-C ) :   1.3679 B(  2-O , 16-C ) :   1.5164
B(  3-O , 17-C ) :   1.5456 B(  4-N ,  8-C ) :   0.2851 B(  4-N , 10-C ) :   0.3121
B(  4-N , 16-C ) :   0.9929 B(  4-N , 26-H ) :   1.0659 B(  5-N ,  9-C ) :   0.3790
B(  5-N , 10-C ) :   0.1209 B(  5-N , 17-C ) :   1.1320 B(  5-N , 27-H ) :   1.0527
B(  6-N , 14-C ) :   1.0470 B(  6-N , 16-C ) :   1.0178 B(  6-N , 28-H ) :   1.0524
B(  7-N , 11-C ) :   0.1224 B(  7-N , 15-C ) :   0.9749 B(  7-N , 17-C ) :   0.9664
B(  7-N , 29-H ) :   1.0844 B(  8-C ,  9-C ) :   0.3865 B(  8-C , 12-C ) :   0.4628
B(  8-C , 14-C ) :   0.8415 B(  8-C , 16-C ) :   0.1292 B(  8-C , 18-H ) :  -0.1430
B(  8-C , 20-H ) :  -0.1101 B(  9-C , 10-C ) :   0.3884 B(  9-C , 11-C ) :  -0.2356
B(  9-C , 13-C ) :   0.5454 B(  9-C , 14-C ) :   0.1172 B(  9-C , 15-C ) :   0.8459
B(  9-C , 17-C ) :   0.1033 B(  9-C , 19-H ) :  -0.1075 B(  9-C , 25-H ) :  -0.1215
B( 10-C , 11-C ) :   0.6301 B( 10-C , 16-C ) :  -0.1341 B( 10-C , 18-H ) :   0.7363
B( 11-C , 15-C ) :  -0.1524 B( 11-C , 17-C ) :  -0.2111 B( 11-C , 19-H ) :   0.8830
B( 12-C , 20-H ) :   0.9737 B( 12-C , 21-H ) :   0.9630 B( 12-C , 22-H ) :   0.9051
B( 13-C , 23-H ) :   0.8715 B( 13-C , 24-H ) :   0.9529 B( 13-C , 25-H ) :   0.9607

Dispersion correction           -0.056649344
FINAL SINGLE POINT ENERGY      -908.738388596923

DIPOLE MOMENT
-------------

Method             : SCF
Type of density    : Electron Density
Multiplicity       :   1
Irrep              :   0
Energy             :  -908.6817392530285815 Eh
Relativity type    :
Basis              : AO
                                X                 Y                 Z
Electronic contribution:     -2.956287514      -9.518351186      -7.510611022
Nuclear contribution   :      2.374625544      11.211354775      10.228787167
                        -----------------------------------------
Total Dipole Moment    :     -0.581661971       1.693003589       2.718176145
                        -----------------------------------------
Magnitude (a.u.)       :      3.254700194
Magnitude (Debye)      :      8.272790444

Rotational constants in cm-1:             0.019212             0.013864             0.011722
Rotational constants in MHz :           575.963196           415.619475           351.425793

                             ****ORCA TERMINATED NORMALLY****
TOTAL RUN TIME: 0 days 1 hours 35 minutes 4 seconds 833 msec
