                         Program Version 6.0.0  -   RELEASE  -
|  1> ! EnGrad wB97M-D3BJ def2-TZVPPD
|  2> %pal nprocs 8 end%pal nprocs 16 end
|  3> %tddft
|  4>  sf true
|  5>  nroots 2 Iroot 2 end
|  6> *xyz 0 3
|  7> O   0.66171193364201 1.3297149717858 -0.10664114036092
|  8> C   0.56322400696003 0.18968158052934 0.25904490826645
|  9> C   -0.44407274932467 -0.81208526849875 -0.21703815886078
| 10> H   1.2670601883063 -0.19964329249317 1.02168066703986
| 11> H   0.08047396872704 -1.67243922951538 -0.63420058555337
| 12> H   -1.10813036521777 -0.38001803842136 -0.95968661348555
| 13> H   -1.01806698309294 -1.17361072338648 0.63684092295431
| 14> *
| 15>
| 16>                          ****END OF INPUT****

CARTESIAN COORDINATES (ANGSTROEM)
---------------------------------
  O      0.661712    1.329715   -0.106641
  C      0.563224    0.189682    0.259045
  C     -0.444073   -0.812085   -0.217038
  H      1.267060   -0.199643    1.021681
  H      0.080474   -1.672439   -0.634201
  H     -1.108130   -0.380018   -0.959687
  H     -1.018067   -1.173611    0.636841

 Total Charge           Charge          ....    0
 Multiplicity           Mult            ....    3
 Number of Electrons    NEL             ....   24
 Basis Dimension        Dim             ....  182

ORBITAL ENERGIES
----------------
                 SPIN UP ORBITALS
  NO   OCC          E(Eh)            E(eV)
   0   1.0000     -19.409320      -528.1544
   1   1.0000     -10.379392      -282.4376
   2   1.0000     -10.367209      -282.1061
   3   1.0000      -1.245892       -33.9024
   4   1.0000      -0.883086       -24.0300
   5   1.0000      -0.717829       -19.5331
   6   1.0000      -0.634554       -17.2671
   7   1.0000      -0.587426       -15.9847
   8   1.0000      -0.581867       -15.8334
   9   1.0000      -0.515258       -14.0209
  10   1.0000      -0.513971       -13.9859
  11   1.0000      -0.432925       -11.7805
  12   1.0000      -0.220083        -5.9888
  13   0.0000       0.040667         1.1066
  14   0.0000       0.060215         1.6385
  15   0.0000       0.078413         2.1337
  16   0.0000       0.087893         2.3917
  17   0.0000       0.107664         2.9297

                 SPIN DOWN ORBITALS
  NO   OCC          E(Eh)            E(eV)
   0   1.0000     -19.381728      -527.4036
   1   1.0000     -10.369126      -282.1583
   2   1.0000     -10.365069      -282.0479
   3   1.0000      -1.188309       -32.3355
   4   1.0000      -0.863901       -23.5080
   5   1.0000      -0.673003       -18.3133
   6   1.0000      -0.585960       -15.9448
   7   1.0000      -0.540902       -14.7187
   8   1.0000      -0.535485       -14.5713
   9   1.0000      -0.499281       -13.5861
  10   1.0000      -0.471333       -12.8256
  11   0.0000      -0.083219        -2.2645
  12   0.0000       0.041113         1.1188
  13   0.0000       0.059880         1.6294
  14   0.0000       0.078264         2.1297
  15   0.0000       0.084210         2.2915

----------------------------------------------------------------------------------------------------
          SPIN FLIP ABSORPTION SPECTRUM VIA TRANSITION ELECTRIC DIPOLE MOMENTS
----------------------------------------------------------------------------------------------------
     Transition      Energy     Energy  Wavelength fosc(D2)      D2        DX        DY        DZ
                      (eV)      (cm-1)    (nm)                 (au**2)    (au)      (au)      (au)
----------------------------------------------------------------------------------------------------
  1-3A  ->  2-3A    4.592049   37037.4   270.0   0.000110875   0.00099   0.01976  -0.00885  -0.02273

Dispersion correction             ... done (  0.0 sec)

MULLIKEN ATOMIC CHARGES AND SPIN DENSITIES
------------------------------------------
   0 O :   -0.259057    0.589374
   1 C :    0.218796   -0.617422
   2 C :   -0.709382    0.127917
   3 H :    0.100270   -0.000928
   4 H :    0.200868   -0.047228
   5 H :    0.248342   -0.003757
   6 H :    0.200163   -0.047956
Sum of atomic charges       :   -0.0000000

LOEWDIN ATOMIC CHARGES AND SPIN DENSITIES
-----------------------------------------
   0 O :    0.159916    0.399235
   1 C :   -0.257276   -0.348441
   2 C :    0.135623   -0.013026
   3 H :    0.008601   -0.002979
   4 H :   -0.018863   -0.020018
   5 H :   -0.009144    0.005121
   6 H :   -0.018856   -0.019892

  Mayer bond orders larger than 0.100000
B(  0-O ,  1-C ) :   1.2771 B(  1-C ,  2-C ) :   0.6391 B(  1-C ,  3-H ) :   1.0092
B(  2-C ,  4-H ) :   1.0092 B(  2-C ,  5-H ) :   0.9329 B(  2-C ,  6-H ) :   1.0095

Dispersion correction           -0.005532085
FINAL SINGLE POINT ENERGY      -153.755941756012

DIPOLE MOMENT
-------------

Method             : TDA/CIS
Type of density    : Electron Density
Level              : Relaxed density
State              :   2
Multiplicity       :   3
Irrep              :   0
Energy             :     0.0000000000000000 Eh
Relativity type    :
Basis              : AO
                                X                 Y                 Z
Electronic contribution:      1.480805569       3.499007772      -0.101815899
Nuclear contribution   :     -1.681401151      -4.079005577       0.156253248
                        -----------------------------------------
Total Dipole Moment    :     -0.200595582      -0.579997805       0.054437349
                        -----------------------------------------
Magnitude (a.u.)       :      0.616116439
Magnitude (Debye)      :      1.566043533

Rotational constants in cm-1:             1.965873             0.336313             0.303172
Rotational constants in MHz :         58935.379946         10082.411897          9088.862142

                             ****ORCA TERMINATED NORMALLY****
TOTAL RUN TIME: 0 days 0 hours 0 minutes 16 seconds 259 msec
