                         Program Version 6.0.0  -   RELEASE  -
|  1> ! Opt wB97M-D3BJ def2-TZVPPD
|  2> %pal nprocs 8 end %pal nprocs 64 end
|  3> %geom
|  4> Constraints
|  5>     {A 2 1 0 119.0909090909091 C }
|  6> end
|  7> MaxIter 500
|  8> end
|  9> *xyz 0 1
| 10> O   -0.0007 0.8141 0.0
| 11> C   0.7509 -0.4065 0.0
| 12> C   -0.7502 -0.4076 0.0
| 13> H   1.2625 -0.6786 0.9136
| 14> H   1.2625 -0.6787 -0.9136
| 15> H   -1.2614 -0.6806 -0.9136
| 16> H   -1.2614 -0.6805 0.9136
| 17> *
| 18>
| 19>                          ****END OF INPUT****
 Total Charge           Charge          ....    0
 Multiplicity           Mult            ....    1
 Number of Electrons    NEL             ....   24
Dispersion correction           -0.005777802
FINAL SINGLE POINT ENERGY      -153.626239805528
Dispersion correction             ... done (  0.1 sec)
Dispersion correction           -0.005665892
FINAL SINGLE POINT ENERGY      -153.706865970888
Dispersion correction             ... done (  0.1 sec)
Dispersion correction           -0.005592793
FINAL SINGLE POINT ENERGY      -153.728807282570
Dispersion correction             ... done (  0.1 sec)
FINAL SINGLE POINT ENERGY      -153.740971131008
FINAL SINGLE POINT ENERGY      -153.747948170416
FINAL SINGLE POINT ENERGY      -153.751019587464
FINAL SINGLE POINT ENERGY      -153.752862760912
FINAL SINGLE POINT ENERGY      -153.757264563562
FINAL SINGLE POINT ENERGY      -153.763170820850
FINAL SINGLE POINT ENERGY      -153.769642589302
FINAL SINGLE POINT ENERGY      -153.930359186932
FINAL SINGLE POINT ENERGY      -153.930435038513
FINAL SINGLE POINT ENERGY      -153.930493890683
FINAL SINGLE POINT ENERGY      -153.930530947143
FINAL SINGLE POINT ENERGY      -153.930526306369
FINAL SINGLE POINT ENERGY      -153.930568176292
FINAL SINGLE POINT ENERGY      -153.930572848139
Dispersion correction             ... done (  0.1 sec)
Dispersion correction           -0.005548153
FINAL SINGLE POINT ENERGY      -153.930574368153
Dispersion correction             ... done (  0.1 sec)
Dispersion correction           -0.005547923
FINAL SINGLE POINT ENERGY      -153.930575030648
Dispersion correction             ... done (  0.1 sec)
                    ***********************HURRAY********************

CARTESIAN COORDINATES (ANGSTROEM)
---------------------------------
  O      0.499236    1.321751    0.072876
  C      0.583656    0.174031   -0.283087
  C     -0.432857   -0.820583    0.207491
  H      0.061380   -1.637340    0.735497
  H      1.384828   -0.170414   -0.958903
  H     -0.959146   -1.267619   -0.637511
  H     -1.134897   -0.318227    0.863638

 Multiplicity           Mult            ....    1
 Number of Electrons    NEL             ....   24
 Basis Dimension        Dim             ....  182

ORBITAL ENERGIES
----------------

  NO   OCC          E(Eh)            E(eV)
   0   2.0000     -19.337976      -526.2131
   1   2.0000     -10.442967      -284.1676
   2   2.0000     -10.354007      -281.7468
   3   2.0000      -1.187142       -32.3038
   4   2.0000      -0.877882       -23.8884
   5   2.0000      -0.706110       -19.2142
   6   2.0000      -0.598747       -16.2927
   7   2.0000      -0.557981       -15.1834
   8   2.0000      -0.549808       -14.9610
   9   2.0000      -0.507498       -13.8097
  10   2.0000      -0.473609       -12.8876
  11   2.0000      -0.368287       -10.0216
  12   0.0000       0.038611         1.0507
  13   0.0000       0.052616         1.4318
  14   0.0000       0.059073         1.6075
  15   0.0000       0.084170         2.2904
  16   0.0000       0.086769         2.3611

MULLIKEN ATOMIC CHARGES
-----------------------
   0 O :   -0.473908
   1 C :    0.240372
   2 C :   -0.693855
   3 H :    0.222274
   4 H :    0.243764
   5 H :    0.220851
   6 H :    0.240501
Sum of atomic charges:    0.0000000

LOEWDIN ATOMIC CHARGES
----------------------
   0 O :    0.059922
   1 C :   -0.212696
   2 C :    0.166038
   3 H :   -0.013459
   4 H :    0.023382
   5 H :   -0.013027
   6 H :   -0.010160

  Mayer bond orders larger than 0.100000
B(  0-O ,  1-C ) :   1.7712 B(  1-C ,  2-C ) :   0.7708 B(  1-C ,  4-H ) :   0.9822
B(  2-C ,  3-H ) :   0.9941 B(  2-C ,  5-H ) :   0.9931 B(  2-C ,  6-H ) :   0.9581

Dispersion correction           -0.005547811
FINAL SINGLE POINT ENERGY      -153.930575290947

DIPOLE MOMENT
-------------

Method             : SCF
Type of density    : Electron Density
Multiplicity       :   1
Irrep              :   0
Energy             :  -153.9250274804205390 Eh
Relativity type    :
Basis              : AO
                                X                 Y                 Z
Electronic contribution:      1.308953118       2.939222711      -0.204168347
Nuclear contribution   :     -1.382539928      -4.016062740      -0.018666011
                        -----------------------------------------
Total Dipole Moment    :     -0.073586811      -1.076840029      -0.222834357
                        -----------------------------------------
Magnitude (a.u.)       :      1.102113704
Magnitude (Debye)      :      2.801350409

Rotational constants in cm-1:             1.772093             0.355461             0.313049
Rotational constants in MHz :         53126.012807         10656.438749          9384.979175

                             ****ORCA TERMINATED NORMALLY****
TOTAL RUN TIME: 0 days 0 hours 10 minutes 34 seconds 252 msec
