                         Program Version 6.0.0  -   RELEASE  -
|  1> ! EnGrad wB97M-D3BJ def2-TZVPPD
|  2> %pal nprocs 8 end%pal nprocs 16 end
|  3> %tddft
|  4>  sf true
|  5>  nroots 2 Iroot 2 end
|  6> *xyz 0 3
|  7> O   0.49431985671645 1.09692239228989 -0.00250852246792
|  8> C   0.60172921163147 -0.23942271194348 -0.00045474753711
|  9> C   -0.75040551220503 -0.75734514760562 0.00112991051326
| 10> H   1.14811907960449 -0.61902503256131 0.87854045605398
| 11> H   1.14645831311969 -0.6217774420315 -0.87931041580561
| 12> H   -1.3191496384691 -0.79131455334272 -0.92036500931963
| 13> H   -1.31887131039797 -0.78643750480525 0.92296832856301
| 14> *
| 15>
| 16>                          ****END OF INPUT****

CARTESIAN COORDINATES (ANGSTROEM)
---------------------------------
  O      0.494320    1.096922   -0.002509
  C      0.601729   -0.239423   -0.000455
  C     -0.750406   -0.757345    0.001130
  H      1.148119   -0.619025    0.878540
  H      1.146458   -0.621777   -0.879310
  H     -1.319150   -0.791315   -0.920365
  H     -1.318871   -0.786438    0.922968

 Total Charge           Charge          ....    0
 Multiplicity           Mult            ....    3
 Number of Electrons    NEL             ....   24
 Basis Dimension        Dim             ....  182

ORBITAL ENERGIES
----------------
                 SPIN UP ORBITALS
  NO   OCC          E(Eh)            E(eV)
   0   1.0000     -19.392940      -527.7087
   1   1.0000     -10.407715      -283.2083
   2   1.0000     -10.355527      -281.7882
   3   1.0000      -1.187556       -32.3150
   4   1.0000      -0.877874       -23.8882
   5   1.0000      -0.734127       -19.9766
   6   1.0000      -0.631976       -17.1970
   7   1.0000      -0.589685       -16.0461
   8   1.0000      -0.557381       -15.1671
   9   1.0000      -0.517458       -14.0808
  10   1.0000      -0.435722       -11.8566
  11   1.0000      -0.419272       -11.4090
  12   1.0000      -0.320048        -8.7089
  13   0.0000       0.041021         1.1162
  14   0.0000       0.063082         1.7166
  15   0.0000       0.074110         2.0166
  16   0.0000       0.087346         2.3768
  17   0.0000       0.116849         3.1796

                 SPIN DOWN ORBITALS
  NO   OCC          E(Eh)            E(eV)
   0   1.0000     -19.367739      -527.0230
   1   1.0000     -10.409057      -283.2449
   2   1.0000     -10.342646      -281.4377
   3   1.0000      -1.132185       -30.8083
   4   1.0000      -0.844377       -22.9767
   5   1.0000      -0.709691       -19.3117
   6   1.0000      -0.594184       -16.1686
   7   1.0000      -0.557857       -15.1801
   8   1.0000      -0.535334       -14.5672
   9   1.0000      -0.478956       -13.0330
  10   1.0000      -0.383031       -10.4228
  11   0.0000      -0.063067        -1.7161
  12   0.0000       0.003740         0.1018
  13   0.0000       0.039976         1.0878
  14   0.0000       0.063681         1.7328
  15   0.0000       0.073761         2.0071

----------------------------------------------------------------------------------------------------
          SPIN FLIP ABSORPTION SPECTRUM VIA TRANSITION ELECTRIC DIPOLE MOMENTS
----------------------------------------------------------------------------------------------------
     Transition      Energy     Energy  Wavelength fosc(D2)      D2        DX        DY        DZ
                      (eV)      (cm-1)    (nm)                 (au**2)    (au)      (au)      (au)
----------------------------------------------------------------------------------------------------
  1-3A  ->  2-3A    0.729502    5883.8  1699.6   0.000084087   0.00470   0.00016  -0.00010  -0.06859

Dispersion correction             ... done (  0.0 sec)

MULLIKEN ATOMIC CHARGES AND SPIN DENSITIES
------------------------------------------
   0 O :   -0.335479    0.788792
   1 C :    0.111733    0.359083
   2 C :   -0.412508   -0.950785
   3 H :    0.197325    0.013740
   4 H :    0.197302    0.013994
   5 H :    0.120782   -0.112365
   6 H :    0.120845   -0.112458
Sum of atomic charges       :    0.0000000

LOEWDIN ATOMIC CHARGES AND SPIN DENSITIES
-----------------------------------------
   0 O :    0.088664    0.726448
   1 C :   -0.303267    0.024912
   2 C :    0.267801   -0.637974
   3 H :    0.038880    0.029396
   4 H :    0.038885    0.029467
   5 H :   -0.065494   -0.086142
   6 H :   -0.065468   -0.086107

  Mayer bond orders larger than 0.100000
B(  0-O ,  1-C ) :   0.9537 B(  1-C ,  2-C ) :   0.5931 B(  1-C ,  3-H ) :   0.9615
B(  1-C ,  4-H ) :   0.9616 B(  2-C ,  5-H ) :   1.1253 B(  2-C ,  6-H ) :   1.1252

Dispersion correction           -0.005615667
FINAL SINGLE POINT ENERGY      -153.744955205808

DIPOLE MOMENT
-------------

Method             : TDA/CIS
Type of density    : Electron Density
Level              : Relaxed density
State              :   2
Multiplicity       :   3
Irrep              :   0
Energy             :     0.0000000000000000 Eh
Relativity type    :
Basis              : AO
                                X                 Y                 Z
Electronic contribution:      0.963987064       2.380723740      -0.003781653
Nuclear contribution   :     -0.808932586      -2.862098983       0.004263661
                        -----------------------------------------
Total Dipole Moment    :      0.155054478      -0.481375243       0.000482008
                        -----------------------------------------
Magnitude (a.u.)       :      0.505731399
Magnitude (Debye)      :      1.285467059

Rotational constants in cm-1:             1.281136             0.396690             0.343233
Rotational constants in MHz :         38407.486147         11892.455997         10289.861546

                             ****ORCA TERMINATED NORMALLY****
TOTAL RUN TIME: 0 days 0 hours 0 minutes 16 seconds 173 msec
