                         Program Version 6.0.0  -   RELEASE  -
|  1> ! Engrad def2-TZVPPD wB97M-D3BJ
|  2> %pal nprocs 8 end%pal nprocs 64 end
|  3> %tddft Nroots 2 Iroot 2
|  4> sf true
|  5> end
|  6> *xyz 0 3
|  7> O   2.85176701 0.99033569 -0.45261191
|  8> O   -0.81279703 0.83904637 -2.42851264
|  9> O   0.44748511 -2.80390192 -1.39802686
| 10> O   -2.48059132 -1.49622695 1.06980476
| 11> N   0.55668191 -2.02835847 0.72236188
| 12> N   -1.99226175 0.69408501 1.46713713
| 13> N   1.49564162 -0.88653779 -1.00570609
| 14> N   -1.68420158 -0.27932353 -0.65283762
| 15> C   1.74396877 -0.0201246 1.33650056
| 16> C   -1.0760598 1.98583414 -0.32678312
| 17> C   0.96288326 -1.11779885 1.69204628
| 18> C   -1.23800529 1.78420762 1.06694313
| 19> C   2.27218577 0.92324177 2.33095156
| 20> C   -0.65017735 3.34264973 -0.86538795
| 21> C   2.04101685 0.11228911 -0.10310881
| 22> C   -1.15610921 0.87583153 -1.25275698
| 23> C   0.89503148 -2.04839818 -0.59110221
| 24> C   -2.09841621 -0.40929553 0.66613137
| 25> H   0.87442975 -1.62408275 2.62915626
| 26> H   -0.88372515 2.54493253 1.68430702
| 27> H   1.50426361 1.36123684 2.98883829
| 28> H   3.05529758 0.3947956 2.85760012
| 29> H   2.7864724 1.71415726 1.82837723
| 30> H   -0.6736958 3.44988617 -2.03244991
| 31> H   -1.20731988 4.1075015 -0.39835636
| 32> H   0.457978 3.51936641 -0.63173016
| 33> H   -0.09839334 -2.74261249 0.93276802
| 34> H   -2.08851551 0.43481531 2.43333443
| 35> H   1.67859654 -0.7177593 -1.96803974
| 36> H   -1.75415092 -1.15879918 -1.17868888
| 37> *
| 38>
| 39>                          ****END OF INPUT****

CARTESIAN COORDINATES (ANGSTROEM)
---------------------------------
  O      2.851767    0.990336   -0.452612
  O     -0.812797    0.839046   -2.428513
  O      0.447485   -2.803902   -1.398027
  O     -2.480591   -1.496227    1.069805
  N      0.556682   -2.028358    0.722362
  N     -1.992262    0.694085    1.467137
  N      1.495642   -0.886538   -1.005706
  N     -1.684202   -0.279324   -0.652838
  C      1.743969   -0.020125    1.336501
  C     -1.076060    1.985834   -0.326783
  C      0.962883   -1.117799    1.692046
  C     -1.238005    1.784208    1.066943
  C      2.272186    0.923242    2.330952
  C     -0.650177    3.342650   -0.865388
  C      2.041017    0.112289   -0.103109
  C     -1.156109    0.875832   -1.252757
  C      0.895031   -2.048398   -0.591102
  C     -2.098416   -0.409296    0.666131
  H      0.874430   -1.624083    2.629156
  H     -0.883725    2.544933    1.684307
  H      1.504264    1.361237    2.988838
  H      3.055298    0.394796    2.857600
  H      2.786472    1.714157    1.828377
  H     -0.673696    3.449886   -2.032450
  H     -1.207320    4.107501   -0.398356
  H      0.457978    3.519366   -0.631730
  H     -0.098393   -2.742612    0.932768
  H     -2.088516    0.434815    2.433334
  H      1.678597   -0.717759   -1.968040
  H     -1.754151   -1.158799   -1.178689

 Total Charge           Charge          ....    0
 Multiplicity           Mult            ....    3
 Number of Electrons    NEL             ....  132
 Basis Dimension        Dim             ....  882

ORBITAL ENERGIES
----------------
                 SPIN UP ORBITALS
  NO   OCC          E(Eh)            E(eV)
   0   1.0000     -19.335140      -526.1359
   1   1.0000     -19.326525      -525.9015
   2   1.0000     -19.323972      -525.8320
   3   1.0000     -19.314626      -525.5777
   4   1.0000     -14.597198      -397.2099
   5   1.0000     -14.569810      -396.4647
   6   1.0000     -14.561951      -396.2508
   7   1.0000     -14.557439      -396.1281
   8   1.0000     -10.515201      -286.1332
   9   1.0000     -10.498630      -285.6822
  10   1.0000     -10.485428      -285.3230
  11   1.0000     -10.469565      -284.8913
  12   1.0000     -10.435751      -283.9712
  13   1.0000     -10.415655      -283.4244
  14   1.0000     -10.411670      -283.3159
  15   1.0000     -10.391375      -282.7637
  16   1.0000     -10.376376      -282.3556
  17   1.0000     -10.355647      -281.7915
  18   1.0000      -1.228664       -33.4336
  19   1.0000      -1.223668       -33.2977
  20   1.0000      -1.187596       -32.3161
  21   1.0000      -1.173582       -31.9348
  22   1.0000      -1.125531       -30.6273
  23   1.0000      -1.114421       -30.3249
  24   1.0000      -1.061568       -28.8867
  25   1.0000      -1.056054       -28.7367
  26   1.0000      -0.964583       -26.2476
  27   1.0000      -0.951838       -25.9008
  28   1.0000      -0.853283       -23.2190
  29   1.0000      -0.848406       -23.0863
  30   1.0000      -0.815581       -22.1931
  31   1.0000      -0.806560       -21.9476
  32   1.0000      -0.787179       -21.4202
  33   1.0000      -0.777025       -21.1439
  34   1.0000      -0.696992       -18.9661
  35   1.0000      -0.693632       -18.8747
  36   1.0000      -0.686740       -18.6871
  37   1.0000      -0.678429       -18.4610
  38   1.0000      -0.641464       -17.4551
  39   1.0000      -0.636864       -17.3299
  40   1.0000      -0.631870       -17.1941
  41   1.0000      -0.601719       -16.3736
  42   1.0000      -0.598616       -16.2892
  43   1.0000      -0.587496       -15.9866
  44   1.0000      -0.572896       -15.5893
  45   1.0000      -0.565007       -15.3746
  46   1.0000      -0.563857       -15.3433
  47   1.0000      -0.556343       -15.1389
  48   1.0000      -0.552515       -15.0347
  49   1.0000      -0.550542       -14.9810
  50   1.0000      -0.527145       -14.3444
  51   1.0000      -0.525542       -14.3007
  52   1.0000      -0.522675       -14.2227
  53   1.0000      -0.509438       -13.8625
  54   1.0000      -0.497866       -13.5476
  55   1.0000      -0.492479       -13.4010
  56   1.0000      -0.484046       -13.1716
  57   1.0000      -0.463170       -12.6035
  58   1.0000      -0.427477       -11.6322
  59   1.0000      -0.409952       -11.1554
  60   1.0000      -0.406911       -11.0726
  61   1.0000      -0.395489       -10.7618
  62   1.0000      -0.389504       -10.5990
  63   1.0000      -0.381313       -10.3761
  64   1.0000      -0.379967       -10.3394
  65   1.0000      -0.338173        -9.2022
  66   1.0000      -0.240664        -6.5488
  67   0.0000       0.003067         0.0835
  68   0.0000       0.014885         0.4050
  69   0.0000       0.031724         0.8633
  70   0.0000       0.039636         1.0786
  71   0.0000       0.040387         1.0990

                 SPIN DOWN ORBITALS
  NO   OCC          E(Eh)            E(eV)
   0   1.0000     -19.333371      -526.0878
   1   1.0000     -19.323993      -525.8326
   2   1.0000     -19.320919      -525.7489
   3   1.0000     -19.314600      -525.5770
   4   1.0000     -14.593433      -397.1075
   5   1.0000     -14.569772      -396.4636
   6   1.0000     -14.561962      -396.2511
   7   1.0000     -14.556665      -396.1070
   8   1.0000     -10.515232      -286.1340
   9   1.0000     -10.498630      -285.6823
  10   1.0000     -10.485412      -285.3226
  11   1.0000     -10.469862      -284.8994
  12   1.0000     -10.435609      -283.9674
  13   1.0000     -10.405413      -283.1457
  14   1.0000     -10.400353      -283.0080
  15   1.0000     -10.391428      -282.7651
  16   1.0000     -10.376756      -282.3659
  17   1.0000     -10.355600      -281.7902
  18   1.0000      -1.225813       -33.3561
  19   1.0000      -1.222575       -33.2680
  20   1.0000      -1.179315       -32.0908
  21   1.0000      -1.173574       -31.9346
  22   1.0000      -1.115672       -30.3590
  23   1.0000      -1.114324       -30.3223
  24   1.0000      -1.057161       -28.7668
  25   1.0000      -1.056023       -28.7358
  26   1.0000      -0.951887       -25.9022
  27   1.0000      -0.939418       -25.5629
  28   1.0000      -0.853039       -23.2124
  29   1.0000      -0.834950       -22.7202
  30   1.0000      -0.806660       -21.9503
  31   1.0000      -0.803314       -21.8593
  32   1.0000      -0.782920       -21.3043
  33   1.0000      -0.776973       -21.1425
  34   1.0000      -0.687825       -18.7167
  35   1.0000      -0.686662       -18.6850
  36   1.0000      -0.682748       -18.5785
  37   1.0000      -0.678369       -18.4594
  38   1.0000      -0.635870       -17.3029
  39   1.0000      -0.632389       -17.2082
  40   1.0000      -0.624624       -16.9969
  41   1.0000      -0.594254       -16.1705
  42   1.0000      -0.590161       -16.0591
  43   1.0000      -0.584881       -15.9154
  44   1.0000      -0.566911       -15.4264
  45   1.0000      -0.564057       -15.3488
  46   1.0000      -0.556563       -15.1449
  47   1.0000      -0.552406       -15.0317
  48   1.0000      -0.547661       -14.9026
  49   1.0000      -0.535114       -14.5612
  50   1.0000      -0.522519       -14.2185
  51   1.0000      -0.517206       -14.0739
  52   1.0000      -0.511887       -13.9292
  53   1.0000      -0.505430       -13.7535
  54   1.0000      -0.491893       -13.3851
  55   1.0000      -0.487464       -13.2646
  56   1.0000      -0.462591       -12.5878
  57   1.0000      -0.449738       -12.2380
  58   1.0000      -0.422659       -11.5011
  59   1.0000      -0.409901       -11.1540
  60   1.0000      -0.394830       -10.7439
  61   1.0000      -0.385108       -10.4793
  62   1.0000      -0.381644       -10.3851
  63   1.0000      -0.380010       -10.3406
  64   1.0000      -0.337768        -9.1911
  65   0.0000      -0.096540        -2.6270
  66   0.0000       0.003938         0.1072
  67   0.0000       0.014310         0.3894
  68   0.0000       0.029832         0.8118
  69   0.0000       0.037068         1.0087

----------------------------------------------------------------------------------------------------
          SPIN FLIP ABSORPTION SPECTRUM VIA TRANSITION ELECTRIC DIPOLE MOMENTS
----------------------------------------------------------------------------------------------------
     Transition      Energy     Energy  Wavelength fosc(D2)      D2        DX        DY        DZ
                      (eV)      (cm-1)    (nm)                 (au**2)    (au)      (au)      (au)
----------------------------------------------------------------------------------------------------
  1-3A  ->  2-3A    3.270545   26378.7   379.1   0.000684332   0.00854  -0.02413  -0.05168  -0.07272

Dispersion correction             ... done (  0.1 sec)

MULLIKEN ATOMIC CHARGES AND SPIN DENSITIES
------------------------------------------
   0 O :   -0.693392    0.000199
   1 O :   -0.696870    0.004297
   2 O :   -0.633791   -0.000093
   3 O :   -0.635549    0.001844
   4 N :   -0.013552   -0.000235
   5 N :   -0.004563    0.005482
   6 N :    0.098504   -0.000183
   7 N :    0.048011   -0.005929
   8 C :    0.680700    0.007550
   9 C :    0.775958    0.083777
  10 C :   -0.134579    0.000953
  11 C :   -0.233345    0.134369
  12 C :   -1.362440   -0.011882
  13 C :   -1.179212   -0.005863
  14 C :    0.414062   -0.002277
  15 C :    0.300441   -0.191727
  16 C :    0.469205    0.000395
  17 C :    0.368989   -0.004049
  18 H :    0.173122    0.000089
  19 H :    0.202556   -0.038307
  20 H :    0.323626   -0.002269
  21 H :    0.349443    0.000382
  22 H :    0.274062    0.001611
  23 H :    0.275538    0.000902
  24 H :    0.364035    0.003328
  25 H :    0.258915    0.012337
  26 H :    0.024972    0.000134
  27 H :    0.101647    0.002878
  28 H :    0.018303   -0.000116
  29 H :    0.065206    0.002403
Sum of atomic charges       :   -0.0000000

LOEWDIN ATOMIC CHARGES AND SPIN DENSITIES
-----------------------------------------
   0 O :    0.047057    0.000021
   1 O :    0.066963    0.001759
   2 O :    0.101266   -0.000151
   3 O :    0.078776    0.000833
   4 N :    0.264003   -0.000341
   5 N :    0.294929    0.012013
   6 N :    0.351953   -0.000079
   7 N :    0.308683   -0.004565
   8 C :   -0.132631   -0.000387
   9 C :   -0.071919    0.007138
  10 C :    0.098331   -0.000953
  11 C :    0.056431   -0.004325
  12 C :    0.163711   -0.000561
  13 C :    0.183728    0.000492
  14 C :   -0.314904   -0.000039
  15 C :   -0.426215   -0.006008
  16 C :   -0.523614   -0.000086
  17 C :   -0.475933   -0.002374
  18 H :    0.026239   -0.000081
  19 H :   -0.032274   -0.004050
  20 H :    0.005497   -0.000298
  21 H :   -0.005129   -0.000055
  22 H :   -0.027913   -0.000054
  23 H :    0.053810    0.000025
  24 H :   -0.046594    0.000117
  25 H :    0.040570    0.001044
  26 H :   -0.042853   -0.000034
  27 H :   -0.014228    0.001390
  28 H :   -0.029381   -0.000016
  29 H :    0.001644   -0.000374

  Mayer bond orders larger than 0.100000
B(  0-O , 14-C ) :   1.4339 B(  1-O , 15-C ) :   1.2947 B(  2-O , 16-C ) :   1.5555
B(  3-O , 17-C ) :   1.5029 B(  4-N ,  8-C ) :   0.1058 B(  4-N , 10-C ) :   0.7645
B(  4-N , 16-C ) :   0.9632 B(  4-N , 26-H ) :   1.1461 B(  5-N , 11-C ) :   0.8047
B(  5-N , 17-C ) :   1.0060 B(  5-N , 27-H ) :   1.0341 B(  6-N , 14-C ) :   0.9825
B(  6-N , 16-C ) :   0.9490 B(  6-N , 28-H ) :   1.1256 B(  7-N , 15-C ) :   0.8372
B(  7-N , 17-C ) :   0.9696 B(  7-N , 29-H ) :   1.1005 B(  8-C , 10-C ) :   0.9214
B(  8-C , 12-C ) :   0.4106 B(  8-C , 14-C ) :   0.7147 B(  8-C , 18-H ) :  -0.1042
B(  8-C , 22-H ) :  -0.1648 B(  9-C , 11-C ) :   0.5467 B(  9-C , 13-C ) :   0.5967
B(  9-C , 15-C ) :   0.9410 B( 10-C , 18-H ) :   1.1047 B( 11-C , 17-C ) :  -0.1021
B( 11-C , 19-H ) :   1.0822 B( 12-C , 20-H ) :   0.8667 B( 12-C , 21-H ) :   0.8445
B( 12-C , 22-H ) :   1.1025 B( 13-C , 23-H ) :   0.9248 B( 13-C , 24-H ) :   0.9754
B( 13-C , 25-H ) :   0.9093

Dispersion correction           -0.055739014
FINAL SINGLE POINT ENERGY      -908.737157054623

DIPOLE MOMENT
-------------

Method             : TDA/CIS
Type of density    : Electron Density
Level              : Relaxed density
State              :   2
Multiplicity       :   3
Irrep              :   0
Energy             :     0.0000000000000000 Eh
Relativity type    :
Basis              : AO
                                X                 Y                 Z
Electronic contribution:     -3.663978142      -9.463658581      -5.416627349
Nuclear contribution   :      3.353735516      10.444475403       7.960035085
                        -----------------------------------------
Total Dipole Moment    :     -0.310242625       0.980816822       2.543407736
                        -----------------------------------------
Magnitude (a.u.)       :      2.743569762
Magnitude (Debye)      :      6.973600133

Rotational constants in cm-1:             0.016607             0.014646             0.012738
Rotational constants in MHz :           497.863730           439.073390           381.890200

                             ****ORCA TERMINATED NORMALLY****
TOTAL RUN TIME: 0 days 0 hours 5 minutes 8 seconds 647 msec
