                         Program Version 6.0.0  -   RELEASE  -
|  1> ! Engrad def2-TZVPPD wB97M-D3BJ
|  2> %pal nprocs 8 end%pal nprocs 64 end
|  3> %tddft
|  4>  Iroot 1 Nroots 3
|  5> sf true
|  6> end
|  7> *xyz 0 3
|  8> O   2.80062982 -0.96819262 -2.43782438
|  9> O   -2.52359801 1.30891965 -1.32609433
| 10> O   -1.28639767 -2.3644551 -1.07381909
| 11> O   -2.38670814 0.87152788 3.23230867
| 12> N   0.13229902 -1.54832787 0.48272996
| 13> N   -0.44465462 0.89218463 2.08010409
| 14> N   0.75765317 -1.65658644 -1.7552788
| 15> N   -2.39066718 0.9505369 0.92805192
| 16> C   2.2061615 -0.53705164 -0.22726981
| 17> C   -0.38646853 1.37743404 -0.28372822
| 18> C   1.13402095 -0.47237941 0.78541851
| 19> C   0.37649345 1.00482885 0.93093132
| 20> C   3.55955795 -0.34099333 0.1840279
| 21> C   0.48525336 1.64292779 -1.49624901
| 22> C   1.93516096 -1.03863504 -1.54656277
| 23> C   -1.80324729 1.21722247 -0.33078288
| 24> C   -0.20207671 -1.9304439 -0.75797631
| 25> C   -1.7840647 0.92391263 2.19442246
| 26> H   1.50188521 -0.61705532 1.78335602
| 27> H   1.12889265 1.68074803 1.14280139
| 28> H   4.08440172 -1.37750425 0.33986599
| 29> H   4.16516752 0.04561445 -0.69580965
| 30> H   3.64623719 0.32621348 1.06415202
| 31> H   0.31106418 2.55111189 -2.06666035
| 32> H   1.52965585 1.60591216 -1.09614677
| 33> H   0.20246474 0.81596026 -2.24595677
| 34> H   -0.63913713 -1.61405484 1.16095305
| 35> H   0.08460844 1.03527871 2.97640261
| 36> H   0.54540927 -2.13553992 -2.60935473
| 37> H   -3.35270378 0.78607893 1.05616875
| 38> *
| 39>
| 40>                          ****END OF INPUT****

CARTESIAN COORDINATES (ANGSTROEM)
---------------------------------
  O      2.800630   -0.968193   -2.437824
  O     -2.523598    1.308920   -1.326094
  O     -1.286398   -2.364455   -1.073819
  O     -2.386708    0.871528    3.232309
  N      0.132299   -1.548328    0.482730
  N     -0.444655    0.892185    2.080104
  N      0.757653   -1.656586   -1.755279
  N     -2.390667    0.950537    0.928052
  C      2.206161   -0.537052   -0.227270
  C     -0.386469    1.377434   -0.283728
  C      1.134021   -0.472379    0.785419
  C      0.376493    1.004829    0.930931
  C      3.559558   -0.340993    0.184028
  C      0.485253    1.642928   -1.496249
  C      1.935161   -1.038635   -1.546563
  C     -1.803247    1.217222   -0.330783
  C     -0.202077   -1.930444   -0.757976
  C     -1.784065    0.923913    2.194422
  H      1.501885   -0.617055    1.783356
  H      1.128893    1.680748    1.142801
  H      4.084402   -1.377504    0.339866
  H      4.165168    0.045614   -0.695810
  H      3.646237    0.326213    1.064152
  H      0.311064    2.551112   -2.066660
  H      1.529656    1.605912   -1.096147
  H      0.202465    0.815960   -2.245957
  H     -0.639137   -1.614055    1.160953
  H      0.084608    1.035279    2.976403
  H      0.545409   -2.135540   -2.609355
  H     -3.352704    0.786079    1.056169

 Total Charge           Charge          ....    0
 Multiplicity           Mult            ....    3
 Number of Electrons    NEL             ....  132
 Basis Dimension        Dim             ....  882

ORBITAL ENERGIES
----------------
                 SPIN UP ORBITALS
  NO   OCC          E(Eh)            E(eV)
   0   1.0000     -19.334355      -526.1146
   1   1.0000     -19.327916      -525.9393
   2   1.0000     -19.325281      -525.8676
   3   1.0000     -19.322126      -525.7818
   4   1.0000     -14.568094      -396.4180
   5   1.0000     -14.566523      -396.3752
   6   1.0000     -14.566398      -396.3718
   7   1.0000     -14.556302      -396.0971
   8   1.0000     -10.506933      -285.9082
   9   1.0000     -10.506379      -285.8931
  10   1.0000     -10.485099      -285.3140
  11   1.0000     -10.479388      -285.1586
  12   1.0000     -10.451921      -284.4112
  13   1.0000     -10.447424      -284.2889
  14   1.0000     -10.423867      -283.6478
  15   1.0000     -10.413383      -283.3625
  16   1.0000     -10.387021      -282.6452
  17   1.0000     -10.385383      -282.6006
  18   1.0000      -1.224634       -33.3240
  19   1.0000      -1.221830       -33.2477
  20   1.0000      -1.190583       -32.3974
  21   1.0000      -1.187672       -32.3182
  22   1.0000      -1.125305       -30.6211
  23   1.0000      -1.103141       -30.0180
  24   1.0000      -1.067348       -29.0440
  25   1.0000      -1.056953       -28.7612
  26   1.0000      -0.988742       -26.9050
  27   1.0000      -0.966522       -26.3004
  28   1.0000      -0.889937       -24.2164
  29   1.0000      -0.848134       -23.0789
  30   1.0000      -0.831550       -22.6276
  31   1.0000      -0.815925       -22.2024
  32   1.0000      -0.784959       -21.3598
  33   1.0000      -0.778561       -21.1857
  34   1.0000      -0.706096       -19.2138
  35   1.0000      -0.702892       -19.1267
  36   1.0000      -0.690905       -18.8005
  37   1.0000      -0.679633       -18.4938
  38   1.0000      -0.652944       -17.7675
  39   1.0000      -0.644288       -17.5320
  40   1.0000      -0.626038       -17.0354
  41   1.0000      -0.608760       -16.5652
  42   1.0000      -0.593412       -16.1476
  43   1.0000      -0.589686       -16.0462
  44   1.0000      -0.572776       -15.5860
  45   1.0000      -0.571307       -15.5461
  46   1.0000      -0.566468       -15.4144
  47   1.0000      -0.563460       -15.3325
  48   1.0000      -0.562730       -15.3127
  49   1.0000      -0.557890       -15.1810
  50   1.0000      -0.552263       -15.0279
  51   1.0000      -0.536005       -14.5854
  52   1.0000      -0.530861       -14.4455
  53   1.0000      -0.525377       -14.2962
  54   1.0000      -0.513309       -13.9678
  55   1.0000      -0.504405       -13.7256
  56   1.0000      -0.494289       -13.4503
  57   1.0000      -0.424597       -11.5539
  58   1.0000      -0.422702       -11.5023
  59   1.0000      -0.408529       -11.1167
  60   1.0000      -0.407453       -11.0874
  61   1.0000      -0.404909       -11.0181
  62   1.0000      -0.393133       -10.6977
  63   1.0000      -0.391722       -10.6593
  64   1.0000      -0.384304       -10.4574
  65   1.0000      -0.354475        -9.6458
  66   1.0000      -0.317755        -8.6466
  67   0.0000       0.003319         0.0903
  68   0.0000       0.029386         0.7996
  69   0.0000       0.029633         0.8064
  70   0.0000       0.033938         0.9235
  71   0.0000       0.053015         1.4426

                 SPIN DOWN ORBITALS
  NO   OCC          E(Eh)            E(eV)
   0   1.0000     -19.329601      -525.9852
   1   1.0000     -19.325186      -525.8650
   2   1.0000     -19.323997      -525.8327
   3   1.0000     -19.321972      -525.7776
   4   1.0000     -14.567983      -396.4150
   5   1.0000     -14.566274      -396.3685
   6   1.0000     -14.565861      -396.3572
   7   1.0000     -14.555588      -396.0777
   8   1.0000     -10.506973      -285.9093
   9   1.0000     -10.506431      -285.8945
  10   1.0000     -10.486190      -285.3437
  11   1.0000     -10.480300      -285.1835
  12   1.0000     -10.451224      -284.3923
  13   1.0000     -10.446995      -284.2772
  14   1.0000     -10.412891      -283.3492
  15   1.0000     -10.402237      -283.0593
  16   1.0000     -10.387707      -282.6639
  17   1.0000     -10.385616      -282.6070
  18   1.0000      -1.223762       -33.3002
  19   1.0000      -1.220888       -33.2220
  20   1.0000      -1.184086       -32.2206
  21   1.0000      -1.182811       -32.1859
  22   1.0000      -1.122916       -30.5561
  23   1.0000      -1.100779       -29.9537
  24   1.0000      -1.065225       -28.9862
  25   1.0000      -1.055091       -28.7105
  26   1.0000      -0.975614       -26.5478
  27   1.0000      -0.949595       -25.8398
  28   1.0000      -0.883695       -24.0466
  29   1.0000      -0.843290       -22.9471
  30   1.0000      -0.824019       -22.4227
  31   1.0000      -0.810547       -22.0561
  32   1.0000      -0.783080       -21.3087
  33   1.0000      -0.776538       -21.1307
  34   1.0000      -0.701624       -19.0922
  35   1.0000      -0.697148       -18.9704
  36   1.0000      -0.684312       -18.6211
  37   1.0000      -0.673433       -18.3250
  38   1.0000      -0.641938       -17.4680
  39   1.0000      -0.639471       -17.4009
  40   1.0000      -0.619336       -16.8530
  41   1.0000      -0.603487       -16.4217
  42   1.0000      -0.588583       -16.0162
  43   1.0000      -0.585249       -15.9254
  44   1.0000      -0.568979       -15.4827
  45   1.0000      -0.563555       -15.3351
  46   1.0000      -0.560244       -15.2450
  47   1.0000      -0.558920       -15.2090
  48   1.0000      -0.554187       -15.0802
  49   1.0000      -0.545861       -14.8536
  50   1.0000      -0.540760       -14.7148
  51   1.0000      -0.526735       -14.3332
  52   1.0000      -0.522825       -14.2268
  53   1.0000      -0.516612       -14.0577
  54   1.0000      -0.506948       -13.7947
  55   1.0000      -0.496446       -13.5090
  56   1.0000      -0.485263       -13.2047
  57   1.0000      -0.421753       -11.4765
  58   1.0000      -0.420030       -11.4296
  59   1.0000      -0.405342       -11.0299
  60   1.0000      -0.394198       -10.7267
  61   1.0000      -0.391137       -10.6434
  62   1.0000      -0.387457       -10.5432
  63   1.0000      -0.384810       -10.4712
  64   1.0000      -0.375030       -10.2051
  65   0.0000      -0.075555        -2.0559
  66   0.0000      -0.046273        -1.2591
  67   0.0000       0.003047         0.0829
  68   0.0000       0.028991         0.7889
  69   0.0000       0.029593         0.8053

----------------------------------------------------------------------------------------------------
          SPIN FLIP ABSORPTION SPECTRUM VIA TRANSITION ELECTRIC DIPOLE MOMENTS
----------------------------------------------------------------------------------------------------
     Transition      Energy     Energy  Wavelength fosc(D2)      D2        DX        DY        DZ
                      (eV)      (cm-1)    (nm)                 (au**2)    (au)      (au)      (au)
----------------------------------------------------------------------------------------------------
  1-3A  ->  2-3A    0.245417    1979.4  5052.0   0.000076329   0.01269   0.08951  -0.05408  -0.04192
  1-3A  ->  3-3A    2.240033   18067.1   553.5   0.004749684   0.08655  -0.23659   0.14562  -0.09678

Dispersion correction             ... done (  0.1 sec)

MULLIKEN ATOMIC CHARGES AND SPIN DENSITIES
------------------------------------------
   0 O :   -0.722209    0.010045
   1 O :   -0.679174   -0.008014
   2 O :   -0.651022   -0.000977
   3 O :   -0.644364   -0.000145
   4 N :   -0.295061   -0.010299
   5 N :   -0.256693    0.000915
   6 N :    0.062269   -0.000102
   7 N :    0.062139   -0.000653
   8 C :    0.320380    0.315023
   9 C :    0.565042    0.349478
  10 C :    0.365977   -0.192797
  11 C :   -0.132253   -0.183664
  12 C :   -1.469376    0.023606
  13 C :   -1.267288   -0.031598
  14 C :    0.310171   -0.132708
  15 C :    0.246246   -0.164806
  16 C :    0.390753    0.003945
  17 C :    0.483837    0.005888
  18 H :    0.617805   -0.000266
  19 H :    0.651436   -0.008439
  20 H :    0.321044    0.009576
  21 H :    0.295931    0.004468
  22 H :    0.358746    0.002872
  23 H :    0.393630   -0.000407
  24 H :    0.274970   -0.000435
  25 H :    0.196621    0.004398
  26 H :    0.087418    0.000539
  27 H :    0.100554    0.000603
  28 H :    0.021494    0.001556
  29 H :   -0.009022    0.002398
Sum of atomic charges       :   -0.0000000

LOEWDIN ATOMIC CHARGES AND SPIN DENSITIES
-----------------------------------------
   0 O :    0.055477    0.007997
   1 O :    0.081778   -0.001518
   2 O :    0.096037   -0.000705
   3 O :    0.098842   -0.000151
   4 N :    0.286754   -0.000439
   5 N :    0.236373   -0.002181
   6 N :    0.331751   -0.000413
   7 N :    0.344006   -0.004124
   8 C :   -0.115590    0.026405
   9 C :   -0.011523   -0.009885
  10 C :   -0.032095   -0.006534
  11 C :   -0.092718   -0.007641
  12 C :    0.142576    0.004884
  13 C :    0.218387   -0.001410
  14 C :   -0.446738    0.000627
  15 C :   -0.391039   -0.006001
  16 C :   -0.487489   -0.000519
  17 C :   -0.504945   -0.000755
  18 H :    0.036785   -0.000844
  19 H :    0.012985   -0.001341
  20 H :    0.074217    0.003121
  21 H :    0.028519    0.001388
  22 H :    0.010600    0.000193
  23 H :    0.005275   -0.000246
  24 H :    0.007134    0.000430
  25 H :    0.048742    0.000104
  26 H :   -0.008035    0.000054
  27 H :    0.029716   -0.000124
  28 H :   -0.008852   -0.000004
  29 H :   -0.046930   -0.000369

  Mayer bond orders larger than 0.100000
B(  0-O , 14-C ) :   1.2466 B(  1-O , 15-C ) :   1.2754 B(  2-O , 16-C ) :   1.5104
B(  3-O , 17-C ) :   1.6217 B(  4-N ,  8-C ) :   0.3005 B(  4-N ,  9-C ) :   0.1098
B(  4-N , 10-C ) :   0.2746 B(  4-N , 16-C ) :   1.0782 B(  4-N , 18-H ) :  -0.1113
B(  4-N , 26-H ) :   1.0506 B(  5-N , 10-C ) :   0.1171 B(  5-N , 11-C ) :   0.4476
B(  5-N , 17-C ) :   1.1077 B(  5-N , 27-H ) :   1.1246 B(  6-N , 10-C ) :   0.1121
B(  6-N , 14-C ) :   1.0781 B(  6-N , 16-C ) :   0.9308 B(  6-N , 28-H ) :   1.1095
B(  7-N ,  9-C ) :  -0.1055 B(  7-N , 11-C ) :   0.1207 B(  7-N , 15-C ) :   1.0460
B(  7-N , 17-C ) :   0.9286 B(  7-N , 29-H ) :   1.1289 B(  8-C ,  9-C ) :   0.1494
B(  8-C , 10-C ) :   0.3157 B(  8-C , 12-C ) :   0.3960 B(  8-C , 14-C ) :   0.7964
B(  8-C , 18-H ) :  -0.1667 B(  8-C , 21-H ) :  -0.1102 B(  9-C , 10-C ) :   0.1874
B(  9-C , 11-C ) :   0.5945 B(  9-C , 13-C ) :   0.3181 B(  9-C , 15-C ) :   0.7722
B(  9-C , 19-H ) :  -0.2029 B(  9-C , 24-H ) :  -0.1837 B(  9-C , 25-H ) :  -0.1009
B( 10-C , 11-C ) :   0.4109 B( 10-C , 13-C ) :  -0.1232 B( 10-C , 14-C ) :  -0.2489
B( 10-C , 18-H ) :   0.6855 B( 11-C , 17-C ) :  -0.1109 B( 11-C , 19-H ) :   0.5819
B( 11-C , 27-H ) :  -0.1103 B( 12-C , 20-H ) :   0.9070 B( 12-C , 21-H ) :   1.0174
B( 12-C , 22-H ) :   0.9038 B( 13-C , 14-C ) :   0.1143 B( 13-C , 23-H ) :   0.8634
B( 13-C , 24-H ) :   1.0769 B( 13-C , 25-H ) :   1.0184

Dispersion correction           -0.058822320
FINAL SINGLE POINT ENERGY      -908.777582731222

DIPOLE MOMENT
-------------

Method             : TDA/CIS
Type of density    : Electron Density
Level              : Relaxed density
State              :   1
Multiplicity       :   3
Irrep              :   0
Energy             :     0.0000000000000000 Eh
Relativity type    :
Basis              : AO
                                X                 Y                 Z
Electronic contribution:    -10.161262186      -2.799240864       0.322418958
Nuclear contribution   :     12.418503262       3.435066798       1.066402688
                        -----------------------------------------
Total Dipole Moment    :      2.257241075       0.635825934       1.388821646
                        -----------------------------------------
Magnitude (a.u.)       :      2.725479307
Magnitude (Debye)      :      6.927617853

Rotational constants in cm-1:             0.023430             0.011554             0.010589
Rotational constants in MHz :           702.420388           346.378669           317.435989

                             ****ORCA TERMINATED NORMALLY****
TOTAL RUN TIME: 0 days 0 hours 4 minutes 59 seconds 762 msec
