                         Program Version 6.0.0  -   RELEASE  -
|  1> ! Engrad def2-TZVPPD wB97M-D3BJ
|  2> %pal nprocs 8 end%pal nprocs 64 end
|  3> %tddft Nroots 2 Iroot 2
|  4> sf true
|  5> end
|  6> *xyz 0 3
|  7> O   2.51498806 1.24316209 -0.36538179
|  8> O   -0.78563224 0.83827801 -2.3992999
|  9> O   0.57226374 -2.68773982 -1.56216526
| 10> O   -2.48216234 -1.56734441 1.06767669
| 11> N   0.5966406 -2.11134488 0.63852404
| 12> N   -1.85590013 0.58562085 1.42368839
| 13> N   1.61781913 -0.7653806 -0.92574788
| 14> N   -1.68939785 -0.31613426 -0.67074803
| 15> C   1.44218194 0.00347014 1.35579113
| 16> C   -0.84872659 1.91674857 -0.29036409
| 17> C   0.81372213 -1.15512161 1.59996237
| 18> C   -1.24889087 1.74201193 0.99849763
| 19> C   1.71567817 1.050254 2.38415753
| 20> C   -0.18713177 3.14857351 -0.78646162
| 21> C   1.91712882 0.2396774 -0.01023074
| 22> C   -1.08853891 0.8161124 -1.22889746
| 23> C   0.91299742 -1.91954758 -0.68869398
| 24> C   -2.04179594 -0.52122872 0.64131388
| 25> H   0.46726238 -1.40304967 2.60247765
| 26> H   -1.09869486 2.52465505 1.76091343
| 27> H   1.36026097 2.00798857 2.0708303
| 28> H   1.23142524 0.80952199 3.33927529
| 29> H   2.78933385 1.15174978 2.55553977
| 30> H   -0.73538886 3.57994518 -1.6367377
| 31> H   -0.11797779 3.90355705 0.00138563
| 32> H   0.81246264 2.92062426 -1.12299207
| 33> H   -0.02474814 -2.88775755 0.83722629
| 34> H   -2.10961136 0.47585082 2.38642064
| 35> H   1.80925495 -0.54946508 -1.89524185
| 36> H   -1.80004801 -1.12155784 -1.28297782
| 37> *
| 38>
| 39>                          ****END OF INPUT****

CARTESIAN COORDINATES (ANGSTROEM)
---------------------------------
  O      2.514988    1.243162   -0.365382
  O     -0.785632    0.838278   -2.399300
  O      0.572264   -2.687740   -1.562165
  O     -2.482162   -1.567344    1.067677
  N      0.596641   -2.111345    0.638524
  N     -1.855900    0.585621    1.423688
  N      1.617819   -0.765381   -0.925748
  N     -1.689398   -0.316134   -0.670748
  C      1.442182    0.003470    1.355791
  C     -0.848727    1.916749   -0.290364
  C      0.813722   -1.155122    1.599962
  C     -1.248891    1.742012    0.998498
  C      1.715678    1.050254    2.384158
  C     -0.187132    3.148574   -0.786462
  C      1.917129    0.239677   -0.010231
  C     -1.088539    0.816112   -1.228897
  C      0.912997   -1.919548   -0.688694
  C     -2.041796   -0.521229    0.641314
  H      0.467262   -1.403050    2.602478
  H     -1.098695    2.524655    1.760913
  H      1.360261    2.007989    2.070830
  H      1.231425    0.809522    3.339275
  H      2.789334    1.151750    2.555540
  H     -0.735389    3.579945   -1.636738
  H     -0.117978    3.903557    0.001386
  H      0.812463    2.920624   -1.122992
  H     -0.024748   -2.887758    0.837226
  H     -2.109611    0.475851    2.386421
  H      1.809255   -0.549465   -1.895242
  H     -1.800048   -1.121558   -1.282978

 Total Charge           Charge          ....    0
 Multiplicity           Mult            ....    3
 Number of Electrons    NEL             ....  132
 Basis Dimension        Dim             ....  882

ORBITAL ENERGIES
----------------
                 SPIN UP ORBITALS
  NO   OCC          E(Eh)            E(eV)
   0   1.0000     -19.338813      -526.2358
   1   1.0000     -19.321747      -525.7715
   2   1.0000     -19.321484      -525.7643
   3   1.0000     -19.318560      -525.6847
   4   1.0000     -14.597252      -397.2114
   5   1.0000     -14.577977      -396.6869
   6   1.0000     -14.566152      -396.3651
   7   1.0000     -14.556391      -396.0995
   8   1.0000     -10.515996      -286.1548
   9   1.0000     -10.506716      -285.9023
  10   1.0000     -10.478199      -285.1263
  11   1.0000     -10.461187      -284.6634
  12   1.0000     -10.432051      -283.8705
  13   1.0000     -10.408787      -283.2375
  14   1.0000     -10.405885      -283.1585
  15   1.0000     -10.379798      -282.4487
  16   1.0000     -10.360688      -281.9287
  17   1.0000     -10.360621      -281.9268
  18   1.0000      -1.233425       -33.5632
  19   1.0000      -1.219580       -33.1865
  20   1.0000      -1.193971       -32.4896
  21   1.0000      -1.187274       -32.3074
  22   1.0000      -1.131197       -30.7814
  23   1.0000      -1.117161       -30.3995
  24   1.0000      -1.065883       -29.0042
  25   1.0000      -1.065787       -29.0015
  26   1.0000      -0.973569       -26.4921
  27   1.0000      -0.956088       -26.0165
  28   1.0000      -0.856099       -23.2956
  29   1.0000      -0.848766       -23.0961
  30   1.0000      -0.811996       -22.0955
  31   1.0000      -0.807953       -21.9855
  32   1.0000      -0.794893       -21.6301
  33   1.0000      -0.789810       -21.4918
  34   1.0000      -0.702432       -19.1141
  35   1.0000      -0.695220       -18.9179
  36   1.0000      -0.692712       -18.8497
  37   1.0000      -0.688484       -18.7346
  38   1.0000      -0.644434       -17.5359
  39   1.0000      -0.636659       -17.3244
  40   1.0000      -0.632221       -17.2036
  41   1.0000      -0.599627       -16.3167
  42   1.0000      -0.597189       -16.2503
  43   1.0000      -0.592221       -16.1152
  44   1.0000      -0.575034       -15.6475
  45   1.0000      -0.573519       -15.6062
  46   1.0000      -0.560028       -15.2391
  47   1.0000      -0.554690       -15.0939
  48   1.0000      -0.548849       -14.9349
  49   1.0000      -0.547812       -14.9067
  50   1.0000      -0.530148       -14.4261
  51   1.0000      -0.525892       -14.3102
  52   1.0000      -0.521599       -14.1934
  53   1.0000      -0.516259       -14.0481
  54   1.0000      -0.503329       -13.6963
  55   1.0000      -0.501999       -13.6601
  56   1.0000      -0.496263       -13.5040
  57   1.0000      -0.473258       -12.8780
  58   1.0000      -0.427092       -11.6218
  59   1.0000      -0.412592       -11.2272
  60   1.0000      -0.410374       -11.1668
  61   1.0000      -0.397318       -10.8116
  62   1.0000      -0.389575       -10.6009
  63   1.0000      -0.387854       -10.5540
  64   1.0000      -0.384501       -10.4628
  65   1.0000      -0.344698        -9.3797
  66   1.0000      -0.214730        -5.8431
  67   0.0000       0.012092         0.3290
  68   0.0000       0.021550         0.5864
  69   0.0000       0.032963         0.8970
  70   0.0000       0.039621         1.0781
  71   0.0000       0.040279         1.0960

                 SPIN DOWN ORBITALS
  NO   OCC          E(Eh)            E(eV)
   0   1.0000     -19.336903      -526.1839
   1   1.0000     -19.321685      -525.7698
   2   1.0000     -19.318522      -525.6837
   3   1.0000     -19.315465      -525.6005
   4   1.0000     -14.592940      -397.0941
   5   1.0000     -14.577939      -396.6859
   6   1.0000     -14.566151      -396.3651
   7   1.0000     -14.555428      -396.0733
   8   1.0000     -10.516250      -286.1617
   9   1.0000     -10.506725      -285.9025
  10   1.0000     -10.478205      -285.1265
  11   1.0000     -10.460955      -284.6571
  12   1.0000     -10.432010      -283.8694
  13   1.0000     -10.399148      -282.9752
  14   1.0000     -10.395143      -282.8662
  15   1.0000     -10.379786      -282.4483
  16   1.0000     -10.361039      -281.9382
  17   1.0000     -10.360563      -281.9253
  18   1.0000      -1.229334       -33.4519
  19   1.0000      -1.219416       -33.1820
  20   1.0000      -1.187373       -32.3101
  21   1.0000      -1.184808       -32.2403
  22   1.0000      -1.121116       -30.5071
  23   1.0000      -1.117029       -30.3959
  24   1.0000      -1.065753       -29.0006
  25   1.0000      -1.060665       -28.8622
  26   1.0000      -0.956463       -26.0267
  27   1.0000      -0.948287       -25.8042
  28   1.0000      -0.849156       -23.1067
  29   1.0000      -0.843784       -22.9605
  30   1.0000      -0.808496       -22.0003
  31   1.0000      -0.801438       -21.8082
  32   1.0000      -0.789818       -21.4920
  33   1.0000      -0.787676       -21.4338
  34   1.0000      -0.692978       -18.8569
  35   1.0000      -0.690870       -18.7995
  36   1.0000      -0.688467       -18.7341
  37   1.0000      -0.686206       -18.6726
  38   1.0000      -0.636769       -17.3274
  39   1.0000      -0.633646       -17.2424
  40   1.0000      -0.625845       -17.0301
  41   1.0000      -0.593086       -16.1387
  42   1.0000      -0.589886       -16.0516
  43   1.0000      -0.589381       -16.0379
  44   1.0000      -0.567642       -15.4463
  45   1.0000      -0.560220       -15.2444
  46   1.0000      -0.558376       -15.1942
  47   1.0000      -0.548991       -14.9388
  48   1.0000      -0.542360       -14.7584
  49   1.0000      -0.540100       -14.6969
  50   1.0000      -0.521518       -14.1912
  51   1.0000      -0.521106       -14.1800
  52   1.0000      -0.513754       -13.9799
  53   1.0000      -0.507283       -13.8039
  54   1.0000      -0.502860       -13.6835
  55   1.0000      -0.498063       -13.5530
  56   1.0000      -0.472023       -12.8444
  57   1.0000      -0.453702       -12.3459
  58   1.0000      -0.423085       -11.5127
  59   1.0000      -0.411596       -11.2001
  60   1.0000      -0.397461       -10.8155
  61   1.0000      -0.387211       -10.5366
  62   1.0000      -0.384577       -10.4649
  63   1.0000      -0.380620       -10.3572
  64   1.0000      -0.343570        -9.3490
  65   0.0000      -0.105352        -2.8668
  66   0.0000       0.011872         0.3231
  67   0.0000       0.022960         0.6248
  68   0.0000       0.031772         0.8645
  69   0.0000       0.038291         1.0419

----------------------------------------------------------------------------------------------------
          SPIN FLIP ABSORPTION SPECTRUM VIA TRANSITION ELECTRIC DIPOLE MOMENTS
----------------------------------------------------------------------------------------------------
     Transition      Energy     Energy  Wavelength fosc(D2)      D2        DX        DY        DZ
                      (eV)      (cm-1)    (nm)                 (au**2)    (au)      (au)      (au)
----------------------------------------------------------------------------------------------------
  1-3A  ->  2-3A    4.101031   33077.0   302.3   0.001111148   0.01106  -0.01245   0.04616   0.09367

Dispersion correction             ... done (  0.1 sec)

MULLIKEN ATOMIC CHARGES AND SPIN DENSITIES
------------------------------------------
   0 O :   -0.692605   -0.000719
   1 O :   -0.679630    0.006391
   2 O :   -0.648435   -0.000036
   3 O :   -0.646723    0.001640
   4 N :   -0.045064   -0.001502
   5 N :    0.114609    0.028468
   6 N :    0.055658   -0.003749
   7 N :    0.009321   -0.010666
   8 C :    0.753627   -0.036784
   9 C :    1.308982    0.080732
  10 C :    0.078827    0.018616
  11 C :   -0.612550    0.033171
  12 C :   -1.444291   -0.003188
  13 C :   -1.270011   -0.023669
  14 C :    0.338824    0.019940
  15 C :    0.190960   -0.143221
  16 C :    0.352437    0.000103
  17 C :    0.471947   -0.004230
  18 H :    0.155060    0.002050
  19 H :    0.133747    0.009032
  20 H :    0.243182   -0.002129
  21 H :    0.335380    0.001037
  22 H :    0.365047   -0.000717
  23 H :    0.344500    0.008900
  24 H :    0.330286   -0.001928
  25 H :    0.253417    0.019574
  26 H :    0.072009    0.000169
  27 H :    0.036664    0.000341
  28 H :    0.050193   -0.000053
  29 H :    0.044631    0.002426
Sum of atomic charges       :    0.0000000

LOEWDIN ATOMIC CHARGES AND SPIN DENSITIES
-----------------------------------------
   0 O :    0.077949   -0.000336
   1 O :    0.083212    0.004960
   2 O :    0.085215   -0.000153
   3 O :    0.094441    0.001056
   4 N :    0.274216   -0.000138
   5 N :    0.304171    0.018009
   6 N :    0.343708   -0.000160
   7 N :    0.316722   -0.006346
   8 C :   -0.143521   -0.000514
   9 C :   -0.092810    0.006343
  10 C :    0.038530   -0.000072
  11 C :    0.003956   -0.010528
  12 C :    0.170620   -0.000805
  13 C :    0.209380    0.001663
  14 C :   -0.387108    0.000070
  15 C :   -0.435082   -0.006924
  16 C :   -0.486621   -0.000038
  17 C :   -0.491557   -0.003065
  18 H :    0.047336    0.000011
  19 H :    0.019399   -0.005396
  20 H :   -0.034201   -0.000215
  21 H :    0.003298   -0.000037
  22 H :    0.005397   -0.000185
  23 H :    0.023400    0.000830
  24 H :    0.001740   -0.000298
  25 H :   -0.009747    0.001064
  26 H :   -0.009354   -0.000018
  27 H :   -0.010366    0.001953
  28 H :    0.001928   -0.000046
  29 H :   -0.004251   -0.000683

  Mayer bond orders larger than 0.100000
B(  0-O , 14-C ) :   1.4555 B(  1-O , 15-C ) :   1.2941 B(  2-O , 16-C ) :   1.5622
B(  3-O , 17-C ) :   1.5262 B(  4-N , 10-C ) :   0.8479 B(  4-N , 16-C ) :   1.0189
B(  4-N , 26-H ) :   1.0977 B(  5-N , 11-C ) :   0.9085 B(  5-N , 17-C ) :   0.9794
B(  5-N , 27-H ) :   1.0988 B(  6-N , 14-C ) :   1.0390 B(  6-N , 16-C ) :   0.9083
B(  6-N , 28-H ) :   1.0989 B(  7-N , 15-C ) :   0.8269 B(  7-N , 16-C ) :   0.1123
B(  7-N , 17-C ) :   0.9499 B(  7-N , 29-H ) :   1.1165 B(  8-C , 10-C ) :   1.1028
B(  8-C , 12-C ) :   0.3918 B(  8-C , 14-C ) :   0.7340 B(  9-C , 11-C ) :   0.4446
B(  9-C , 13-C ) :   0.4003 B(  9-C , 15-C ) :   0.8067 B(  9-C , 19-H ) :  -0.1371
B(  9-C , 24-H ) :  -0.1173 B( 10-C , 12-C ) :  -0.1462 B( 10-C , 18-H ) :   1.1284
B( 11-C , 13-C ) :  -0.1390 B( 11-C , 19-H ) :   1.2049 B( 12-C , 20-H ) :   1.0121
B( 12-C , 21-H ) :   0.9909 B( 12-C , 22-H ) :   0.9055 B( 13-C , 23-H ) :   0.8792
B( 13-C , 24-H ) :   1.0294 B( 13-C , 25-H ) :   0.9346

Dispersion correction           -0.059518475
FINAL SINGLE POINT ENERGY      -908.774530390004

DIPOLE MOMENT
-------------

Method             : TDA/CIS
Type of density    : Electron Density
Level              : Relaxed density
State              :   2
Multiplicity       :   3
Irrep              :   0
Energy             :     0.0000000000000000 Eh
Relativity type    :
Basis              : AO
                                X                 Y                 Z
Electronic contribution:     -2.862023434      -9.663554270      -5.910007991
Nuclear contribution   :      2.515887299      10.474914189       8.444710625
                        -----------------------------------------
Total Dipole Moment    :     -0.346136135       0.811359919       2.534702634
                        -----------------------------------------
Magnitude (a.u.)       :      2.683809343
Magnitude (Debye)      :      6.821701219

Rotational constants in cm-1:             0.016909             0.016139             0.014065
Rotational constants in MHz :           506.925210           483.842156           421.654236

                             ****ORCA TERMINATED NORMALLY****
TOTAL RUN TIME: 0 days 0 hours 5 minutes 19 seconds 476 msec
