                         Program Version 6.0.0  -   RELEASE  -
|  1> ! Engrad def2-TZVPPD wB97M-D3BJ
|  2> %pal nprocs 8 end%pal nprocs 32 end
|  3>  %tddft nroots 2 Iroot 2
|  4> sf true
|  5> end
|  6> *xyz 0 3
|  7> O   2.60755995570874 1.15850437023835 -0.55354945613576
|  8> O   -0.5982634642633 0.8444775871161 -2.27373391227166
|  9> O   0.70197009008647 -2.86705120931525 -1.45561026766168
| 10> O   -2.5800481210622 -1.646317073666 0.9702437355217
| 11> N   0.58435044485608 -2.05283432153505 0.66810465722742
| 12> N   -1.97284087653373 0.49511687532162 1.44646726938971
| 13> N   1.71157274292992 -0.88089625124491 -0.96155459188622
| 14> N   -1.64207303887201 -0.3550484113783 -0.66264798109442
| 15> C   1.33847664400016 0.15344636488243 1.18037794222278
| 16> C   -0.77976559109863 1.8326736141618 -0.1208697717665
| 17> C   0.73361571333666 -0.98987387529303 1.52885041297468
| 18> C   -1.32530484148052 1.65359922992931 1.08644297123228
| 19> C   1.60744612634177 1.27181565691989 2.13498443236794
| 20> C   -0.07955870124976 3.08479999449881 -0.54081704069087
| 21> C   1.94602147558489 0.22545576119464 -0.14953959458552
| 22> C   -0.97358540894349 0.78466302166774 -1.12488666080335
| 23> C   0.97704799931099 -2.00516938532189 -0.65206595003075
| 24> C   -2.10828988299609 -0.58855095965004 0.60836316735227
| 25> H   0.31877595643475 -1.14348199197092 2.51335866640092
| 26> H   -1.26550823395972 2.40422154326631 1.85935596773283
| 27> H   1.37192783565882 2.2319854236789 1.68415645733799
| 28> H   1.02498368966527 1.15137675057488 3.04642463204257
| 29> H   2.66288047815093 1.30062473063158 2.401391373948
| 30> H   -0.56722283359009 3.51643138665617 -1.41250496451677
| 31> H   -0.08679201579952 3.81679869104717 0.26406055524813
| 32> H   0.95080914536376 2.87189892584079 -0.8161118447734
| 33> H   -0.04440574001544 -2.80270052595438 0.90041619209
| 34> H   -2.33635772481135 0.36992006457231 2.37355695952629
| 35> H   2.00590191759882 -0.80093023539356 -1.92251389748423
| 36> H   -1.73072374035219 -1.11995575147549 -1.31554945891445
| 37> *
| 38>
| 39>                          ****END OF INPUT****

CARTESIAN COORDINATES (ANGSTROEM)
---------------------------------
  O      2.607560    1.158504   -0.553549
  O     -0.598263    0.844478   -2.273734
  O      0.701970   -2.867051   -1.455610
  O     -2.580048   -1.646317    0.970244
  N      0.584350   -2.052834    0.668105
  N     -1.972841    0.495117    1.446467
  N      1.711573   -0.880896   -0.961555
  N     -1.642073   -0.355048   -0.662648
  C      1.338477    0.153446    1.180378
  C     -0.779766    1.832674   -0.120870
  C      0.733616   -0.989874    1.528850
  C     -1.325305    1.653599    1.086443
  C      1.607446    1.271816    2.134984
  C     -0.079559    3.084800   -0.540817
  C      1.946021    0.225456   -0.149540
  C     -0.973585    0.784663   -1.124887
  C      0.977048   -2.005169   -0.652066
  C     -2.108290   -0.588551    0.608363
  H      0.318776   -1.143482    2.513359
  H     -1.265508    2.404222    1.859356
  H      1.371928    2.231985    1.684156
  H      1.024984    1.151377    3.046425
  H      2.662880    1.300625    2.401391
  H     -0.567223    3.516431   -1.412505
  H     -0.086792    3.816799    0.264061
  H      0.950809    2.871899   -0.816112
  H     -0.044406   -2.802701    0.900416
  H     -2.336358    0.369920    2.373557
  H      2.005902   -0.800930   -1.922514
  H     -1.730724   -1.119956   -1.315549

 Total Charge           Charge          ....    0
 Multiplicity           Mult            ....    3
 Number of Electrons    NEL             ....  132
 Basis Dimension        Dim             ....  882

ORBITAL ENERGIES
----------------
                 SPIN UP ORBITALS
  NO   OCC          E(Eh)            E(eV)
   0   1.0000     -19.339505      -526.2547
   1   1.0000     -19.320749      -525.7443
   2   1.0000     -19.320637      -525.7412
   3   1.0000     -19.319798      -525.7184
   4   1.0000     -14.597438      -397.2165
   5   1.0000     -14.577474      -396.6732
   6   1.0000     -14.563465      -396.2920
   7   1.0000     -14.556307      -396.0973
   8   1.0000     -10.517137      -286.1858
   9   1.0000     -10.506474      -285.8957
  10   1.0000     -10.476537      -285.0811
  11   1.0000     -10.459499      -284.6174
  12   1.0000     -10.432660      -283.8871
  13   1.0000     -10.409263      -283.2504
  14   1.0000     -10.403170      -283.0846
  15   1.0000     -10.380506      -282.4679
  16   1.0000     -10.362367      -281.9744
  17   1.0000     -10.361616      -281.9539
  18   1.0000      -1.232907       -33.5491
  19   1.0000      -1.220053       -33.1993
  20   1.0000      -1.193359       -32.4729
  21   1.0000      -1.189944       -32.3800
  22   1.0000      -1.130939       -30.7744
  23   1.0000      -1.118186       -30.4274
  24   1.0000      -1.066353       -29.0169
  25   1.0000      -1.064423       -28.9644
  26   1.0000      -0.978707       -26.6320
  27   1.0000      -0.957294       -26.0493
  28   1.0000      -0.856865       -23.3165
  29   1.0000      -0.850027       -23.1304
  30   1.0000      -0.814353       -22.1597
  31   1.0000      -0.808465       -21.9995
  32   1.0000      -0.794983       -21.6326
  33   1.0000      -0.788977       -21.4692
  34   1.0000      -0.705743       -19.2042
  35   1.0000      -0.695733       -18.9319
  36   1.0000      -0.693250       -18.8643
  37   1.0000      -0.688987       -18.7483
  38   1.0000      -0.647174       -17.6105
  39   1.0000      -0.637045       -17.3349
  40   1.0000      -0.635871       -17.3029
  41   1.0000      -0.600126       -16.3303
  42   1.0000      -0.599342       -16.3089
  43   1.0000      -0.593083       -16.1386
  44   1.0000      -0.578931       -15.7535
  45   1.0000      -0.575207       -15.6522
  46   1.0000      -0.560960       -15.2645
  47   1.0000      -0.551934       -15.0189
  48   1.0000      -0.551030       -14.9943
  49   1.0000      -0.548342       -14.9211
  50   1.0000      -0.529761       -14.4155
  51   1.0000      -0.524129       -14.2623
  52   1.0000      -0.521347       -14.1866
  53   1.0000      -0.517996       -14.0954
  54   1.0000      -0.506482       -13.7821
  55   1.0000      -0.504028       -13.7153
  56   1.0000      -0.497191       -13.5293
  57   1.0000      -0.474192       -12.9034
  58   1.0000      -0.426869       -11.6157
  59   1.0000      -0.412824       -11.2335
  60   1.0000      -0.410810       -11.1787
  61   1.0000      -0.396388       -10.7863
  62   1.0000      -0.392535       -10.6814
  63   1.0000      -0.388762       -10.5788
  64   1.0000      -0.383318       -10.4306
  65   1.0000      -0.345186        -9.3930
  66   1.0000      -0.212111        -5.7718
  67   0.0000       0.011017         0.2998
  68   0.0000       0.020613         0.5609
  69   0.0000       0.033030         0.8988
  70   0.0000       0.039107         1.0641
  71   0.0000       0.040549         1.1034

                 SPIN DOWN ORBITALS
  NO   OCC          E(Eh)            E(eV)
   0   1.0000     -19.337741      -526.2067
   1   1.0000     -19.320751      -525.7444
   2   1.0000     -19.319721      -525.7163
   3   1.0000     -19.314502      -525.5743
   4   1.0000     -14.593071      -397.0977
   5   1.0000     -14.577209      -396.6660
   6   1.0000     -14.563474      -396.2923
   7   1.0000     -14.555357      -396.0714
   8   1.0000     -10.517428      -286.1938
   9   1.0000     -10.506487      -285.8961
  10   1.0000     -10.476511      -285.0804
  11   1.0000     -10.459066      -284.6057
  12   1.0000     -10.432176      -283.8739
  13   1.0000     -10.399903      -282.9958
  14   1.0000     -10.392540      -282.7954
  15   1.0000     -10.380626      -282.4712
  16   1.0000     -10.362253      -281.9712
  17   1.0000     -10.362002      -281.9644
  18   1.0000      -1.228978       -33.4422
  19   1.0000      -1.219794       -33.1923
  20   1.0000      -1.190328       -32.3905
  21   1.0000      -1.183822       -32.2134
  22   1.0000      -1.120923       -30.5019
  23   1.0000      -1.117512       -30.4091
  24   1.0000      -1.064377       -28.9632
  25   1.0000      -1.060976       -28.8706
  26   1.0000      -0.960596       -26.1391
  27   1.0000      -0.950312       -25.8593
  28   1.0000      -0.849488       -23.1157
  29   1.0000      -0.845465       -23.0063
  30   1.0000      -0.809735       -22.0340
  31   1.0000      -0.802855       -21.8468
  32   1.0000      -0.788953       -21.4685
  33   1.0000      -0.787733       -21.4353
  34   1.0000      -0.694287       -18.8925
  35   1.0000      -0.693074       -18.8595
  36   1.0000      -0.689102       -18.7514
  37   1.0000      -0.686996       -18.6941
  38   1.0000      -0.638662       -17.3789
  39   1.0000      -0.633458       -17.2373
  40   1.0000      -0.629510       -17.1298
  41   1.0000      -0.594891       -16.1878
  42   1.0000      -0.591629       -16.0991
  43   1.0000      -0.589096       -16.0301
  44   1.0000      -0.569132       -15.4869
  45   1.0000      -0.565622       -15.3914
  46   1.0000      -0.559957       -15.2372
  47   1.0000      -0.550402       -14.9772
  48   1.0000      -0.544253       -14.8099
  49   1.0000      -0.534861       -14.5543
  50   1.0000      -0.521398       -14.1880
  51   1.0000      -0.520925       -14.1751
  52   1.0000      -0.515070       -14.0158
  53   1.0000      -0.506687       -13.7877
  54   1.0000      -0.504867       -13.7381
  55   1.0000      -0.499296       -13.5865
  56   1.0000      -0.471991       -12.8435
  57   1.0000      -0.455966       -12.4075
  58   1.0000      -0.422908       -11.5079
  59   1.0000      -0.412311       -11.2195
  60   1.0000      -0.397030       -10.8037
  61   1.0000      -0.386822       -10.5260
  62   1.0000      -0.383923       -10.4471
  63   1.0000      -0.380573       -10.3559
  64   1.0000      -0.344022        -9.3613
  65   0.0000      -0.109109        -2.9690
  66   0.0000       0.010654         0.2899
  67   0.0000       0.023691         0.6447
  68   0.0000       0.030975         0.8429
  69   0.0000       0.037322         1.0156

----------------------------------------------------------------------------------------------------
          SPIN FLIP ABSORPTION SPECTRUM VIA TRANSITION ELECTRIC DIPOLE MOMENTS
----------------------------------------------------------------------------------------------------
     Transition      Energy     Energy  Wavelength fosc(D2)      D2        DX        DY        DZ
                      (eV)      (cm-1)    (nm)                 (au**2)    (au)      (au)      (au)
----------------------------------------------------------------------------------------------------
  1-3A  ->  2-3A    4.195811   33841.5   295.5   0.001316030   0.01280  -0.03499   0.04641   0.09708

Dispersion correction             ... done (  0.1 sec)

MULLIKEN ATOMIC CHARGES AND SPIN DENSITIES
------------------------------------------
   0 O :   -0.685402   -0.002157
   1 O :   -0.688025    0.007850
   2 O :   -0.649217    0.000029
   3 O :   -0.646999    0.002958
   4 N :   -0.055903   -0.000155
   5 N :    0.090159    0.031451
   6 N :    0.049657   -0.003269
   7 N :    0.000755   -0.010345
   8 C :    0.952054   -0.012425
   9 C :    0.979181    0.030424
  10 C :    0.038119   -0.003105
  11 C :   -0.282984    0.068196
  12 C :   -1.472401   -0.000114
  13 C :   -1.446763   -0.021340
  14 C :    0.181304    0.012638
  15 C :    0.383133   -0.120100
  16 C :    0.399695    0.000960
  17 C :    0.449161   -0.002430
  18 H :    0.197157    0.000544
  19 H :    0.146955   -0.000235
  20 H :    0.246143    0.004858
  21 H :    0.328040   -0.003208
  22 H :    0.374833   -0.002672
  23 H :    0.376360    0.007719
  24 H :    0.340418   -0.001374
  25 H :    0.254638    0.013614
  26 H :    0.063253    0.000401
  27 H :    0.033068    0.000288
  28 H :    0.026849   -0.000491
  29 H :    0.016764    0.001490
Sum of atomic charges       :   -0.0000000

LOEWDIN ATOMIC CHARGES AND SPIN DENSITIES
-----------------------------------------
   0 O :    0.087076   -0.001001
   1 O :    0.083736    0.006352
   2 O :    0.090543    0.000137
   3 O :    0.094051    0.002174
   4 N :    0.282348   -0.000105
   5 N :    0.307928    0.019016
   6 N :    0.346691   -0.000220
   7 N :    0.322378   -0.006718
   8 C :   -0.145658   -0.000616
   9 C :   -0.105923    0.006824
  10 C :    0.046217   -0.000201
  11 C :   -0.003961   -0.012582
  12 C :    0.174981   -0.000814
  13 C :    0.217421    0.002066
  14 C :   -0.399536   -0.000544
  15 C :   -0.432853   -0.007199
  16 C :   -0.479905   -0.000039
  17 C :   -0.485198   -0.002889
  18 H :    0.042811    0.000101
  19 H :    0.007777   -0.006211
  20 H :   -0.018838   -0.000087
  21 H :   -0.003578   -0.000243
  22 H :    0.005195   -0.000225
  23 H :    0.015255    0.000977
  24 H :   -0.002161   -0.000333
  25 H :   -0.005572    0.001152
  26 H :   -0.020210    0.000005
  27 H :   -0.008767    0.002074
  28 H :   -0.001229   -0.000070
  29 H :   -0.011023   -0.000781

  Mayer bond orders larger than 0.100000
B(  0-O , 14-C ) :   1.4310 B(  1-O , 15-C ) :   1.2169 B(  2-O , 16-C ) :   1.5604
B(  3-O , 17-C ) :   1.5441 B(  4-N , 10-C ) :   0.8230 B(  4-N , 16-C ) :   1.0079
B(  4-N , 26-H ) :   1.1127 B(  5-N , 11-C ) :   0.9321 B(  5-N , 17-C ) :   0.9864
B(  5-N , 27-H ) :   1.1049 B(  6-N ,  8-C ) :  -0.1058 B(  6-N , 14-C ) :   1.0582
B(  6-N , 16-C ) :   0.9174 B(  6-N , 28-H ) :   1.1018 B(  7-N , 15-C ) :   0.8504
B(  7-N , 17-C ) :   0.9427 B(  7-N , 29-H ) :   1.1324 B(  8-C , 10-C ) :   1.0010
B(  8-C , 12-C ) :   0.3953 B(  8-C , 14-C ) :   0.6380 B(  8-C , 18-H ) :  -0.1027
B(  9-C , 11-C ) :   0.4155 B(  9-C , 13-C ) :   0.4097 B(  9-C , 15-C ) :   0.8708
B(  9-C , 19-H ) :  -0.1390 B(  9-C , 24-H ) :  -0.1255 B( 10-C , 12-C ) :  -0.1942
B( 10-C , 18-H ) :   1.1364 B( 11-C , 13-C ) :  -0.2393 B( 11-C , 19-H ) :   1.1913
B( 12-C , 14-C ) :  -0.1198 B( 12-C , 20-H ) :   1.0028 B( 12-C , 21-H ) :   1.0247
B( 12-C , 22-H ) :   0.8696 B( 13-C , 23-H ) :   0.8334 B( 13-C , 24-H ) :   1.0567
B( 13-C , 25-H ) :   0.9459

Dispersion correction           -0.061476611
FINAL SINGLE POINT ENERGY      -908.768647886958

DIPOLE MOMENT
-------------

Method             : TDA/CIS
Type of density    : Electron Density
Level              : Relaxed density
State              :   2
Multiplicity       :   3
Irrep              :   0
Energy             :     0.0000000000000000 Eh
Relativity type    :
Basis              : AO
                                X                 Y                 Z
Electronic contribution:     -2.565606569     -10.201614141      -5.864014544
Nuclear contribution   :      2.066804721      11.116445096       8.444298100
                        -----------------------------------------
Total Dipole Moment    :     -0.498801848       0.914830955       2.580283555
                        -----------------------------------------
Magnitude (a.u.)       :      2.782729269
Magnitude (Debye)      :      7.073135691

Rotational constants in cm-1:             0.017393             0.016983             0.013603
Rotational constants in MHz :           521.441112           509.136783           407.817065

                             ****ORCA TERMINATED NORMALLY****
TOTAL RUN TIME: 0 days 0 hours 7 minutes 37 seconds 397 msec
