                         Program Version 6.0.0  -   RELEASE  -
|  1> ! Engrad def2-TZVPPD wB97M-D3BJ
|  2> %pal nprocs 8 end%pal nprocs 64 end
|  3> %tddft
|  4>  Iroot 2 Nroots 3
|  5> sf true
|  6> end
|  7> *xyz 0 3
|  8> O   2.73412191 -0.96797123 -2.24127059
|  9> O   -2.30916852 1.53053618 -1.36333495
| 10> O   -1.34010754 -2.61577754 -1.13635689
| 11> O   -2.27028574 0.99763808 3.0886924
| 12> N   -0.06220666 -1.69198084 0.47911566
| 13> N   -0.29167276 0.89278445 2.11744133
| 14> N   0.50187354 -1.53558149 -1.7438836
| 15> N   -2.20691771 1.17118766 0.88193365
| 16> C   2.09869823 -0.77407777 -0.10279443
| 17> C   -0.17106381 1.27942657 -0.30675133
| 18> C   0.98343027 -0.72225405 0.80908017
| 19> C   0.51386456 0.73677994 0.91411881
| 20> C   3.41002079 -0.21748979 0.29509597
| 21> C   0.4522197 1.82420407 -1.51150561
| 22> C   1.78413313 -1.08097772 -1.47350726
| 23> C   -1.66337665 1.36727049 -0.3740184
| 24> C   -0.37708895 -2.01642604 -0.82721238
| 25> C   -1.60238603 1.02251166 2.11234361
| 26> H   1.37062433 -1.05025678 1.81060026
| 27> H   1.48985397 1.2050943 1.03778118
| 28> H   3.46489035 -0.10692802 1.38439688
| 29> H   4.16156243 -0.84564791 -0.02138961
| 30> H   3.57879068 0.75547966 -0.19490136
| 31> H   -0.31348797 2.49407154 -2.02200222
| 32> H   1.22864028 2.42577064 -1.13313617
| 33> H   0.90274835 1.17585342 -2.25796571
| 34> H   -0.57751095 -2.20846818 1.15735774
| 35> H   0.17953019 0.58553676 2.95403957
| 36> H   0.35146348 -1.58938216 -2.7302496
| 37> H   -3.20313042 1.3477549 0.89425045
| 38> *
| 39>
| 40>                          ****END OF INPUT****

CARTESIAN COORDINATES (ANGSTROEM)
---------------------------------
  O      2.734122   -0.967971   -2.241271
  O     -2.309169    1.530536   -1.363335
  O     -1.340108   -2.615778   -1.136357
  O     -2.270286    0.997638    3.088692
  N     -0.062207   -1.691981    0.479116
  N     -0.291673    0.892784    2.117441
  N      0.501874   -1.535581   -1.743884
  N     -2.206918    1.171188    0.881934
  C      2.098698   -0.774078   -0.102794
  C     -0.171064    1.279427   -0.306751
  C      0.983430   -0.722254    0.809080
  C      0.513865    0.736780    0.914119
  C      3.410021   -0.217490    0.295096
  C      0.452220    1.824204   -1.511506
  C      1.784133   -1.080978   -1.473507
  C     -1.663377    1.367270   -0.374018
  C     -0.377089   -2.016426   -0.827212
  C     -1.602386    1.022512    2.112344
  H      1.370624   -1.050257    1.810600
  H      1.489854    1.205094    1.037781
  H      3.464890   -0.106928    1.384397
  H      4.161562   -0.845648   -0.021390
  H      3.578791    0.755480   -0.194901
  H     -0.313488    2.494072   -2.022002
  H      1.228640    2.425771   -1.133136
  H      0.902748    1.175853   -2.257966
  H     -0.577511   -2.208468    1.157358
  H      0.179530    0.585537    2.954040
  H      0.351463   -1.589382   -2.730250
  H     -3.203130    1.347755    0.894250

 Total Charge           Charge          ....    0
 Multiplicity           Mult            ....    3
 Number of Electrons    NEL             ....  132
 Basis Dimension        Dim             ....  882

ORBITAL ENERGIES
----------------
                 SPIN UP ORBITALS
  NO   OCC          E(Eh)            E(eV)
   0   1.0000     -19.339683      -526.2595
   1   1.0000     -19.333724      -526.0974
   2   1.0000     -19.318352      -525.6791
   3   1.0000     -19.309188      -525.4297
   4   1.0000     -14.568835      -396.4382
   5   1.0000     -14.561897      -396.2494
   6   1.0000     -14.554407      -396.0455
   7   1.0000     -14.554347      -396.0439
   8   1.0000     -10.501315      -285.7553
   9   1.0000     -10.495211      -285.5892
  10   1.0000     -10.482480      -285.2428
  11   1.0000     -10.477228      -285.0999
  12   1.0000     -10.445164      -284.2274
  13   1.0000     -10.440329      -284.0958
  14   1.0000     -10.414321      -283.3881
  15   1.0000     -10.410315      -283.2791
  16   1.0000     -10.375698      -282.3371
  17   1.0000     -10.363857      -282.0149
  18   1.0000      -1.234019       -33.5794
  19   1.0000      -1.230514       -33.4840
  20   1.0000      -1.208611       -32.8880
  21   1.0000      -1.203194       -32.7406
  22   1.0000      -1.124826       -30.6081
  23   1.0000      -1.107789       -30.1445
  24   1.0000      -1.072037       -29.1716
  25   1.0000      -1.061024       -28.8719
  26   1.0000      -0.992233       -27.0000
  27   1.0000      -0.957334       -26.0504
  28   1.0000      -0.895794       -24.3758
  29   1.0000      -0.850451       -23.1419
  30   1.0000      -0.821685       -22.3592
  31   1.0000      -0.802036       -21.8245
  32   1.0000      -0.796173       -21.6650
  33   1.0000      -0.793388       -21.5892
  34   1.0000      -0.708347       -19.2751
  35   1.0000      -0.699735       -19.0408
  36   1.0000      -0.693130       -18.8610
  37   1.0000      -0.678335       -18.4584
  38   1.0000      -0.659836       -17.9551
  39   1.0000      -0.642769       -17.4906
  40   1.0000      -0.619121       -16.8471
  41   1.0000      -0.609856       -16.5950
  42   1.0000      -0.603321       -16.4172
  43   1.0000      -0.590165       -16.0592
  44   1.0000      -0.579207       -15.7610
  45   1.0000      -0.575145       -15.6505
  46   1.0000      -0.572633       -15.5821
  47   1.0000      -0.568438       -15.4680
  48   1.0000      -0.558450       -15.1962
  49   1.0000      -0.557568       -15.1722
  50   1.0000      -0.555169       -15.1069
  51   1.0000      -0.540976       -14.7207
  52   1.0000      -0.531515       -14.4633
  53   1.0000      -0.523379       -14.2419
  54   1.0000      -0.520453       -14.1622
  55   1.0000      -0.513050       -13.9608
  56   1.0000      -0.488572       -13.2947
  57   1.0000      -0.421992       -11.4830
  58   1.0000      -0.419126       -11.4050
  59   1.0000      -0.414268       -11.2728
  60   1.0000      -0.406894       -11.0722
  61   1.0000      -0.399525       -10.8716
  62   1.0000      -0.396803       -10.7976
  63   1.0000      -0.389004       -10.5853
  64   1.0000      -0.382263       -10.4019
  65   1.0000      -0.348423        -9.4811
  66   1.0000      -0.323188        -8.7944
  67   0.0000       0.007513         0.2044
  68   0.0000       0.028326         0.7708
  69   0.0000       0.034134         0.9288
  70   0.0000       0.034943         0.9508
  71   0.0000       0.053757         1.4628

                 SPIN DOWN ORBITALS
  NO   OCC          E(Eh)            E(eV)
   0   1.0000     -19.334736      -526.1249
   1   1.0000     -19.331012      -526.0236
   2   1.0000     -19.318243      -525.6761
   3   1.0000     -19.309010      -525.4249
   4   1.0000     -14.568304      -396.4237
   5   1.0000     -14.561535      -396.2395
   6   1.0000     -14.554268      -396.0418
   7   1.0000     -14.553614      -396.0240
   8   1.0000     -10.501340      -285.7560
   9   1.0000     -10.495255      -285.5904
  10   1.0000     -10.483474      -285.2698
  11   1.0000     -10.478096      -285.1235
  12   1.0000     -10.444776      -284.2168
  13   1.0000     -10.439838      -284.0824
  14   1.0000     -10.402573      -283.0684
  15   1.0000     -10.399173      -282.9759
  16   1.0000     -10.376220      -282.3513
  17   1.0000     -10.364476      -282.0317
  18   1.0000      -1.233075       -33.5537
  19   1.0000      -1.229410       -33.4539
  20   1.0000      -1.205114       -32.7928
  21   1.0000      -1.196583       -32.5607
  22   1.0000      -1.121992       -30.5310
  23   1.0000      -1.105739       -30.0887
  24   1.0000      -1.070056       -29.1177
  25   1.0000      -1.059564       -28.8322
  26   1.0000      -0.980366       -26.6771
  27   1.0000      -0.939958       -25.5776
  28   1.0000      -0.889438       -24.2028
  29   1.0000      -0.844393       -22.9771
  30   1.0000      -0.813355       -22.1325
  31   1.0000      -0.799923       -21.7670
  32   1.0000      -0.792050       -21.5528
  33   1.0000      -0.791580       -21.5400
  34   1.0000      -0.703517       -19.1437
  35   1.0000      -0.693298       -18.8656
  36   1.0000      -0.688303       -18.7297
  37   1.0000      -0.670539       -18.2463
  38   1.0000      -0.649946       -17.6859
  39   1.0000      -0.636478       -17.3194
  40   1.0000      -0.614002       -16.7078
  41   1.0000      -0.604406       -16.4467
  42   1.0000      -0.596380       -16.2283
  43   1.0000      -0.585562       -15.9339
  44   1.0000      -0.572837       -15.5877
  45   1.0000      -0.567790       -15.4503
  46   1.0000      -0.565958       -15.4005
  47   1.0000      -0.559506       -15.2249
  48   1.0000      -0.551766       -15.0143
  49   1.0000      -0.550570       -14.9818
  50   1.0000      -0.549953       -14.9650
  51   1.0000      -0.533572       -14.5192
  52   1.0000      -0.524410       -14.2699
  53   1.0000      -0.516357       -14.0508
  54   1.0000      -0.511952       -13.9309
  55   1.0000      -0.503879       -13.7112
  56   1.0000      -0.484695       -13.1892
  57   1.0000      -0.417724       -11.3668
  58   1.0000      -0.413731       -11.2582
  59   1.0000      -0.405790       -11.0421
  60   1.0000      -0.397776       -10.8240
  61   1.0000      -0.391483       -10.6528
  62   1.0000      -0.391169       -10.6442
  63   1.0000      -0.384644       -10.4667
  64   1.0000      -0.375851       -10.2274
  65   0.0000      -0.061943        -1.6855
  66   0.0000      -0.044097        -1.2000
  67   0.0000       0.007197         0.1958
  68   0.0000       0.027850         0.7578
  69   0.0000       0.033751         0.9184

----------------------------------------------------------------------------------------------------
          SPIN FLIP ABSORPTION SPECTRUM VIA TRANSITION ELECTRIC DIPOLE MOMENTS
----------------------------------------------------------------------------------------------------
     Transition      Energy     Energy  Wavelength fosc(D2)      D2        DX        DY        DZ
                      (eV)      (cm-1)    (nm)                 (au**2)    (au)      (au)      (au)
----------------------------------------------------------------------------------------------------
  1-3A  ->  2-3A    0.087355     704.6  14193.1   0.000026169   0.01223  -0.07601   0.05161   0.06153
  1-3A  ->  3-3A    2.119676   17096.3   584.9   0.001482425   0.02855   0.13416  -0.03470  -0.09665

Dispersion correction             ... done (  0.1 sec)

MULLIKEN ATOMIC CHARGES AND SPIN DENSITIES
------------------------------------------
   0 O :   -0.661043    0.028061
   1 O :   -0.654828   -0.017921
   2 O :   -0.618992    0.000442
   3 O :   -0.650594   -0.000390
   4 N :   -0.179114   -0.003032
   5 N :   -0.236796    0.000179
   6 N :    0.087154    0.000941
   7 N :   -0.065873   -0.008065
   8 C :    0.664147    0.312352
   9 C :    0.511850    0.454423
  10 C :    0.244141   -0.117653
  11 C :    0.137033   -0.355278
  12 C :   -1.657767   -0.000007
  13 C :   -1.266875   -0.033507
  14 C :   -0.076339   -0.103421
  15 C :    0.094048   -0.206784
  16 C :    0.419604    0.002941
  17 C :    0.468949    0.015116
  18 H :    0.628453    0.002626
  19 H :    0.658867   -0.016199
  20 H :    0.358096    0.000762
  21 H :    0.440798    0.005040
  22 H :    0.336387    0.011953
  23 H :    0.325488   -0.004517
  24 H :    0.340793    0.016998
  25 H :    0.219489    0.012971
  26 H :   -0.001135   -0.001030
  27 H :    0.070150    0.002222
  28 H :    0.023975   -0.002367
  29 H :    0.039931    0.003142
Sum of atomic charges       :   -0.0000000

LOEWDIN ATOMIC CHARGES AND SPIN DENSITIES
-----------------------------------------
   0 O :    0.084631    0.024614
   1 O :    0.112357   -0.015243
   2 O :    0.134919    0.000263
   3 O :    0.112413   -0.000412
   4 N :    0.312780   -0.000139
   5 N :    0.295220   -0.000260
   6 N :    0.345653   -0.001756
   7 N :    0.327926   -0.006746
   8 C :   -0.048565    0.081812
   9 C :    0.022710   -0.068368
  10 C :   -0.151370    0.004888
  11 C :   -0.100255   -0.005522
  12 C :    0.205423    0.010766
  13 C :    0.190001   -0.013856
  14 C :   -0.409918    0.007249
  15 C :   -0.421976   -0.014863
  16 C :   -0.523430   -0.000519
  17 C :   -0.555373   -0.000451
  18 H :    0.079085    0.000814
  19 H :    0.040691   -0.001155
  20 H :    0.014210   -0.000101
  21 H :   -0.038168    0.002078
  22 H :    0.029794    0.003753
  23 H :    0.042325   -0.000825
  24 H :   -0.027939   -0.001797
  25 H :   -0.001894   -0.003721
  26 H :   -0.038055    0.000079
  27 H :   -0.016266    0.000037
  28 H :   -0.010901   -0.000145
  29 H :   -0.006026   -0.000476

  Mayer bond orders larger than 0.100000
B(  0-O , 14-C ) :   1.4444 B(  1-O , 15-C ) :   1.5007 B(  2-O , 16-C ) :   1.5671
B(  3-O , 17-C ) :   1.5969 B(  4-N ,  8-C ) :   0.2455 B(  4-N ,  9-C ) :   0.1049
B(  4-N , 10-C ) :   0.2425 B(  4-N , 16-C ) :   1.1261 B(  4-N , 26-H ) :   1.1289
B(  5-N ,  9-C ) :   0.1032 B(  5-N , 10-C ) :   0.1376 B(  5-N , 11-C ) :   0.3731
B(  5-N , 17-C ) :   1.1754 B(  5-N , 27-H ) :   1.1118 B(  6-N ,  8-C ) :  -0.1531
B(  6-N , 10-C ) :   0.1037 B(  6-N , 14-C ) :   1.0447 B(  6-N , 16-C ) :   0.9398
B(  6-N , 28-H ) :   1.1429 B(  7-N , 11-C ) :   0.1061 B(  7-N , 15-C ) :   1.0165
B(  7-N , 17-C ) :   0.9489 B(  7-N , 29-H ) :   1.1164 B(  8-C , 10-C ) :   0.4361
B(  8-C , 11-C ) :   0.3461 B(  8-C , 14-C ) :   0.7397 B(  8-C , 18-H ) :  -0.1487
B(  8-C , 20-H ) :  -0.1802 B(  9-C , 10-C ) :   0.1821 B(  9-C , 11-C ) :   0.4097
B(  9-C , 13-C ) :   0.4339 B(  9-C , 15-C ) :   0.4929 B(  9-C , 19-H ) :  -0.1782
B( 10-C , 11-C ) :   0.4205 B( 10-C , 14-C ) :  -0.1859 B( 10-C , 16-C ) :  -0.1793
B( 10-C , 18-H ) :   0.7174 B( 10-C , 19-H ) :  -0.1197 B( 11-C , 13-C ) :  -0.1711
B( 11-C , 17-C ) :  -0.1955 B( 11-C , 18-H ) :  -0.1035 B( 11-C , 19-H ) :   0.6446
B( 12-C , 20-H ) :   1.0829 B( 12-C , 21-H ) :   0.8861 B( 12-C , 22-H ) :   0.8384
B( 13-C , 23-H ) :   0.8860 B( 13-C , 24-H ) :   1.0280 B( 13-C , 25-H ) :   0.9342

Dispersion correction           -0.058833444
FINAL SINGLE POINT ENERGY      -908.768508494204

DIPOLE MOMENT
-------------

Method             : TDA/CIS
Type of density    : Electron Density
Level              : Relaxed density
State              :   2
Multiplicity       :   3
Irrep              :   0
Energy             :     0.0000000000000000 Eh
Relativity type    :
Basis              : AO
                                X                 Y                 Z
Electronic contribution:     -9.720382738      -4.027576060       0.012483493
Nuclear contribution   :     11.878383094       4.443808046       1.117029781
                        -----------------------------------------
Total Dipole Moment    :      2.158000356       0.416231986       1.129513274
                        -----------------------------------------
Magnitude (a.u.)       :      2.471035176
Magnitude (Debye)      :      6.280872268

Rotational constants in cm-1:             0.021849             0.012110             0.011350
Rotational constants in MHz :           655.006848           363.037796           340.269468

                             ****ORCA TERMINATED NORMALLY****
TOTAL RUN TIME: 0 days 0 hours 5 minutes 0 seconds 934 msec
