                         Program Version 6.0.0  -   RELEASE  -
|  1> ! Engrad def2-TZVPPD wB97M-D3BJ
|  2> %pal nprocs 8 end%pal nprocs 64 end
|  3> %tddft Nroots 2 Iroot 1
|  4> sf true
|  5> end
|  6> *xyz 0 3
|  7> O   2.60404722 1.15505994 -0.51695747
|  8> O   -0.58391005 0.87187548 -2.28215811
|  9> O   0.64160428 -2.8283577 -1.50807198
| 10> O   -2.53786237 -1.63486837 0.97519183
| 11> N   0.60386163 -2.0916403 0.64530644
| 12> N   -2.00031329 0.53384376 1.42690825
| 13> N   1.70310002 -0.87238295 -0.97062383
| 14> N   -1.62807946 -0.33197883 -0.66144072
| 15> C   1.42103562 0.08319842 1.22211208
| 16> C   -0.82637556 1.89017795 -0.15901958
| 17> C   0.77562794 -1.06187709 1.54194381
| 18> C   -1.3825957 1.70197984 1.07719486
| 19> C   1.67092968 1.18478165 2.1981838
| 20> C   -0.12906071 3.13551359 -0.56642189
| 21> C   1.96005067 0.20469405 -0.12302487
| 22> C   -0.98636073 0.81398153 -1.13058399
| 23> C   0.95962288 -1.99746121 -0.67997565
| 24> C   -2.09724033 -0.56455767 0.61021857
| 25> H   0.40069032 -1.21544323 2.51663458
| 26> H   -1.36894737 2.4933921 1.82828227
| 27> H   1.38964061 2.13069134 1.78048241
| 28> H   1.13205994 1.02726629 3.11877515
| 29> H   2.74795543 1.25347385 2.41806138
| 30> H   -0.59440696 3.57361636 -1.43967879
| 31> H   -0.17286709 3.88132646 0.23104324
| 32> H   0.90106785 2.92625143 -0.81305377
| 33> H   -0.03710414 -2.82736733 0.86881092
| 34> H   -2.37505742 0.40261639 2.35116293
| 35> H   1.96076159 -0.75153348 -1.94346674
| 36> H   -1.69896707 -1.10630917 -1.29968399
| 37> *
| 38>
| 39>                          ****END OF INPUT****

CARTESIAN COORDINATES (ANGSTROEM)
---------------------------------
  O      2.604047    1.155060   -0.516957
  O     -0.583910    0.871875   -2.282158
  O      0.641604   -2.828358   -1.508072
  O     -2.537862   -1.634868    0.975192
  N      0.603862   -2.091640    0.645306
  N     -2.000313    0.533844    1.426908
  N      1.703100   -0.872383   -0.970624
  N     -1.628079   -0.331979   -0.661441
  C      1.421036    0.083198    1.222112
  C     -0.826376    1.890178   -0.159020
  C      0.775628   -1.061877    1.541944
  C     -1.382596    1.701980    1.077195
  C      1.670930    1.184782    2.198184
  C     -0.129061    3.135514   -0.566422
  C      1.960051    0.204694   -0.123025
  C     -0.986361    0.813982   -1.130584
  C      0.959623   -1.997461   -0.679976
  C     -2.097240   -0.564558    0.610219
  H      0.400690   -1.215443    2.516635
  H     -1.368947    2.493392    1.828282
  H      1.389641    2.130691    1.780482
  H      1.132060    1.027266    3.118775
  H      2.747955    1.253474    2.418061
  H     -0.594407    3.573616   -1.439679
  H     -0.172867    3.881326    0.231043
  H      0.901068    2.926251   -0.813054
  H     -0.037104   -2.827367    0.868811
  H     -2.375057    0.402616    2.351163
  H      1.960762   -0.751533   -1.943467
  H     -1.698967   -1.106309   -1.299684

 Total Charge           Charge          ....    0
 Multiplicity           Mult            ....    3
 Number of Electrons    NEL             ....  132
 Basis Dimension        Dim             ....  882

ORBITAL ENERGIES
----------------
                 SPIN UP ORBITALS
  NO   OCC          E(Eh)            E(eV)
   0   1.0000     -19.340440      -526.2801
   1   1.0000     -19.322160      -525.7827
   2   1.0000     -19.318945      -525.6952
   3   1.0000     -19.318241      -525.6761
   4   1.0000     -14.598608      -397.2483
   5   1.0000     -14.576645      -396.6507
   6   1.0000     -14.563515      -396.2934
   7   1.0000     -14.557482      -396.1292
   8   1.0000     -10.517875      -286.2059
   9   1.0000     -10.506134      -285.8864
  10   1.0000     -10.474683      -285.0306
  11   1.0000     -10.461810      -284.6803
  12   1.0000     -10.430465      -283.8274
  13   1.0000     -10.410840      -283.2934
  14   1.0000     -10.406358      -283.1714
  15   1.0000     -10.379958      -282.4530
  16   1.0000     -10.360638      -281.9273
  17   1.0000     -10.359836      -281.9055
  18   1.0000      -1.233882       -33.5756
  19   1.0000      -1.217298       -33.1244
  20   1.0000      -1.189804       -32.3762
  21   1.0000      -1.187671       -32.3182
  22   1.0000      -1.132441       -30.8153
  23   1.0000      -1.116239       -30.3744
  24   1.0000      -1.068011       -29.0620
  25   1.0000      -1.062923       -28.9236
  26   1.0000      -0.974683       -26.5225
  27   1.0000      -0.955780       -26.0081
  28   1.0000      -0.858456       -23.3598
  29   1.0000      -0.849567       -23.1179
  30   1.0000      -0.815644       -22.1948
  31   1.0000      -0.809319       -22.0227
  32   1.0000      -0.795675       -21.6514
  33   1.0000      -0.787364       -21.4253
  34   1.0000      -0.705186       -19.1891
  35   1.0000      -0.696199       -18.9445
  36   1.0000      -0.691177       -18.8079
  37   1.0000      -0.689509       -18.7625
  38   1.0000      -0.645476       -17.5643
  39   1.0000      -0.637563       -17.3490
  40   1.0000      -0.636072       -17.3084
  41   1.0000      -0.600160       -16.3312
  42   1.0000      -0.598079       -16.2746
  43   1.0000      -0.592808       -16.1311
  44   1.0000      -0.577269       -15.7083
  45   1.0000      -0.574881       -15.6433
  46   1.0000      -0.559320       -15.2199
  47   1.0000      -0.550574       -14.9819
  48   1.0000      -0.549558       -14.9542
  49   1.0000      -0.548360       -14.9216
  50   1.0000      -0.532701       -14.4955
  51   1.0000      -0.526052       -14.3146
  52   1.0000      -0.520101       -14.1527
  53   1.0000      -0.515714       -14.0333
  54   1.0000      -0.506694       -13.7879
  55   1.0000      -0.503161       -13.6917
  56   1.0000      -0.498223       -13.5573
  57   1.0000      -0.471821       -12.8389
  58   1.0000      -0.427950       -11.6451
  59   1.0000      -0.412499       -11.2247
  60   1.0000      -0.410572       -11.1722
  61   1.0000      -0.395172       -10.7532
  62   1.0000      -0.389678       -10.6037
  63   1.0000      -0.388534       -10.5726
  64   1.0000      -0.382208       -10.4004
  65   1.0000      -0.343329        -9.3424
  66   1.0000      -0.217234        -5.9112
  67   0.0000       0.011333         0.3084
  68   0.0000       0.019789         0.5385
  69   0.0000       0.033294         0.9060
  70   0.0000       0.039214         1.0671
  71   0.0000       0.040764         1.1093

                 SPIN DOWN ORBITALS
  NO   OCC          E(Eh)            E(eV)
   0   1.0000     -19.338608      -526.2303
   1   1.0000     -19.318948      -525.6953
   2   1.0000     -19.318204      -525.6750
   3   1.0000     -19.315808      -525.6099
   4   1.0000     -14.594380      -397.1333
   5   1.0000     -14.576507      -396.6469
   6   1.0000     -14.563527      -396.2937
   7   1.0000     -14.556509      -396.1028
   8   1.0000     -10.518115      -286.2125
   9   1.0000     -10.506140      -285.8866
  10   1.0000     -10.474672      -285.0303
  11   1.0000     -10.461622      -284.6752
  12   1.0000     -10.430214      -283.8206
  13   1.0000     -10.401304      -283.0339
  14   1.0000     -10.395617      -282.8791
  15   1.0000     -10.380020      -282.4547
  16   1.0000     -10.361036      -281.9381
  17   1.0000     -10.359729      -281.9026
  18   1.0000      -1.229868       -33.4664
  19   1.0000      -1.217155       -33.1205
  20   1.0000      -1.188128       -32.3306
  21   1.0000      -1.180037       -32.1104
  22   1.0000      -1.122293       -30.5391
  23   1.0000      -1.115987       -30.3676
  24   1.0000      -1.063120       -28.9290
  25   1.0000      -1.062407       -28.9096
  26   1.0000      -0.957285       -26.0490
  27   1.0000      -0.948673       -25.8147
  28   1.0000      -0.849384       -23.1129
  29   1.0000      -0.846542       -23.0356
  30   1.0000      -0.810001       -22.0412
  31   1.0000      -0.804627       -21.8950
  32   1.0000      -0.788976       -21.4691
  33   1.0000      -0.787147       -21.4194
  34   1.0000      -0.693960       -18.8836
  35   1.0000      -0.691155       -18.8073
  36   1.0000      -0.689498       -18.7622
  37   1.0000      -0.687091       -18.6967
  38   1.0000      -0.638659       -17.3788
  39   1.0000      -0.633552       -17.2398
  40   1.0000      -0.628954       -17.1147
  41   1.0000      -0.594394       -16.1743
  42   1.0000      -0.590646       -16.0723
  43   1.0000      -0.589808       -16.0495
  44   1.0000      -0.567901       -15.4534
  45   1.0000      -0.563093       -15.3225
  46   1.0000      -0.558379       -15.1943
  47   1.0000      -0.549664       -14.9571
  48   1.0000      -0.542174       -14.7533
  49   1.0000      -0.537041       -14.6136
  50   1.0000      -0.523585       -14.2475
  51   1.0000      -0.519927       -14.1479
  52   1.0000      -0.515915       -14.0388
  53   1.0000      -0.506679       -13.7874
  54   1.0000      -0.504721       -13.7342
  55   1.0000      -0.498257       -13.5583
  56   1.0000      -0.470680       -12.8078
  57   1.0000      -0.456575       -12.4240
  58   1.0000      -0.423941       -11.5360
  59   1.0000      -0.411093       -11.1864
  60   1.0000      -0.395848       -10.7716
  61   1.0000      -0.386260       -10.5107
  62   1.0000      -0.382669       -10.4130
  63   1.0000      -0.380483       -10.3535
  64   1.0000      -0.342345        -9.3157
  65   0.0000      -0.105362        -2.8670
  66   0.0000       0.011008         0.2995
  67   0.0000       0.022042         0.5998
  68   0.0000       0.031255         0.8505
  69   0.0000       0.037177         1.0116

----------------------------------------------------------------------------------------------------
          SPIN FLIP ABSORPTION SPECTRUM VIA TRANSITION ELECTRIC DIPOLE MOMENTS
----------------------------------------------------------------------------------------------------
     Transition      Energy     Energy  Wavelength fosc(D2)      D2        DX        DY        DZ
                      (eV)      (cm-1)    (nm)                 (au**2)    (au)      (au)      (au)
----------------------------------------------------------------------------------------------------
  1-3A  ->  2-3A    4.001230   32272.1   309.9   0.001198227   0.01222   0.02867  -0.04887  -0.09494

Dispersion correction             ... done (  0.1 sec)

MULLIKEN ATOMIC CHARGES AND SPIN DENSITIES
------------------------------------------
   0 O :   -0.682500   -0.001159
   1 O :   -0.687329    0.037856
   2 O :   -0.654157   -0.000173
   3 O :   -0.663913    0.006188
   4 N :   -0.057415   -0.001198
   5 N :    0.037327    0.052143
   6 N :    0.042594    0.000246
   7 N :    0.041704    0.005636
   8 C :    0.903855   -0.014744
   9 C :    0.940425    0.541056
  10 C :    0.035830    0.026111
  11 C :   -0.180840   -0.357045
  12 C :   -1.495066   -0.004357
  13 C :   -1.453705   -0.044495
  14 C :    0.249168   -0.016939
  15 C :    0.335964   -0.326151
  16 C :    0.377298    0.002178
  17 C :    0.454499    0.008721
  18 H :    0.198683   -0.000039
  19 H :    0.192295    0.040530
  20 H :    0.253911    0.005129
  21 H :    0.335119    0.001936
  22 H :    0.371919   -0.001567
  23 H :    0.378479    0.000770
  24 H :    0.333836    0.013558
  25 H :    0.243066    0.023264
  26 H :    0.056148   -0.000250
  27 H :    0.028567    0.000352
  28 H :    0.042645    0.000201
  29 H :    0.021590    0.002245
Sum of atomic charges       :    0.0000000

LOEWDIN ATOMIC CHARGES AND SPIN DENSITIES
-----------------------------------------
   0 O :    0.089383    0.000597
   1 O :    0.082277    0.030262
   2 O :    0.081160   -0.000138
   3 O :    0.080311    0.004982
   4 N :    0.282218   -0.000370
   5 N :    0.286190    0.021797
   6 N :    0.343365    0.000278
   7 N :    0.347244   -0.000604
   8 C :   -0.137271   -0.000704
   9 C :   -0.133567   -0.034027
  10 C :    0.058485   -0.000834
  11 C :    0.058210   -0.027058
  12 C :    0.179430   -0.000949
  13 C :    0.178554   -0.003313
  14 C :   -0.403493    0.000215
  15 C :   -0.404494    0.009552
  16 C :   -0.480271   -0.000079
  17 C :   -0.486457   -0.000231
  18 H :    0.021211   -0.000093
  19 H :    0.044393   -0.001319
  20 H :   -0.028891   -0.000274
  21 H :   -0.011181    0.000021
  22 H :    0.016283   -0.000079
  23 H :   -0.000169   -0.000134
  24 H :    0.000705    0.000294
  25 H :   -0.019277   -0.000147
  26 H :   -0.026633   -0.000023
  27 H :   -0.011964    0.002158
  28 H :    0.003920    0.000106
  29 H :   -0.009671    0.000115

  Mayer bond orders larger than 0.100000
B(  0-O , 14-C ) :   1.4409 B(  1-O , 15-C ) :   1.3912 B(  2-O , 16-C ) :   1.5614
B(  3-O , 17-C ) :   1.5394 B(  4-N , 10-C ) :   0.8329 B(  4-N , 16-C ) :   1.0058
B(  4-N , 26-H ) :   1.1182 B(  5-N , 11-C ) :   0.9631 B(  5-N , 17-C ) :   1.0147
B(  5-N , 27-H ) :   1.1253 B(  6-N , 14-C ) :   1.0362 B(  6-N , 16-C ) :   0.9217
B(  6-N , 28-H ) :   1.0930 B(  7-N , 15-C ) :   0.9462 B(  7-N , 17-C ) :   0.9475
B(  7-N , 29-H ) :   1.1302 B(  8-C , 10-C ) :   1.0767 B(  8-C , 12-C ) :   0.3144
B(  8-C , 14-C ) :   0.7102 B(  9-C , 11-C ) :   1.1234 B(  9-C , 13-C ) :   0.3123
B(  9-C , 15-C ) :   0.6534 B(  9-C , 17-C ) :   0.1035 B(  9-C , 24-H ) :  -0.1142
B( 10-C , 12-C ) :  -0.1465 B( 10-C , 18-H ) :   1.1156 B( 11-C , 13-C ) :  -0.1625
B( 11-C , 15-C ) :   0.1355 B( 11-C , 19-H ) :   1.0883 B( 12-C , 20-H ) :   1.0032
B( 12-C , 21-H ) :   1.0227 B( 12-C , 22-H ) :   0.8883 B( 13-C , 23-H ) :   0.8871
B( 13-C , 24-H ) :   1.0312 B( 13-C , 25-H ) :   0.9556

Dispersion correction           -0.060181714
FINAL SINGLE POINT ENERGY      -908.923408936546

DIPOLE MOMENT
-------------

Method             : TDA/CIS
Type of density    : Electron Density
Level              : Relaxed density
State              :   1
Multiplicity       :   3
Irrep              :   0
Energy             :     0.0000000000000000 Eh
Relativity type    :
Basis              : AO
                                X                 Y                 Z
Electronic contribution:     -2.764170370     -10.134466049      -5.786722248
Nuclear contribution   :      2.040192994      11.054764502       8.504690252
                        -----------------------------------------
Total Dipole Moment    :     -0.723977376       0.920298453       2.717968004
                        -----------------------------------------
Magnitude (a.u.)       :      2.959466600
Magnitude (Debye)      :      7.522366284

Rotational constants in cm-1:             0.017273             0.016541             0.013520
Rotational constants in MHz :           517.825191           495.877086           405.329573

                             ****ORCA TERMINATED NORMALLY****
TOTAL RUN TIME: 0 days 0 hours 5 minutes 43 seconds 867 msec
