                         Program Version 6.0.0  -   RELEASE  -
|  1> ! Engrad def2-TZVPPD wB97M-D3BJ
|  2> %pal nprocs 8 end%pal nprocs 64 end
|  3> %tddft Nroots 2 Iroot 1
|  4> sf true
|  5> end
|  6> *xyz 0 3
|  7> O   2.82672338 1.08703921 -0.71127864
|  8> O   -0.40415389 0.8107407 -2.04077155
|  9> O   0.64633652 -2.81899006 -1.49718418
| 10> O   -2.66387064 -1.71389107 0.97857592
| 11> N   0.69908156 -2.01565842 0.63036992
| 12> N   -2.41842888 0.51884168 1.37672226
| 13> N   1.85897797 -0.94378801 -1.04672674
| 14> N   -1.62469095 -0.40437875 -0.57508758
| 15> C   1.67374422 0.12062978 1.10544261
| 16> C   -1.02656479 1.8618502 -0.00727826
| 17> C   0.95355874 -0.98094374 1.48872699
| 18> C   -1.80326644 1.71142233 1.07094504
| 19> C   1.96602263 1.24908331 2.02576847
| 20> C   -0.29897764 3.12162191 -0.35946602
| 21> C   2.17318743 0.16553073 -0.2511506
| 22> C   -0.96539753 0.76058965 -0.97188801
| 23> C   1.03909582 -1.99061817 -0.70536996
| 24> C   -2.26685124 -0.62514503 0.62235244
| 25> H   0.561129 -1.08498348 2.47824506
| 26> H   -1.94776141 2.50418565 1.7967192
| 27> H   1.55385855 2.17678936 1.63365605
| 28> H   1.55642395 1.07266894 3.02967208
| 29> H   3.0457915 1.4062129 2.11398595
| 30> H   -0.6793987 3.53786 -1.2929275
| 31> H   -0.40302703 3.86931057 0.42437843
| 32> H   0.76872643 2.9082219 -0.50004434
| 33> H   0.0331675 -2.73413332 0.88987014
| 34> H   -2.92095682 0.40060219 2.24009158
| 35> H   2.07216124 -0.86312166 -2.02322108
| 36> H   -1.53478353 -1.20412157 -1.18834914
| 37> *
| 38>
| 39>                          ****END OF INPUT****

CARTESIAN COORDINATES (ANGSTROEM)
---------------------------------
  O      2.826723    1.087039   -0.711279
  O     -0.404154    0.810741   -2.040772
  O      0.646337   -2.818990   -1.497184
  O     -2.663871   -1.713891    0.978576
  N      0.699082   -2.015658    0.630370
  N     -2.418429    0.518842    1.376722
  N      1.858978   -0.943788   -1.046727
  N     -1.624691   -0.404379   -0.575088
  C      1.673744    0.120630    1.105443
  C     -1.026565    1.861850   -0.007278
  C      0.953559   -0.980944    1.488727
  C     -1.803266    1.711422    1.070945
  C      1.966023    1.249083    2.025768
  C     -0.298978    3.121622   -0.359466
  C      2.173187    0.165531   -0.251151
  C     -0.965398    0.760590   -0.971888
  C      1.039096   -1.990618   -0.705370
  C     -2.266851   -0.625145    0.622352
  H      0.561129   -1.084983    2.478245
  H     -1.947761    2.504186    1.796719
  H      1.553859    2.176789    1.633656
  H      1.556424    1.072669    3.029672
  H      3.045791    1.406213    2.113986
  H     -0.679399    3.537860   -1.292928
  H     -0.403027    3.869311    0.424378
  H      0.768726    2.908222   -0.500044
  H      0.033168   -2.734133    0.889870
  H     -2.920957    0.400602    2.240092
  H      2.072161   -0.863122   -2.023221
  H     -1.534784   -1.204122   -1.188349

 Total Charge           Charge          ....    0
 Multiplicity           Mult            ....    3
 Number of Electrons    NEL             ....  132
 Basis Dimension        Dim             ....  882

ORBITAL ENERGIES
----------------
                 SPIN UP ORBITALS
  NO   OCC          E(Eh)            E(eV)
   0   1.0000     -19.329324      -525.9776
   1   1.0000     -19.328489      -525.9549
   2   1.0000     -19.323243      -525.8122
   3   1.0000     -19.318004      -525.6696
   4   1.0000     -14.589860      -397.0103
   5   1.0000     -14.584722      -396.8705
   6   1.0000     -14.570314      -396.4784
   7   1.0000     -14.546079      -395.8189
   8   1.0000     -10.515337      -286.1369
   9   1.0000     -10.505847      -285.8786
  10   1.0000     -10.478750      -285.1413
  11   1.0000     -10.455122      -284.4983
  12   1.0000     -10.434670      -283.9418
  13   1.0000     -10.407735      -283.2089
  14   1.0000     -10.396609      -282.9061
  15   1.0000     -10.381963      -282.5076
  16   1.0000     -10.370269      -282.1894
  17   1.0000     -10.355595      -281.7901
  18   1.0000      -1.228124       -33.4190
  19   1.0000      -1.222294       -33.2603
  20   1.0000      -1.195610       -32.5342
  21   1.0000      -1.184242       -32.2249
  22   1.0000      -1.124147       -30.5896
  23   1.0000      -1.121700       -30.5230
  24   1.0000      -1.070593       -29.1323
  25   1.0000      -1.057563       -28.7777
  26   1.0000      -0.970752       -26.4155
  27   1.0000      -0.957175       -26.0461
  28   1.0000      -0.854723       -23.2582
  29   1.0000      -0.848033       -23.0761
  30   1.0000      -0.811248       -22.0752
  31   1.0000      -0.809985       -22.0408
  32   1.0000      -0.794504       -21.6196
  33   1.0000      -0.783968       -21.3329
  34   1.0000      -0.696696       -18.9581
  35   1.0000      -0.695859       -18.9353
  36   1.0000      -0.692390       -18.8409
  37   1.0000      -0.689367       -18.7586
  38   1.0000      -0.644328       -17.5331
  39   1.0000      -0.636389       -17.3170
  40   1.0000      -0.628770       -17.1097
  41   1.0000      -0.603048       -16.4098
  42   1.0000      -0.597940       -16.2708
  43   1.0000      -0.591127       -16.0854
  44   1.0000      -0.572573       -15.5805
  45   1.0000      -0.568642       -15.4735
  46   1.0000      -0.566255       -15.4086
  47   1.0000      -0.552033       -15.0216
  48   1.0000      -0.549078       -14.9412
  49   1.0000      -0.545627       -14.8473
  50   1.0000      -0.530302       -14.4302
  51   1.0000      -0.525909       -14.3107
  52   1.0000      -0.516966       -14.0674
  53   1.0000      -0.515496       -14.0274
  54   1.0000      -0.507259       -13.8032
  55   1.0000      -0.499823       -13.6009
  56   1.0000      -0.491054       -13.3623
  57   1.0000      -0.480281       -13.0691
  58   1.0000      -0.421264       -11.4632
  59   1.0000      -0.417727       -11.3669
  60   1.0000      -0.406898       -11.0722
  61   1.0000      -0.397933       -10.8283
  62   1.0000      -0.387759       -10.5514
  63   1.0000      -0.384093       -10.4517
  64   1.0000      -0.382643       -10.4122
  65   1.0000      -0.347824        -9.4648
  66   1.0000      -0.213301        -5.8042
  67   0.0000       0.011295         0.3074
  68   0.0000       0.020187         0.5493
  69   0.0000       0.032803         0.8926
  70   0.0000       0.037093         1.0094
  71   0.0000       0.044010         1.1976

                 SPIN DOWN ORBITALS
  NO   OCC          E(Eh)            E(eV)
   0   1.0000     -19.329304      -525.9771
   1   1.0000     -19.326609      -525.9038
   2   1.0000     -19.323266      -525.8128
   3   1.0000     -19.311339      -525.4883
   4   1.0000     -14.584761      -396.8715
   5   1.0000     -14.584546      -396.8657
   6   1.0000     -14.570331      -396.4789
   7   1.0000     -14.545179      -395.7944
   8   1.0000     -10.515343      -286.1370
   9   1.0000     -10.506198      -285.8882
  10   1.0000     -10.478734      -285.1409
  11   1.0000     -10.454973      -284.4943
  12   1.0000     -10.434469      -283.9363
  13   1.0000     -10.398274      -282.9514
  14   1.0000     -10.386386      -282.6279
  15   1.0000     -10.381989      -282.5083
  16   1.0000     -10.370738      -282.2021
  17   1.0000     -10.355579      -281.7896
  18   1.0000      -1.227809       -33.4104
  19   1.0000      -1.218234       -33.1498
  20   1.0000      -1.195580       -32.5334
  21   1.0000      -1.174416       -31.9575
  22   1.0000      -1.123904       -30.5830
  23   1.0000      -1.110839       -30.2275
  24   1.0000      -1.070491       -29.1295
  25   1.0000      -1.052057       -28.6279
  26   1.0000      -0.957822       -26.0637
  27   1.0000      -0.946795       -25.7636
  28   1.0000      -0.848019       -23.0758
  29   1.0000      -0.842943       -22.9377
  30   1.0000      -0.810603       -22.0576
  31   1.0000      -0.799103       -21.7447
  32   1.0000      -0.793986       -21.6055
  33   1.0000      -0.777506       -21.1570
  34   1.0000      -0.696292       -18.9471
  35   1.0000      -0.692524       -18.8445
  36   1.0000      -0.684582       -18.6284
  37   1.0000      -0.681014       -18.5313
  38   1.0000      -0.643210       -17.5026
  39   1.0000      -0.628335       -17.0979
  40   1.0000      -0.622308       -16.9339
  41   1.0000      -0.597851       -16.2684
  42   1.0000      -0.591496       -16.0954
  43   1.0000      -0.582692       -15.8559
  44   1.0000      -0.568667       -15.4742
  45   1.0000      -0.560213       -15.2442
  46   1.0000      -0.559022       -15.2118
  47   1.0000      -0.551277       -15.0010
  48   1.0000      -0.541216       -14.7272
  49   1.0000      -0.538171       -14.6444
  50   1.0000      -0.522248       -14.2111
  51   1.0000      -0.518471       -14.1083
  52   1.0000      -0.515328       -14.0228
  53   1.0000      -0.503636       -13.7046
  54   1.0000      -0.500612       -13.6223
  55   1.0000      -0.495995       -13.4967
  56   1.0000      -0.479312       -13.0427
  57   1.0000      -0.446169       -12.1409
  58   1.0000      -0.420875       -11.4526
  59   1.0000      -0.412332       -11.2201
  60   1.0000      -0.403164       -10.9706
  61   1.0000      -0.388350       -10.5675
  62   1.0000      -0.376289       -10.2393
  63   1.0000      -0.374377       -10.1873
  64   1.0000      -0.347796        -9.4640
  65   0.0000      -0.101552        -2.7634
  66   0.0000       0.010557         0.2873
  67   0.0000       0.020580         0.5600
  68   0.0000       0.029924         0.8143
  69   0.0000       0.035871         0.9761

----------------------------------------------------------------------------------------------------
          SPIN FLIP ABSORPTION SPECTRUM VIA TRANSITION ELECTRIC DIPOLE MOMENTS
----------------------------------------------------------------------------------------------------
     Transition      Energy     Energy  Wavelength fosc(D2)      D2        DX        DY        DZ
                      (eV)      (cm-1)    (nm)                 (au**2)    (au)      (au)      (au)
----------------------------------------------------------------------------------------------------
  1-3A  ->  2-3A    3.966916   31995.3   312.5   0.001510795   0.01555  -0.06040  -0.07418   0.07997

Dispersion correction             ... done (  0.1 sec)

MULLIKEN ATOMIC CHARGES AND SPIN DENSITIES
------------------------------------------
   0 O :   -0.692343    0.036109
   1 O :   -0.651504    0.001256
   2 O :   -0.641364    0.008043
   3 O :   -0.662157    0.000726
   4 N :   -0.046928    0.048864
   5 N :   -0.044057    0.004494
   6 N :    0.023397    0.001109
   7 N :    0.007730   -0.003240
   8 C :    1.090814    0.501167
   9 C :    0.477633   -0.001196
  10 C :   -0.210078   -0.385003
  11 C :    0.116523   -0.003736
  12 C :   -1.330266   -0.045229
  13 C :   -1.419654    0.007683
  14 C :    0.216806   -0.250004
  15 C :    0.625231   -0.000381
  16 C :    0.427955    0.021703
  17 C :    0.451635   -0.005805
  18 H :    0.190785    0.039371
  19 H :    0.141155   -0.001778
  20 H :    0.191341    0.015970
  21 H :    0.333614    0.012735
  22 H :    0.335774    0.000502
  23 H :    0.359173    0.000228
  24 H :    0.327542    0.001175
  25 H :    0.217100   -0.004791
  26 H :    0.078680    0.000164
  27 H :    0.026174   -0.000417
  28 H :    0.025433    0.002857
  29 H :    0.033856   -0.002575
Sum of atomic charges       :   -0.0000000

LOEWDIN ATOMIC CHARGES AND SPIN DENSITIES
-----------------------------------------
   0 O :    0.075961    0.029552
   1 O :    0.106633    0.000659
   2 O :    0.087626    0.006488
   3 O :    0.074696   -0.000053
   4 N :    0.280725    0.021824
   5 N :    0.275725    0.000325
   6 N :    0.344053   -0.000643
   7 N :    0.340302   -0.000449
   8 C :   -0.135607   -0.031139
   9 C :   -0.139952   -0.000465
  10 C :    0.074994   -0.030466
  11 C :    0.054906   -0.001351
  12 C :    0.168225   -0.003478
  13 C :    0.175682    0.000092
  14 C :   -0.413271    0.009094
  15 C :   -0.395896    0.000027
  16 C :   -0.486766    0.000645
  17 C :   -0.485016   -0.000392
  18 H :    0.029064   -0.002292
  19 H :    0.039658   -0.000032
  20 H :   -0.019269   -0.000230
  21 H :    0.002562    0.000294
  22 H :    0.007131   -0.000228
  23 H :    0.003230   -0.000002
  24 H :   -0.006340    0.000013
  25 H :   -0.008355    0.000085
  26 H :   -0.009468    0.001986
  27 H :   -0.020128    0.000025
  28 H :   -0.009551    0.000143
  29 H :   -0.011554   -0.000033

  Mayer bond orders larger than 0.100000
B(  0-O , 14-C ) :   1.4229 B(  1-O , 15-C ) :   1.4336 B(  2-O , 16-C ) :   1.5745
B(  3-O , 17-C ) :   1.5458 B(  4-N , 10-C ) :   0.9291 B(  4-N , 16-C ) :   0.9575
B(  4-N , 26-H ) :   1.1050 B(  5-N , 11-C ) :   0.9576 B(  5-N , 17-C ) :   1.0466
B(  5-N , 27-H ) :   1.1334 B(  6-N , 14-C ) :   0.9731 B(  6-N , 16-C ) :   0.9515
B(  6-N , 28-H ) :   1.1028 B(  7-N , 15-C ) :   0.9752 B(  7-N , 17-C ) :   0.9491
B(  7-N , 29-H ) :   1.1185 B(  8-C , 10-C ) :   1.0942 B(  8-C , 12-C ) :   0.3750
B(  8-C , 14-C ) :   0.6595 B(  9-C , 11-C ) :   1.2318 B(  9-C , 13-C ) :   0.3190
B(  9-C , 15-C ) :   0.8538 B(  9-C , 24-H ) :  -0.1022 B(  9-C , 25-H ) :  -0.1216
B( 10-C , 18-H ) :   1.0990 B( 11-C , 13-C ) :  -0.1704 B( 11-C , 19-H ) :   1.0924
B( 12-C , 20-H ) :   1.0286 B( 12-C , 21-H ) :   0.9675 B( 12-C , 22-H ) :   0.9286
B( 13-C , 23-H ) :   0.9047 B( 13-C , 24-H ) :   1.0388 B( 13-C , 25-H ) :   1.0147

Dispersion correction           -0.057682689
FINAL SINGLE POINT ENERGY      -908.923880753911

DIPOLE MOMENT
-------------

Method             : TDA/CIS
Type of density    : Electron Density
Level              : Relaxed density
State              :   1
Multiplicity       :   3
Irrep              :   0
Energy             :     0.0000000000000000 Eh
Relativity type    :
Basis              : AO
                                X                 Y                 Z
Electronic contribution:     -2.710044940     -10.543357753      -5.942891177
Nuclear contribution   :      1.741387783      11.424500918       8.467251477
                        -----------------------------------------
Total Dipole Moment    :     -0.968657157       0.881143165       2.524360300
                        -----------------------------------------
Magnitude (a.u.)       :      2.843783552
Magnitude (Debye)      :      7.228323345

Rotational constants in cm-1:             0.017848             0.015396             0.012106
Rotational constants in MHz :           535.066414           461.567252           362.936243

                             ****ORCA TERMINATED NORMALLY****
TOTAL RUN TIME: 0 days 0 hours 5 minutes 15 seconds 142 msec
