                         Program Version 6.0.0  -   RELEASE  -
|  1> ! EnGrad wB97M-D3BJ def2-TZVPPD
|  2> %pal nprocs 8 end%pal nprocs 16 end
|  3> %tddft
|  4>  sf true
|  5>  nroots 2 Iroot 1 end
|  6> *xyz 0 3
|  7> O   0.62466737508506 1.20320175202748 0.31970685460476
|  8> C   0.61321688143855 0.15725685823157 -0.28325007603717
|  9> C   -0.45557749707256 -0.81420886736095 0.16443686010996
| 10> H   -0.00367404429058 -1.54436004830478 0.8389030062844
| 11> H   1.33203450841827 -0.09064075133438 -1.07885766635927
| 12> H   -0.89473004956822 -1.37306431992916 -0.66221456087154
| 13> H   -1.21373717401051 -0.25658462332978 0.70127558226886
| 14> *
| 15>
| 16>                          ****END OF INPUT****

CARTESIAN COORDINATES (ANGSTROEM)
---------------------------------
  O      0.624667    1.203202    0.319707
  C      0.613217    0.157257   -0.283250
  C     -0.455577   -0.814209    0.164437
  H     -0.003674   -1.544360    0.838903
  H      1.332035   -0.090641   -1.078858
  H     -0.894730   -1.373064   -0.662215
  H     -1.213737   -0.256585    0.701276

 Total Charge           Charge          ....    0
 Multiplicity           Mult            ....    3
 Number of Electrons    NEL             ....   24
 Basis Dimension        Dim             ....  182

ORBITAL ENERGIES
----------------
                 SPIN UP ORBITALS
  NO   OCC          E(Eh)            E(eV)
   0   1.0000     -19.411736      -528.2202
   1   1.0000     -10.381824      -282.5038
   2   1.0000     -10.366499      -282.0868
   3   1.0000      -1.247593       -33.9487
   4   1.0000      -0.876561       -23.8524
   5   1.0000      -0.721525       -19.6337
   6   1.0000      -0.638737       -17.3809
   7   1.0000      -0.583774       -15.8853
   8   1.0000      -0.583029       -15.8650
   9   1.0000      -0.513991       -13.9864
  10   1.0000      -0.509811       -13.8727
  11   1.0000      -0.436818       -11.8864
  12   1.0000      -0.225330        -6.1315
  13   0.0000       0.042808         1.1649
  14   0.0000       0.060475         1.6456
  15   0.0000       0.079048         2.1510
  16   0.0000       0.088250         2.4014
  17   0.0000       0.108616         2.9556

                 SPIN DOWN ORBITALS
  NO   OCC          E(Eh)            E(eV)
   0   1.0000     -19.383862      -527.4617
   1   1.0000     -10.371480      -282.2223
   2   1.0000     -10.364141      -282.0226
   3   1.0000      -1.189225       -32.3605
   4   1.0000      -0.856894       -23.3173
   5   1.0000      -0.677975       -18.4486
   6   1.0000      -0.585956       -15.9447
   7   1.0000      -0.541909       -14.7461
   8   1.0000      -0.533364       -14.5136
   9   1.0000      -0.501470       -13.6457
  10   1.0000      -0.469625       -12.7791
  11   0.0000      -0.080781        -2.1982
  12   0.0000       0.042230         1.1491
  13   0.0000       0.059982         1.6322
  14   0.0000       0.078724         2.1422
  15   0.0000       0.080678         2.1954

----------------------------------------------------------------------------------------------------
          SPIN FLIP ABSORPTION SPECTRUM VIA TRANSITION ELECTRIC DIPOLE MOMENTS
----------------------------------------------------------------------------------------------------
     Transition      Energy     Energy  Wavelength fosc(D2)      D2        DX        DY        DZ
                      (eV)      (cm-1)    (nm)                 (au**2)    (au)      (au)      (au)
----------------------------------------------------------------------------------------------------
  1-3A  ->  2-3A    4.362336   35184.6   284.2   0.000012319   0.00012   0.00781  -0.00681  -0.00279

Dispersion correction             ... done (  0.1 sec)

MULLIKEN ATOMIC CHARGES AND SPIN DENSITIES
------------------------------------------
   0 O :   -0.511452    0.055147
   1 C :    0.199212   -0.174754
   2 C :   -0.658734    0.044357
   3 H :    0.197187   -0.004472
   4 H :    0.299050    0.079925
   5 H :    0.239471   -0.003678
   6 H :    0.235266    0.003475
Sum of atomic charges       :    0.0000000

LOEWDIN ATOMIC CHARGES AND SPIN DENSITIES
-----------------------------------------
   0 O :    0.023475    0.021627
   1 C :   -0.189436   -0.014198
   2 C :    0.171886   -0.001119
   3 H :   -0.008546   -0.001105
   4 H :    0.029470   -0.004443
   5 H :   -0.017402   -0.000899
   6 H :   -0.009445    0.000138

  Mayer bond orders larger than 0.100000
B(  0-O ,  1-C ) :   1.7898 B(  1-C ,  2-C ) :   0.7785 B(  1-C ,  4-H ) :   0.9234
B(  2-C ,  3-H ) :   0.9783 B(  2-C ,  5-H ) :   1.0044 B(  2-C ,  6-H ) :   0.9575

Dispersion correction           -0.005557110
FINAL SINGLE POINT ENERGY      -153.919166029157

DIPOLE MOMENT
-------------

Method             : TDA/CIS
Type of density    : Electron Density
Level              : Relaxed density
State              :   1
Multiplicity       :   3
Irrep              :   0
Energy             :     0.0000000000000000 Eh
Relativity type    :
Basis              : AO
                                X                 Y                 Z
Electronic contribution:      1.520065466       2.644728519       0.019470695
Nuclear contribution   :     -1.672027267      -3.735065277      -0.481825384
                        -----------------------------------------
Total Dipole Moment    :     -0.151961801      -1.090336758      -0.462354689
                        -----------------------------------------
Magnitude (a.u.)       :      1.194026169
Magnitude (Debye)      :      3.034973329

Rotational constants in cm-1:             1.661442             0.368662             0.319397
Rotational constants in MHz :         49808.785876         11052.211921          9575.266803

                             ****ORCA TERMINATED NORMALLY****
TOTAL RUN TIME: 0 days 0 hours 7 minutes 55 seconds 378 msec
