                         Program Version 6.0.0  -   RELEASE  -
|  1> ! Engrad wB97M-D3BJ def2-TZVPPD
|  2> %pal nprocs 8 end%pal nprocs 16 end
|  3> %tddft nroots 2 Iroot 2
|  4>  sf true
|  5> end
|  6> *xyz 0 3
|  7> O   1.74273371973725 0.89401049006514 0.0455539352539
|  8> C   0.98245231168982 -0.023277286092 0.18300422368081
|  9> C   -0.30324555046674 -0.67005471519011 -0.25101716720178
| 10> H   1.34175715612093 -0.74586932252351 0.96984087836308
| 11> H   -0.03000541027342 -1.67293152344376 -0.57448990925292
| 12> H   -0.87962407032964 -0.16881069231585 -1.02731950698705
| 13> H   -0.89934586095462 -0.76940957967001 0.65442754614396
| 14> *
| 15>
| 16>                          ****END OF INPUT****

CARTESIAN COORDINATES (ANGSTROEM)
---------------------------------
  O      1.742734    0.894010    0.045554
  C      0.982452   -0.023277    0.183004
  C     -0.303246   -0.670055   -0.251017
  H      1.341757   -0.745869    0.969841
  H     -0.030005   -1.672932   -0.574490
  H     -0.879624   -0.168811   -1.027320
  H     -0.899346   -0.769410    0.654428

 Total Charge           Charge          ....    0
 Multiplicity           Mult            ....    3
 Number of Electrons    NEL             ....   24
 Basis Dimension        Dim             ....  182

ORBITAL ENERGIES
----------------
                 SPIN UP ORBITALS
  NO   OCC          E(Eh)            E(eV)
   0   1.0000     -19.402184      -527.9603
   1   1.0000     -10.383309      -282.5442
   2   1.0000     -10.374913      -282.3157
   3   1.0000      -1.238735       -33.7077
   4   1.0000      -0.893008       -24.3000
   5   1.0000      -0.713951       -19.4276
   6   1.0000      -0.624755       -17.0005
   7   1.0000      -0.589131       -16.0311
   8   1.0000      -0.579164       -15.7599
   9   1.0000      -0.519116       -14.1259
  10   1.0000      -0.518576       -14.1112
  11   1.0000      -0.415031       -11.2936
  12   1.0000      -0.216029        -5.8784
  13   0.0000       0.035519         0.9665
  14   0.0000       0.059354         1.6151
  15   0.0000       0.077205         2.1009
  16   0.0000       0.087090         2.3698
  17   0.0000       0.104838         2.8528

                 SPIN DOWN ORBITALS
  NO   OCC          E(Eh)            E(eV)
   0   1.0000     -19.375596      -527.2368
   1   1.0000     -10.373194      -282.2690
   2   1.0000     -10.372939      -282.2620
   3   1.0000      -1.184346       -32.2277
   4   1.0000      -0.873972       -23.7820
   5   1.0000      -0.667582       -18.1658
   6   1.0000      -0.583887       -15.8884
   7   1.0000      -0.543277       -14.7833
   8   1.0000      -0.535066       -14.5599
   9   1.0000      -0.495668       -13.4878
  10   1.0000      -0.470719       -12.8089
  11   0.0000      -0.077761        -2.1160
  12   0.0000       0.037150         1.0109
  13   0.0000       0.059025         1.6061
  14   0.0000       0.076664         2.0861
  15   0.0000       0.084989         2.3127

----------------------------------------------------------------------------------------------------
          SPIN FLIP ABSORPTION SPECTRUM VIA TRANSITION ELECTRIC DIPOLE MOMENTS
----------------------------------------------------------------------------------------------------
     Transition      Energy     Energy  Wavelength fosc(D2)      D2        DX        DY        DZ
                      (eV)      (cm-1)    (nm)                 (au**2)    (au)      (au)      (au)
----------------------------------------------------------------------------------------------------
  1-3A  ->  2-3A    4.525480   36500.5   274.0   0.000492412   0.00444   0.03304  -0.03431  -0.04661

Dispersion correction             ... done (  0.0 sec)

MULLIKEN ATOMIC CHARGES AND SPIN DENSITIES
------------------------------------------
   0 O :   -0.287812    0.512760
   1 C :    0.246650   -0.589778
   2 C :   -0.698294    0.110686
   3 H :    0.063171    0.067806
   4 H :    0.215133   -0.054124
   5 H :    0.246142    0.004475
   6 H :    0.215009   -0.051825
Sum of atomic charges       :   -0.0000000

LOEWDIN ATOMIC CHARGES AND SPIN DENSITIES
-----------------------------------------
   0 O :    0.143899    0.334829
   1 C :   -0.252787   -0.321709
   2 C :    0.129216   -0.024186
   3 H :    0.030139    0.049917
   4 H :   -0.023051   -0.026051
   5 H :   -0.004389    0.013163
   6 H :   -0.023029   -0.025964

  Mayer bond orders larger than 0.100000
B(  0-O ,  1-C ) :   1.3346 B(  0-O ,  3-H ) :   0.1010 B(  1-C ,  2-C ) :   0.5703
B(  1-C ,  3-H ) :   0.9666 B(  2-C ,  4-H ) :   1.0155 B(  2-C ,  5-H ) :   0.9301
B(  2-C ,  6-H ) :   1.0164

Dispersion correction           -0.005488812
FINAL SINGLE POINT ENERGY      -153.740156969044

DIPOLE MOMENT
-------------

Method             : TDA/CIS
Type of density    : Electron Density
Level              : Relaxed density
State              :   2
Multiplicity       :   3
Irrep              :   0
Energy             :     0.0000000000000000 Eh
Relativity type    :
Basis              : AO
                                X                 Y                 Z
Electronic contribution:      2.916190704       2.821322685      -0.014099282
Nuclear contribution   :     -3.454486112      -3.357910631       0.027341404
                        -----------------------------------------
Total Dipole Moment    :     -0.538295407      -0.536587946       0.013242123
                        -----------------------------------------
Magnitude (a.u.)       :      0.760173614
Magnitude (Debye)      :      1.932207771

Rotational constants in cm-1:             2.653482             0.294762             0.278930
Rotational constants in MHz :         79549.398880          8836.738901          8362.122376

                             ****ORCA TERMINATED NORMALLY****
TOTAL RUN TIME: 0 days 0 hours 0 minutes 16 seconds 148 msec
