                         Program Version 6.0.0  -   RELEASE  -
|  1> ! Engrad def2-TZVPPD wB97M-D3BJ
|  2> %pal nprocs 8 end%pal nprocs 64 end
|  3> %tddft
|  4>  Iroot 2 Nroots 3
|  5> sf true
|  6> end
|  7> *xyz 0 3
|  8> O   1.20212478 -0.82238306 0.22494885
|  9> C   0.41515961 0.32786121 0.52123852
| 10> C   -0.49264393 0.75379551 -0.55252039
| 11> H   1.1398814 1.11542927 0.70098211
| 12> H   -0.18764754 0.06411814 1.41106474
| 13> H   -0.37376331 1.76601725 -1.13744765
| 14> H   -1.27650669 0.11622808 -0.96536024
| 15> *
| 16>
| 17>                          ****END OF INPUT****

CARTESIAN COORDINATES (ANGSTROEM)
---------------------------------
  O      1.202125   -0.822383    0.224949
  C      0.415160    0.327861    0.521239
  C     -0.492644    0.753796   -0.552520
  H      1.139881    1.115429    0.700982
  H     -0.187648    0.064118    1.411065
  H     -0.373763    1.766017   -1.137448
  H     -1.276507    0.116228   -0.965360

 Total Charge           Charge          ....    0
 Multiplicity           Mult            ....    3
 Number of Electrons    NEL             ....   24
 Basis Dimension        Dim             ....  182

ORBITAL ENERGIES
----------------
                 SPIN UP ORBITALS
  NO   OCC          E(Eh)            E(eV)
   0   1.0000     -19.392207      -527.6888
   1   1.0000     -10.414612      -283.3960
   2   1.0000     -10.376500      -282.3589
   3   1.0000      -1.152779       -31.3687
   4   1.0000      -0.880067       -23.9478
   5   1.0000      -0.727693       -19.8015
   6   1.0000      -0.621962       -16.9244
   7   1.0000      -0.567320       -15.4376
   8   1.0000      -0.553571       -15.0634
   9   1.0000      -0.507131       -13.7997
  10   1.0000      -0.445646       -12.1266
  11   1.0000      -0.416508       -11.3337
  12   1.0000      -0.329198        -8.9579
  13   0.0000       0.041189         1.1208
  14   0.0000       0.060968         1.6590
  15   0.0000       0.076386         2.0786
  16   0.0000       0.088824         2.4170
  17   0.0000       0.113409         3.0860

                 SPIN DOWN ORBITALS
  NO   OCC          E(Eh)            E(eV)
   0   1.0000     -19.366838      -526.9985
   1   1.0000     -10.416011      -283.4341
   2   1.0000     -10.363407      -282.0027
   3   1.0000      -1.093825       -29.7645
   4   1.0000      -0.847774       -23.0691
   5   1.0000      -0.701579       -19.0909
   6   1.0000      -0.589456       -16.0399
   7   1.0000      -0.542844       -14.7715
   8   1.0000      -0.525107       -14.2889
   9   1.0000      -0.475397       -12.9362
  10   1.0000      -0.385279       -10.4840
  11   0.0000      -0.051945        -1.4135
  12   0.0000      -0.006064        -0.1650
  13   0.0000       0.040578         1.1042
  14   0.0000       0.061628         1.6770
  15   0.0000       0.076888         2.0922

----------------------------------------------------------------------------------------------------
          SPIN FLIP ABSORPTION SPECTRUM VIA TRANSITION ELECTRIC DIPOLE MOMENTS
----------------------------------------------------------------------------------------------------
     Transition      Energy     Energy  Wavelength fosc(D2)      D2        DX        DY        DZ
                      (eV)      (cm-1)    (nm)                 (au**2)    (au)      (au)      (au)
----------------------------------------------------------------------------------------------------
  1-3A  ->  2-3A    0.090148     727.1  13753.5   0.000120850   0.05472   0.15074  -0.13268   0.11997
  1-3A  ->  3-1A    0.922636    7441.6  1343.8   0.017053274   0.75443  -0.57179   0.59820  -0.26390

Dispersion correction             ... done (  0.2 sec)

MULLIKEN ATOMIC CHARGES AND SPIN DENSITIES
------------------------------------------
   0 O :   -0.320645    0.523943
   1 C :   -0.097178    0.036368
   2 C :   -0.295894   -0.457528
   3 H :    0.209889   -0.029389
   4 H :    0.182018    0.009167
   5 H :    0.150609   -0.028352
   6 H :    0.171201   -0.054209
Sum of atomic charges       :    0.0000000

LOEWDIN ATOMIC CHARGES AND SPIN DENSITIES
-----------------------------------------
   0 O :    0.027504    0.494210
   1 C :   -0.251566   -0.025834
   2 C :    0.255592   -0.381818
   3 H :   -0.006150   -0.019927
   4 H :    0.040073    0.023749
   5 H :   -0.000081   -0.040231
   6 H :   -0.065372   -0.050148

  Mayer bond orders larger than 0.100000
B(  0-O ,  1-C ) :   0.8339 B(  0-O ,  2-C ) :   0.1610 B(  1-C ,  2-C ) :   0.8448
B(  1-C ,  3-H ) :   1.0306 B(  1-C ,  4-H ) :   0.9235 B(  2-C ,  5-H ) :   1.0024
B(  2-C ,  6-H ) :   0.9982

Dispersion correction           -0.005438686
FINAL SINGLE POINT ENERGY      -153.744048503157

DIPOLE MOMENT
-------------

Method             : TDA/CIS
Type of density    : Electron Density
Level              : Relaxed density
State              :   2
Multiplicity       :   3
Irrep              :   0
Energy             :     0.0000000000000000 Eh
Relativity type    :
Basis              : AO
                                X                 Y                 Z
Electronic contribution:      1.627072670      -2.018718501       0.418844417
Nuclear contribution   :     -2.142159936       2.610550468      -0.264458513
                        -----------------------------------------
Total Dipole Moment    :     -0.515087266       0.591831967       0.154385905
                        -----------------------------------------
Magnitude (a.u.)       :      0.799634276
Magnitude (Debye)      :      2.032508804

Rotational constants in cm-1:             1.437850             0.330790             0.298186
Rotational constants in MHz :         43105.645558          9916.824920          8939.377717

                             ****ORCA TERMINATED NORMALLY****
TOTAL RUN TIME: 0 days 0 hours 0 minutes 25 seconds 198 msec
