                         Program Version 6.0.0  -   RELEASE  -
|  1> ! Engrad def2-TZVPPD wB97M-D3BJ
|  2> %pal nprocs 8 end%pal nprocs 64 end
|  3> %tddft
|  4>  Iroot 1 Nroots 3
|  5> sf true
|  6> end
|  7> *xyz 0 3
|  8> O   3.43937108 -0.25913914 -0.20177931
|  9> O   -0.6320379 0.871763 -2.77896617
| 10> O   -0.09917842 -2.94274844 -0.53493499
| 11> O   -3.78427726 -0.30953763 0.14371708
| 12> N   -0.1791826 -1.36891773 1.1533086
| 13> N   -2.01456546 0.89581504 0.90753599
| 14> N   1.47014872 -1.31021009 -0.51199736
| 15> N   -1.95373867 -0.06001295 -1.20079894
| 16> C   1.66100866 0.09160689 1.3753205
| 17> C   -0.15498982 1.26592638 -0.56381047
| 18> C   0.20586135 -0.02227679 1.61547233
| 19> C   -0.59069064 1.09294724 0.84513434
| 20> C   2.42729711 1.14538438 2.07590851
| 21> C   1.11731474 2.00748475 -0.99891207
| 22> C   2.30483984 -0.54233459 0.24498105
| 23> C   -0.9092138 0.70200326 -1.62013187
| 24> C   0.40937016 -1.99150917 0.04158174
| 25> C   -2.7061161 0.14905477 -0.03208195
| 26> H   -0.04391771 0.03353196 2.67262242
| 27> H   -0.43635406 2.01910404 1.35714813
| 28> H   3.36570887 1.34769797 1.56537393
| 29> H   1.86685402 2.15124352 2.07355241
| 30> H   2.64177391 1.00586856 3.13152103
| 31> H   1.87473687 1.29667435 -1.39758366
| 32> H   0.88704411 2.69704706 -1.7591719
| 33> H   1.57939074 2.59407213 -0.16107933
| 34> H   -1.16603954 -1.64283011 1.18578861
| 35> H   -2.48685303 1.05125566 1.79781768
| 36> H   1.81994323 -1.82051255 -1.283536
| 37> H   -2.47307313 -0.5279061 -1.94411842
| 38> *
| 39>
| 40>                          ****END OF INPUT****

CARTESIAN COORDINATES (ANGSTROEM)
---------------------------------
  O      3.439371   -0.259139   -0.201779
  O     -0.632038    0.871763   -2.778966
  O     -0.099178   -2.942748   -0.534935
  O     -3.784277   -0.309538    0.143717
  N     -0.179183   -1.368918    1.153309
  N     -2.014565    0.895815    0.907536
  N      1.470149   -1.310210   -0.511997
  N     -1.953739   -0.060013   -1.200799
  C      1.661009    0.091607    1.375320
  C     -0.154990    1.265926   -0.563810
  C      0.205861   -0.022277    1.615472
  C     -0.590691    1.092947    0.845134
  C      2.427297    1.145384    2.075909
  C      1.117315    2.007485   -0.998912
  C      2.304840   -0.542335    0.244981
  C     -0.909214    0.702003   -1.620132
  C      0.409370   -1.991509    0.041582
  C     -2.706116    0.149055   -0.032082
  H     -0.043918    0.033532    2.672622
  H     -0.436354    2.019104    1.357148
  H      3.365709    1.347698    1.565374
  H      1.866854    2.151244    2.073552
  H      2.641774    1.005869    3.131521
  H      1.874737    1.296674   -1.397584
  H      0.887044    2.697047   -1.759172
  H      1.579391    2.594072   -0.161079
  H     -1.166040   -1.642830    1.185789
  H     -2.486853    1.051256    1.797818
  H      1.819943   -1.820513   -1.283536
  H     -2.473073   -0.527906   -1.944118

 Total Charge           Charge          ....    0
 Multiplicity           Mult            ....    3
 Number of Electrons    NEL             ....  132
 Basis Dimension        Dim             ....  882

ORBITAL ENERGIES
----------------
                 SPIN UP ORBITALS
  NO   OCC          E(Eh)            E(eV)
   0   1.0000     -19.339987      -526.2678
   1   1.0000     -19.330663      -526.0141
   2   1.0000     -19.326950      -525.9130
   3   1.0000     -19.325467      -525.8727
   4   1.0000     -14.568860      -396.4388
   5   1.0000     -14.564835      -396.3293
   6   1.0000     -14.559435      -396.1824
   7   1.0000     -14.559417      -396.1819
   8   1.0000     -10.510584      -286.0075
   9   1.0000     -10.508578      -285.9529
  10   1.0000     -10.488800      -285.4147
  11   1.0000     -10.467015      -284.8220
  12   1.0000     -10.448508      -284.3184
  13   1.0000     -10.443921      -284.1935
  14   1.0000     -10.426739      -283.7260
  15   1.0000     -10.411613      -283.3144
  16   1.0000     -10.379933      -282.4523
  17   1.0000     -10.367521      -282.1146
  18   1.0000      -1.233502       -33.5653
  19   1.0000      -1.220990       -33.2248
  20   1.0000      -1.205116       -32.7929
  21   1.0000      -1.188497       -32.3406
  22   1.0000      -1.124527       -30.5999
  23   1.0000      -1.102958       -30.0130
  24   1.0000      -1.072797       -29.1923
  25   1.0000      -1.058497       -28.8032
  26   1.0000      -0.983733       -26.7687
  27   1.0000      -0.951691       -25.8968
  28   1.0000      -0.888613       -24.1804
  29   1.0000      -0.844108       -22.9693
  30   1.0000      -0.829853       -22.5814
  31   1.0000      -0.808743       -22.0070
  32   1.0000      -0.788035       -21.4435
  33   1.0000      -0.781654       -21.2699
  34   1.0000      -0.703715       -19.1491
  35   1.0000      -0.698511       -19.0074
  36   1.0000      -0.690434       -18.7877
  37   1.0000      -0.675034       -18.3686
  38   1.0000      -0.660437       -17.9714
  39   1.0000      -0.642411       -17.4809
  40   1.0000      -0.621271       -16.9056
  41   1.0000      -0.604027       -16.4364
  42   1.0000      -0.598848       -16.2955
  43   1.0000      -0.589393       -16.0382
  44   1.0000      -0.580251       -15.7894
  45   1.0000      -0.570770       -15.5314
  46   1.0000      -0.568025       -15.4568
  47   1.0000      -0.564550       -15.3622
  48   1.0000      -0.561075       -15.2676
  49   1.0000      -0.555084       -15.1046
  50   1.0000      -0.551674       -15.0118
  51   1.0000      -0.533207       -14.5093
  52   1.0000      -0.530003       -14.4221
  53   1.0000      -0.518686       -14.1142
  54   1.0000      -0.506817       -13.7912
  55   1.0000      -0.503242       -13.6939
  56   1.0000      -0.489892       -13.3306
  57   1.0000      -0.428241       -11.6530
  58   1.0000      -0.425297       -11.5729
  59   1.0000      -0.419972       -11.4280
  60   1.0000      -0.408396       -11.1130
  61   1.0000      -0.406124       -11.0512
  62   1.0000      -0.397631       -10.8201
  63   1.0000      -0.393905       -10.7187
  64   1.0000      -0.385863       -10.4999
  65   1.0000      -0.349413        -9.5080
  66   1.0000      -0.329952        -8.9784
  67   0.0000       0.006754         0.1838
  68   0.0000       0.031129         0.8471
  69   0.0000       0.033228         0.9042
  70   0.0000       0.036283         0.9873
  71   0.0000       0.053030         1.4430

                 SPIN DOWN ORBITALS
  NO   OCC          E(Eh)            E(eV)
   0   1.0000     -19.335116      -526.1353
   1   1.0000     -19.330458      -526.0085
   2   1.0000     -19.325396      -525.8708
   3   1.0000     -19.322742      -525.7985
   4   1.0000     -14.568005      -396.4156
   5   1.0000     -14.564576      -396.3223
   6   1.0000     -14.559261      -396.1776
   7   1.0000     -14.558749      -396.1637
   8   1.0000     -10.510624      -286.0086
   9   1.0000     -10.508635      -285.9545
  10   1.0000     -10.489880      -285.4441
  11   1.0000     -10.467953      -284.8475
  12   1.0000     -10.448084      -284.3068
  13   1.0000     -10.443551      -284.1835
  14   1.0000     -10.415595      -283.4227
  15   1.0000     -10.400165      -283.0029
  16   1.0000     -10.380594      -282.4703
  17   1.0000     -10.368053      -282.1291
  18   1.0000      -1.232479       -33.5375
  19   1.0000      -1.219217       -33.1766
  20   1.0000      -1.199615       -32.6432
  21   1.0000      -1.183287       -32.1989
  22   1.0000      -1.121619       -30.5208
  23   1.0000      -1.099923       -29.9304
  24   1.0000      -1.070425       -29.1277
  25   1.0000      -1.056858       -28.7586
  26   1.0000      -0.970643       -26.4125
  27   1.0000      -0.933927       -25.4134
  28   1.0000      -0.882308       -24.0088
  29   1.0000      -0.839285       -22.8381
  30   1.0000      -0.823359       -22.4047
  31   1.0000      -0.803521       -21.8649
  32   1.0000      -0.786467       -21.4009
  33   1.0000      -0.779657       -21.2156
  34   1.0000      -0.697342       -18.9756
  35   1.0000      -0.692791       -18.8518
  36   1.0000      -0.684691       -18.6314
  37   1.0000      -0.666775       -18.1439
  38   1.0000      -0.650070       -17.6893
  39   1.0000      -0.637476       -17.3466
  40   1.0000      -0.616820       -16.7845
  41   1.0000      -0.599581       -16.3154
  42   1.0000      -0.592659       -16.1271
  43   1.0000      -0.584234       -15.8978
  44   1.0000      -0.571218       -15.5436
  45   1.0000      -0.567871       -15.4525
  46   1.0000      -0.561724       -15.2853
  47   1.0000      -0.560372       -15.2485
  48   1.0000      -0.553815       -15.0701
  49   1.0000      -0.543625       -14.7928
  50   1.0000      -0.540395       -14.7049
  51   1.0000      -0.525547       -14.3009
  52   1.0000      -0.522695       -14.2233
  53   1.0000      -0.510654       -13.8956
  54   1.0000      -0.500529       -13.6201
  55   1.0000      -0.495362       -13.4795
  56   1.0000      -0.485063       -13.1992
  57   1.0000      -0.424256       -11.5446
  58   1.0000      -0.420049       -11.4301
  59   1.0000      -0.410099       -11.1594
  60   1.0000      -0.397819       -10.8252
  61   1.0000      -0.392558       -10.6820
  62   1.0000      -0.391551       -10.6546
  63   1.0000      -0.388580       -10.5738
  64   1.0000      -0.377765       -10.2795
  65   0.0000      -0.069245        -1.8843
  66   0.0000      -0.051560        -1.4030
  67   0.0000       0.006275         0.1707
  68   0.0000       0.031026         0.8443
  69   0.0000       0.032990         0.8977

----------------------------------------------------------------------------------------------------
          SPIN FLIP ABSORPTION SPECTRUM VIA TRANSITION ELECTRIC DIPOLE MOMENTS
----------------------------------------------------------------------------------------------------
     Transition      Energy     Energy  Wavelength fosc(D2)      D2        DX        DY        DZ
                      (eV)      (cm-1)    (nm)                 (au**2)    (au)      (au)      (au)
----------------------------------------------------------------------------------------------------
  1-3A  ->  2-3A    0.027252     219.8  45495.0   0.000003334   0.00499   0.06306  -0.02821   0.01488
  1-3A  ->  3-1A    2.003426   16158.7   618.9   0.019583606   0.39899   0.61122  -0.03805   0.15476

Dispersion correction             ... done (  0.1 sec)

MULLIKEN ATOMIC CHARGES AND SPIN DENSITIES
------------------------------------------
   0 O :   -0.697791   -0.122968
   1 O :   -0.662716    0.114004
   2 O :   -0.660689   -0.003105
   3 O :   -0.598430    0.001202
   4 N :   -0.289391   -0.027006
   5 N :   -0.298191    0.005089
   6 N :    0.206003   -0.008462
   7 N :    0.072786    0.019865
   8 C :    0.856572    0.197095
   9 C :   -0.024609    0.358274
  10 C :    0.031289   -0.217501
  11 C :    0.500551    0.009814
  12 C :   -1.355857   -0.019188
  13 C :   -1.552720   -0.043359
  14 C :   -0.043654   -0.425347
  15 C :    0.466761    0.067180
  16 C :    0.392906    0.022444
  17 C :    0.320739   -0.001642
  18 H :    0.456925   -0.003904
  19 H :    0.614041    0.026045
  20 H :    0.278481   -0.004090
  21 H :    0.340219   -0.002774
  22 H :    0.363473   -0.005758
  23 H :    0.247709    0.033170
  24 H :    0.469949    0.014636
  25 H :    0.279586    0.007966
  26 H :    0.117356    0.003133
  27 H :    0.086085   -0.000294
  28 H :    0.024442    0.006873
  29 H :    0.058176   -0.001392
Sum of atomic charges       :   -0.0000000

LOEWDIN ATOMIC CHARGES AND SPIN DENSITIES
-----------------------------------------
   0 O :    0.043638   -0.108395
   1 O :    0.119072    0.098464
   2 O :    0.083604   -0.003232
   3 O :    0.120700    0.001211
   4 N :    0.275785   -0.004714
   5 N :    0.272797   -0.002480
   6 N :    0.338594   -0.006012
   7 N :    0.326351    0.018439
   8 C :   -0.026525   -0.341148
   9 C :   -0.004207    0.363851
  10 C :   -0.089997   -0.021411
  11 C :   -0.114867    0.025245
  12 C :    0.174241   -0.053554
  13 C :    0.223308    0.038940
  14 C :   -0.412809   -0.063223
  15 C :   -0.466353    0.063453
  16 C :   -0.448406   -0.000217
  17 C :   -0.491409    0.000167
  18 H :    0.058753   -0.003451
  19 H :    0.036084    0.006540
  20 H :   -0.006298    0.000051
  21 H :    0.036486   -0.014388
  22 H :    0.000966   -0.014679
  23 H :    0.015185    0.013570
  24 H :   -0.029780    0.008592
  25 H :    0.014272   -0.001265
  26 H :   -0.027324   -0.000326
  27 H :   -0.010403   -0.000446
  28 H :   -0.019840   -0.000984
  29 H :    0.008385    0.001401

  Mayer bond orders larger than 0.100000
B(  0-O , 14-C ) :   1.3650 B(  1-O ,  9-C ) :   0.1042 B(  1-O , 15-C ) :   1.2453
B(  2-O , 16-C ) :   1.5044 B(  3-O , 17-C ) :   1.6544 B(  4-N ,  8-C ) :   0.2208
B(  4-N , 10-C ) :   0.3002 B(  4-N , 14-C ) :   0.1032 B(  4-N , 16-C ) :   0.9960
B(  4-N , 26-H ) :   0.9686 B(  5-N ,  9-C ) :   0.3242 B(  5-N , 10-C ) :   0.1373
B(  5-N , 17-C ) :   1.1507 B(  5-N , 27-H ) :   1.0618 B(  6-N , 10-C ) :   0.1040
B(  6-N , 14-C ) :   1.0335 B(  6-N , 16-C ) :   0.9929 B(  6-N , 28-H ) :   1.0621
B(  7-N , 11-C ) :   0.1216 B(  7-N , 15-C ) :   1.0760 B(  7-N , 17-C ) :   0.9520
B(  7-N , 29-H ) :   1.0585 B(  8-C ,  9-C ) :   0.1194 B(  8-C , 10-C ) :   0.6080
B(  8-C , 11-C ) :   0.1109 B(  8-C , 12-C ) :   0.3525 B(  8-C , 14-C ) :   0.6760
B(  8-C , 18-H ) :  -0.1328 B(  8-C , 20-H ) :  -0.1076 B(  9-C , 11-C ) :  -0.2320
B(  9-C , 13-C ) :   0.3924 B(  9-C , 15-C ) :   0.9116 B(  9-C , 19-H ) :  -0.3055
B(  9-C , 25-H ) :  -0.1298 B( 10-C , 11-C ) :   0.7962 B( 10-C , 16-C ) :  -0.1953
B( 10-C , 18-H ) :   0.8548 B( 11-C , 12-C ) :   0.1193 B( 11-C , 13-C ) :  -0.2855
B( 11-C , 17-C ) :  -0.2426 B( 11-C , 18-H ) :  -0.1358 B( 11-C , 19-H ) :   0.8252
B( 12-C , 20-H ) :   1.0410 B( 12-C , 21-H ) :   0.8300 B( 12-C , 22-H ) :   0.9372
B( 13-C , 15-C ) :  -0.2654 B( 13-C , 23-H ) :   0.9854 B( 13-C , 24-H ) :   0.8108
B( 13-C , 25-H ) :   1.0877 B( 14-C , 16-C ) :  -0.1055

Dispersion correction           -0.061178310
FINAL SINGLE POINT ENERGY      -908.785950378689

DIPOLE MOMENT
-------------

Method             : TDA/CIS
Type of density    : Electron Density
Level              : Relaxed density
State              :   1
Multiplicity       :   3
Irrep              :   0
Energy             :     0.0000000000000000 Eh
Relativity type    :
Basis              : AO
                                X                 Y                 Z
Electronic contribution:     -6.864354538      -8.350060956      -4.740371123
Nuclear contribution   :      7.029712613      10.017052125       7.010027018
                        -----------------------------------------
Total Dipole Moment    :      0.165358074       1.666991169       2.269655894
                        -----------------------------------------
Magnitude (a.u.)       :      2.820911329
Magnitude (Debye)      :      7.170186775

Rotational constants in cm-1:             0.021968             0.013124             0.012679
Rotational constants in MHz :           658.595315           393.443172           380.120753

                             ****ORCA TERMINATED NORMALLY****
TOTAL RUN TIME: 0 days 0 hours 5 minutes 3 seconds 883 msec
