                         Program Version 6.0.0  -   RELEASE  -
|  1> ! Engrad def2-TZVPPD wB97M-D3BJ
|  2> %pal nprocs 8 end%pal nprocs 32 end
|  3> %tddft Nroots 2 Iroot 2
|  4> sf true
|  5> end
|  6> *xyz 0 3
|  7> O   0.29468636 0.98627719 -0.00378681
|  8> C   0.63689944 -0.31834509 0.00052508
|  9> C   -0.74451571 -0.6927118 -0.0006288
| 10> H   1.19972736 -0.62180684 0.89736999
| 11> H   1.20169249 -0.62883758 -0.88978775
| 12> H   -1.28941427 -0.70443566 -0.91928866
| 13> H   -1.28748045 -0.70536084 0.93348721
| 14> *
| 15>
| 16>                          ****END OF INPUT****

CARTESIAN COORDINATES (ANGSTROEM)
---------------------------------
  O      0.294686    0.986277   -0.003787
  C      0.636899   -0.318345    0.000525
  C     -0.744516   -0.692712   -0.000629
  H      1.199727   -0.621807    0.897370
  H      1.201692   -0.628838   -0.889788
  H     -1.289414   -0.704436   -0.919289
  H     -1.287480   -0.705361    0.933487

 Total Charge           Charge          ....    0
 Multiplicity           Mult            ....    3
 Number of Electrons    NEL             ....   24
 Basis Dimension        Dim             ....  182

ORBITAL ENERGIES
----------------
                 SPIN UP ORBITALS
  NO   OCC          E(Eh)            E(eV)
   0   1.0000     -19.406373      -528.0742
   1   1.0000     -10.408068      -283.2179
   2   1.0000     -10.340649      -281.3834
   3   1.0000      -1.207812       -32.8662
   4   1.0000      -0.866355       -23.5747
   5   1.0000      -0.740334       -20.1455
   6   1.0000      -0.642755       -17.4903
   7   1.0000      -0.603525       -16.4227
   8   1.0000      -0.548955       -14.9378
   9   1.0000      -0.509262       -13.8577
  10   1.0000      -0.451904       -12.2969
  11   1.0000      -0.436998       -11.8913
  12   1.0000      -0.277213        -7.5434
  13   0.0000       0.041065         1.1174
  14   0.0000       0.063611         1.7309
  15   0.0000       0.073100         1.9891
  16   0.0000       0.086081         2.3424
  17   0.0000       0.116910         3.1813

                 SPIN DOWN ORBITALS
  NO   OCC          E(Eh)            E(eV)
   0   1.0000     -19.378193      -527.3074
   1   1.0000     -10.409248      -283.2500
   2   1.0000     -10.328013      -281.0395
   3   1.0000      -1.147587       -31.2274
   4   1.0000      -0.832047       -22.6412
   5   1.0000      -0.718934       -19.5632
   6   1.0000      -0.601252       -16.3609
   7   1.0000      -0.567442       -15.4409
   8   1.0000      -0.525670       -14.3042
   9   1.0000      -0.476497       -12.9662
  10   1.0000      -0.389722       -10.6049
  11   0.0000      -0.072770        -1.9802
  12   0.0000       0.029420         0.8006
  13   0.0000       0.039620         1.0781
  14   0.0000       0.064168         1.7461
  15   0.0000       0.071968         1.9583

----------------------------------------------------------------------------------------------------
          SPIN FLIP ABSORPTION SPECTRUM VIA TRANSITION ELECTRIC DIPOLE MOMENTS
----------------------------------------------------------------------------------------------------
     Transition      Energy     Energy  Wavelength fosc(D2)      D2        DX        DY        DZ
                      (eV)      (cm-1)    (nm)                 (au**2)    (au)      (au)      (au)
----------------------------------------------------------------------------------------------------
  1-3A  ->  2-3A    2.245180   18108.6   552.2   0.000657342   0.01195  -0.00037  -0.00002  -0.10932

Dispersion correction             ... done (  0.1 sec)

MULLIKEN ATOMIC CHARGES AND SPIN DENSITIES
------------------------------------------
   0 O :   -0.301526    0.745115
   1 C :    0.101604    0.228642
   2 C :   -0.472646   -0.775318
   3 H :    0.206196    0.023817
   4 H :    0.206729    0.022149
   5 H :    0.131828   -0.123717
   6 H :    0.127814   -0.120689
Sum of atomic charges       :    0.0000000

LOEWDIN ATOMIC CHARGES AND SPIN DENSITIES
-----------------------------------------
   0 O :    0.100125    0.682055
   1 C :   -0.243117    0.042300
   2 C :    0.205355   -0.602854
   3 H :    0.042046    0.028586
   4 H :    0.039971    0.028032
   5 H :   -0.077825   -0.090519
   6 H :   -0.066555   -0.087600

  Mayer bond orders larger than 0.100000
B(  0-O ,  1-C ) :   0.8501 B(  0-O ,  2-C ) :   0.2254 B(  1-C ,  2-C ) :   0.6208
B(  1-C ,  3-H ) :   0.9827 B(  1-C ,  4-H ) :   0.9824 B(  2-C ,  5-H ) :   1.1142
B(  2-C ,  6-H ) :   1.1123

Dispersion correction           -0.005661189
FINAL SINGLE POINT ENERGY      -153.723380961952

DIPOLE MOMENT
-------------

Method             : TDA/CIS
Type of density    : Electron Density
Level              : Relaxed density
State              :   2
Multiplicity       :   3
Irrep              :   0
Energy             :     0.0000000000000000 Eh
Relativity type    :
Basis              : AO
                                X                 Y                 Z
Electronic contribution:      0.865286348       2.361461479      -0.022389405
Nuclear contribution   :     -0.437806268      -2.562957605       0.023788482
                        -----------------------------------------
Total Dipole Moment    :      0.427480080      -0.201496126       0.001399077
                        -----------------------------------------
Magnitude (a.u.)       :      0.472590589
Magnitude (Debye)      :      1.201229814

Rotational constants in cm-1:             1.060311             0.495407             0.389802
Rotational constants in MHz :         31787.338665         14851.940226         11685.980054

                             ****ORCA TERMINATED NORMALLY****
TOTAL RUN TIME: 0 days 0 hours 0 minutes 15 seconds 648 msec
