                         Program Version 6.0.0  -   RELEASE  -
|  1> ! Engrad def2-TZVPPD wB97M-D3BJ
|  2> %pal nprocs 8 end%pal nprocs 64 end
|  3> %tddft
|  4>  Iroot 2 Nroots 3
|  5> sf true
|  6> end
|  7> *xyz 0 3
|  8> O   0.65756391 0.95884317 -0.61386489
|  9> C   0.88478369 -0.12368604 0.22667817
| 10> C   -0.37671323 -0.72598065 0.65442349
| 11> H   1.45496468 0.37587931 1.05455114
| 12> H   1.39477239 -0.97022516 -0.28810292
| 13> H   -0.67660557 -0.30617639 1.6072327
| 14> H   -1.08637019 -1.24015551 0.00855409
| 15> *
| 16>
| 17>                          ****END OF INPUT****

CARTESIAN COORDINATES (ANGSTROEM)
---------------------------------
  O      0.657564    0.958843   -0.613865
  C      0.884784   -0.123686    0.226678
  C     -0.376713   -0.725981    0.654423
  H      1.454965    0.375879    1.054551
  H      1.394772   -0.970225   -0.288103
  H     -0.676606   -0.306176    1.607233
  H     -1.086370   -1.240156    0.008554

 Total Charge           Charge          ....    0
 Multiplicity           Mult            ....    3
 Number of Electrons    NEL             ....   24
 Basis Dimension        Dim             ....  182

ORBITAL ENERGIES
----------------
                 SPIN UP ORBITALS
  NO   OCC          E(Eh)            E(eV)
   0   1.0000     -19.390668      -527.6469
   1   1.0000     -10.413076      -283.3542
   2   1.0000     -10.363078      -281.9937
   3   1.0000      -1.165961       -31.7274
   4   1.0000      -0.881549       -23.9882
   5   1.0000      -0.724870       -19.7247
   6   1.0000      -0.632811       -17.2197
   7   1.0000      -0.568926       -15.4813
   8   1.0000      -0.555930       -15.1276
   9   1.0000      -0.519784       -14.1440
  10   1.0000      -0.440052       -11.9744
  11   1.0000      -0.409564       -11.1448
  12   1.0000      -0.328231        -8.9316
  13   0.0000       0.041394         1.1264
  14   0.0000       0.062537         1.7017
  15   0.0000       0.073796         2.0081
  16   0.0000       0.088066         2.3964
  17   0.0000       0.115551         3.1443

                 SPIN DOWN ORBITALS
  NO   OCC          E(Eh)            E(eV)
   0   1.0000     -19.365265      -526.9557
   1   1.0000     -10.414384      -283.3898
   2   1.0000     -10.350170      -281.6424
   3   1.0000      -1.108497       -30.1637
   4   1.0000      -0.848243       -23.0819
   5   1.0000      -0.699633       -19.0380
   6   1.0000      -0.600568       -16.3423
   7   1.0000      -0.540497       -14.7077
   8   1.0000      -0.531357       -14.4590
   9   1.0000      -0.481717       -13.1082
  10   1.0000      -0.378287       -10.2937
  11   0.0000      -0.054855        -1.4927
  12   0.0000      -0.003136        -0.0853
  13   0.0000       0.040585         1.1044
  14   0.0000       0.063226         1.7205
  15   0.0000       0.073817         2.0087

----------------------------------------------------------------------------------------------------
          SPIN FLIP ABSORPTION SPECTRUM VIA TRANSITION ELECTRIC DIPOLE MOMENTS
----------------------------------------------------------------------------------------------------
     Transition      Energy     Energy  Wavelength fosc(D2)      D2        DX        DY        DZ
                      (eV)      (cm-1)    (nm)                 (au**2)    (au)      (au)      (au)
----------------------------------------------------------------------------------------------------
  1-3A  ->  2-3A    0.314017    2532.7  3948.3   0.000083732   0.01088  -0.07178  -0.07559   0.00418
  1-3A  ->  3-3A    1.099935    8871.6  1127.2   0.017629187   0.65420  -0.37163  -0.53359   0.48101

Dispersion correction             ... done (  0.2 sec)

MULLIKEN ATOMIC CHARGES AND SPIN DENSITIES
------------------------------------------
   0 O :   -0.330092    0.737505
   1 C :    0.044217    0.216705
   2 C :   -0.365926   -0.810680
   3 H :    0.209298    0.031295
   4 H :    0.190804    0.001057
   5 H :    0.103824   -0.079827
   6 H :    0.147875   -0.096056
Sum of atomic charges       :    0.0000000

LOEWDIN ATOMIC CHARGES AND SPIN DENSITIES
-----------------------------------------
   0 O :    0.042843    0.689996
   1 C :   -0.267497   -0.001753
   2 C :    0.273119   -0.574419
   3 H :    0.042643    0.019039
   4 H :    0.035876    0.019148
   5 H :   -0.071914   -0.077141
   6 H :   -0.055070   -0.074870

  Mayer bond orders larger than 0.100000
B(  0-O ,  1-C ) :   0.8821 B(  1-C ,  2-C ) :   0.7047 B(  1-C ,  3-H ) :   0.9955
B(  1-C ,  4-H ) :   0.9097 B(  2-C ,  5-H ) :   1.0969 B(  2-C ,  6-H ) :   1.0708

Dispersion correction           -0.005579148
FINAL SINGLE POINT ENERGY      -153.739773267343

DIPOLE MOMENT
-------------

Method             : TDA/CIS
Type of density    : Electron Density
Level              : Relaxed density
State              :   2
Multiplicity       :   3
Irrep              :   0
Energy             :     0.0000000000000000 Eh
Relativity type    :
Basis              : AO
                                X                 Y                 Z
Electronic contribution:      0.593428682       1.780499852      -1.626068740
Nuclear contribution   :     -0.485999544      -2.248784049       1.955374060
                        -----------------------------------------
Total Dipole Moment    :      0.107429138      -0.468284196       0.329305321
                        -----------------------------------------
Magnitude (a.u.)       :      0.582471546
Magnitude (Debye)      :      1.480525012

Rotational constants in cm-1:             1.345131             0.360884             0.322301
Rotational constants in MHz :         40326.023981         10819.019515          9662.349810

                             ****ORCA TERMINATED NORMALLY****
TOTAL RUN TIME: 0 days 0 hours 0 minutes 27 seconds 352 msec
