                         Program Version 6.0.0  -   RELEASE  -
|  1> ! Engrad def2-TZVPPD wB97M-D3BJ
|  2> %pal nprocs 8 end%pal nprocs 64 end
|  3> %tddft
|  4>  Iroot 2 Nroots 3
|  5> sf true
|  6> end
|  7> *xyz 0 3
|  8> O   0.90916718 -0.88706786 0.52564396
|  9> C   0.61972136 0.06930947 -0.40578869
| 10> C   -0.37775001 1.10144192 0.13046141
| 11> H   0.04149528 -0.40530284 -1.22199055
| 12> H   1.51638785 0.58131335 -0.93596802
| 13> H   -0.25987238 2.06530874 -0.16099682
| 14> H   -1.27060898 0.63238754 0.38992891
| 15> *
| 16>
| 17>                          ****END OF INPUT****

CARTESIAN COORDINATES (ANGSTROEM)
---------------------------------
  O      0.909167   -0.887068    0.525644
  C      0.619721    0.069309   -0.405789
  C     -0.377750    1.101442    0.130461
  H      0.041495   -0.405303   -1.221991
  H      1.516388    0.581313   -0.935968
  H     -0.259872    2.065309   -0.160997
  H     -1.270609    0.632388    0.389929

 Total Charge           Charge          ....    0
 Multiplicity           Mult            ....    3
 Number of Electrons    NEL             ....   24
 Basis Dimension        Dim             ....  182

ORBITAL ENERGIES
----------------
                 SPIN UP ORBITALS
  NO   OCC          E(Eh)            E(eV)
   0   1.0000     -19.391467      -527.6686
   1   1.0000     -10.419105      -283.5183
   2   1.0000     -10.368998      -282.1548
   3   1.0000      -1.169160       -31.8145
   4   1.0000      -0.880968       -23.9724
   5   1.0000      -0.734215       -19.9790
   6   1.0000      -0.614577       -16.7235
   7   1.0000      -0.594779       -16.1848
   8   1.0000      -0.552034       -15.0216
   9   1.0000      -0.525572       -14.3015
  10   1.0000      -0.440532       -11.9875
  11   1.0000      -0.407820       -11.0974
  12   1.0000      -0.333883        -9.0854
  13   0.0000       0.040357         1.0982
  14   0.0000       0.062265         1.6943
  15   0.0000       0.076369         2.0781
  16   0.0000       0.086557         2.3553
  17   0.0000       0.111884         3.0445

                 SPIN DOWN ORBITALS
  NO   OCC          E(Eh)            E(eV)
   0   1.0000     -19.367966      -527.0292
   1   1.0000     -10.420343      -283.5519
   2   1.0000     -10.354527      -281.7610
   3   1.0000      -1.115766       -30.3615
   4   1.0000      -0.846494       -23.0343
   5   1.0000      -0.706739       -19.2314
   6   1.0000      -0.599100       -16.3023
   7   1.0000      -0.543012       -14.7761
   8   1.0000      -0.516174       -14.0458
   9   1.0000      -0.509868       -13.8742
  10   1.0000      -0.380434       -10.3521
  11   0.0000      -0.056408        -1.5349
  12   0.0000      -0.005008        -0.1363
  13   0.0000       0.040206         1.0941
  14   0.0000       0.062018         1.6876
  15   0.0000       0.076523         2.0823

----------------------------------------------------------------------------------------------------
          SPIN FLIP ABSORPTION SPECTRUM VIA TRANSITION ELECTRIC DIPOLE MOMENTS
----------------------------------------------------------------------------------------------------
     Transition      Energy     Energy  Wavelength fosc(D2)      D2        DX        DY        DZ
                      (eV)      (cm-1)    (nm)                 (au**2)    (au)      (au)      (au)
----------------------------------------------------------------------------------------------------
  1-3A  ->  2-3A    0.167638    1352.1  7396.0   0.000003652   0.00089   0.02801   0.01013   0.00136
  1-3A  ->  3-1A    0.877940    7081.1  1412.2   0.013471122   0.62630   0.44482  -0.61585   0.22174

Dispersion correction             ... done (  0.2 sec)

MULLIKEN ATOMIC CHARGES AND SPIN DENSITIES
------------------------------------------
   0 O :   -0.314122    0.838944
   1 C :   -0.009952    0.146563
   2 C :   -0.457690   -0.784866
   3 H :    0.174350   -0.003368
   4 H :    0.239781   -0.009193
   5 H :    0.219953   -0.058545
   6 H :    0.147680   -0.129534
Sum of atomic charges       :   -0.0000000

LOEWDIN ATOMIC CHARGES AND SPIN DENSITIES
-----------------------------------------
   0 O :    0.055538    0.789506
   1 C :   -0.260242   -0.010576
   2 C :    0.344759   -0.607600
   3 H :    0.031758    0.016243
   4 H :    0.052955   -0.001949
   5 H :   -0.130707   -0.099391
   6 H :   -0.094060   -0.086233

  Mayer bond orders larger than 0.100000
B(  0-O ,  1-C ) :   0.8780 B(  0-O ,  2-C ) :   0.1191 B(  1-C ,  2-C ) :   0.7799
B(  1-C ,  3-H ) :   0.9446 B(  1-C ,  4-H ) :   0.9616 B(  2-C ,  5-H ) :   1.0656
B(  2-C ,  6-H ) :   1.1031

Dispersion correction           -0.005580980
FINAL SINGLE POINT ENERGY      -153.738997477632

DIPOLE MOMENT
-------------

Method             : TDA/CIS
Type of density    : Electron Density
Level              : Relaxed density
State              :   2
Multiplicity       :   3
Irrep              :   0
Energy             :     0.0000000000000000 Eh
Relativity type    :
Basis              : AO
                                X                 Y                 Z
Electronic contribution:      1.171709743      -2.051425190       1.331013445
Nuclear contribution   :     -1.455743394       2.446337749      -2.072102362
                        -----------------------------------------
Total Dipole Moment    :     -0.284033651       0.394912558      -0.741088918
                        -----------------------------------------
Magnitude (a.u.)       :      0.886478329
Magnitude (Debye)      :      2.253248843

Rotational constants in cm-1:             1.408882             0.348663             0.304608
Rotational constants in MHz :         42237.230260         10452.659102          9131.919841

                             ****ORCA TERMINATED NORMALLY****
TOTAL RUN TIME: 0 days 0 hours 0 minutes 26 seconds 924 msec
