                         Program Version 6.0.0  -   RELEASE  -
|  1> ! Opt wB97M-D3BJ def2-TZVPPD
|  2> %pal nprocs 8 end %pal nprocs 64 end
|  3> %geom
|  4> Constraints
|  5>     {A 2 1 0 85.9322033898305 C }
|  6> end
|  7> MaxIter 200
|  8> end
|  9> *xyz 0 1
| 10> O   0.648168167658997 1.0232598017233037 0.0
| 11> C   0.7509 -0.4065 0.0
| 12> C   -0.7502 -0.4076 0.0
| 13> H   1.2625 -0.6786 0.9136
| 14> H   1.2625 -0.6787 -0.9136
| 15> H   -1.2614 -0.6806 -0.9136
| 16> H   -1.2614 -0.6805 0.9136
| 17> *
| 18>
| 19>                          ****END OF INPUT****
 Total Charge           Charge          ....    0
 Multiplicity           Mult            ....    1
 Number of Electrons    NEL             ....   24
Dispersion correction           -0.005560488
FINAL SINGLE POINT ENERGY      -153.807533175665
Dispersion correction             ... done (  0.1 sec)
Dispersion correction           -0.005590274
FINAL SINGLE POINT ENERGY      -153.824741615511
Dispersion correction             ... done (  0.1 sec)
Dispersion correction           -0.005564505
FINAL SINGLE POINT ENERGY      -153.832076018739
Dispersion correction             ... done (  0.1 sec)
FINAL SINGLE POINT ENERGY      -153.836082553864
FINAL SINGLE POINT ENERGY      -153.836329686259
FINAL SINGLE POINT ENERGY      -153.836357711164
Dispersion correction             ... done (  0.1 sec)
Dispersion correction           -0.005566231
FINAL SINGLE POINT ENERGY      -153.836366126366
Dispersion correction             ... done (  0.1 sec)
Dispersion correction           -0.005565145
FINAL SINGLE POINT ENERGY      -153.836366042195
Dispersion correction             ... done (  0.1 sec)
                    ***********************HURRAY********************

CARTESIAN COORDINATES (ANGSTROEM)
---------------------------------
  O      0.454099    0.954627   -0.000311
  C      0.742512   -0.357470   -0.000026
  C     -0.662569   -0.563183    0.000104
  H      1.270564   -0.717830    0.890182
  H      1.270273   -0.718288   -0.890229
  H     -1.211969   -0.553689   -0.927325
  H     -1.211841   -0.553408    0.927605

 Multiplicity           Mult            ....    1
 Number of Electrons    NEL             ....   24
 Basis Dimension        Dim             ....  182

ORBITAL ENERGIES
----------------

  NO   OCC          E(Eh)            E(eV)
   0   2.0000     -19.339987      -526.2678
   1   2.0000     -10.425727      -283.6984
   2   2.0000     -10.396762      -282.9103
   3   2.0000      -1.151408       -31.3314
   4   2.0000      -0.860555       -23.4169
   5   2.0000      -0.736030       -20.0284
   6   2.0000      -0.625905       -17.0317
   7   2.0000      -0.582224       -15.8431
   8   2.0000      -0.512446       -13.9444
   9   2.0000      -0.504891       -13.7388
  10   2.0000      -0.392604       -10.6833
  11   2.0000      -0.366293        -9.9673
  12   0.0000      -0.001811        -0.0493
  13   0.0000       0.041435         1.1275
  14   0.0000       0.060725         1.6524
  15   0.0000       0.076668         2.0863
  16   0.0000       0.098882         2.6907

MULLIKEN ATOMIC CHARGES
-----------------------
   0 O :   -0.470250
   1 C :   -0.083206
   2 C :   -0.309632
   3 H :    0.215389
   4 H :    0.215372
   5 H :    0.216166
   6 H :    0.216161
Sum of atomic charges:   -0.0000000

LOEWDIN ATOMIC CHARGES
----------------------
   0 O :   -0.019083
   1 C :   -0.323885
   2 C :    0.304556
   3 H :    0.024788
   4 H :    0.024783
   5 H :   -0.005578
   6 H :   -0.005581

  Mayer bond orders larger than 0.100000
B(  0-O ,  1-C ) :   0.6685 B(  0-O ,  2-C ) :   0.9476 B(  1-C ,  2-C ) :   0.7667
B(  1-C ,  3-H ) :   1.0501 B(  1-C ,  4-H ) :   1.0502 B(  2-C ,  5-H ) :   0.9650
B(  2-C ,  6-H ) :   0.9650

Dispersion correction           -0.005564925
FINAL SINGLE POINT ENERGY      -153.836366209542

DIPOLE MOMENT
-------------

Method             : SCF
Type of density    : Electron Density
Multiplicity       :   1
Irrep              :   0
Energy             :  -153.8308012847984969 Eh
Relativity type    :
Basis              : AO
                                X                 Y                 Z
Electronic contribution:      0.175008026       1.440570205      -0.000264126
Nuclear contribution   :     -0.597025222      -2.513110464       0.000539631
                        -----------------------------------------
Total Dipole Moment    :     -0.422017196      -1.072540259       0.000275505
                        -----------------------------------------
Magnitude (a.u.)       :      1.152580234
Magnitude (Debye)      :      2.929626134

Rotational constants in cm-1:             1.019947             0.535440             0.407700
Rotational constants in MHz :         30577.245113         16052.092981         12222.538923

                             ****ORCA TERMINATED NORMALLY****
TOTAL RUN TIME: 0 days 0 hours 1 minutes 57 seconds 12 msec
