                         Program Version 6.0.0  -   RELEASE  -
|  1> ! Engrad def2-TZVPPD wB97M-D3BJ
|  2> %pal nprocs 8 end%pal nprocs 32 end
|  3>  %tddft nroots 2 Iroot 1
|  4> sf true
|  5> end
|  6> *xyz 0 3
|  7> O   2.93245866178956 1.24842486856461 -0.48875800154464
|  8> O   -0.52834513836537 0.42643386601788 -1.87807791013434
|  9> O   1.4069192973387 -2.83656673553709 -1.77350218124657
| 10> O   -3.13352318959287 -1.37186613512644 1.36675473435446
| 11> N   0.73999856443999 -1.99859329677719 0.23576702168745
| 12> N   -2.32959498664488 0.74113307348337 1.65740056252057
| 13> N   2.19914265038127 -0.80764677235514 -1.08633563070291
| 14> N   -1.92986515526663 -0.38722419329984 -0.30275973985876
| 15> C   1.43822795860295 0.14958043126012 0.99112505721276
| 16> C   -0.90482190489161 1.76739711436154 0.04625128314548
| 17> C   0.76068421603405 -0.99178010963755 1.16940487242531
| 18> C   -1.58078648245237 1.80597143152544 1.19811910201451
| 19> C   1.55940767027704 1.20989798920197 2.03800951747474
| 20> C   -0.09726924097656 2.90818162496763 -0.48443326174115
| 21> C   2.24574326829761 0.28275004429133 -0.22600891026961
| 22> C   -1.06927359376479 0.58943807553105 -0.80636105729265
| 23> C   1.44291237603306 -1.95117331365722 -0.95223340602712
| 24> C   -2.51788011495288 -0.41854219336138 0.94125398595263
| 25> H   0.17788828734551 -1.18109559937628 2.05892887133469
| 26> H   -1.54454673167297 2.65898147370932 1.85822451553702
| 27> H   1.36651118566934 2.19522121543084 1.62389639750269
| 28> H   0.8635069060556 1.02519626022616 2.85361725408674
| 29> H   2.57080798018322 1.22994162232879 2.44120706989282
| 30> H   -0.49520801488594 3.23726817214509 -1.44255370539833
| 31> H   -0.11643660937471 3.74624578803728 0.20886349637297
| 32> H   0.9367561198826 2.61682073389421 -0.6526865964253
| 33> H   0.19393066980568 -2.82802912482198 0.38399259480714
| 34> H   -2.78730128382152 0.77612033384325 2.55002117537366
| 35> H   2.69467096777976 -0.71202683982141 -1.95841915485381
| 36> H   -2.04211433325287 -1.21545980504839 -0.86610795620049
| 37> *
| 38>
| 39>                          ****END OF INPUT****

CARTESIAN COORDINATES (ANGSTROEM)
---------------------------------
  O      2.932459    1.248425   -0.488758
  O     -0.528345    0.426434   -1.878078
  O      1.406919   -2.836567   -1.773502
  O     -3.133523   -1.371866    1.366755
  N      0.739999   -1.998593    0.235767
  N     -2.329595    0.741133    1.657401
  N      2.199143   -0.807647   -1.086336
  N     -1.929865   -0.387224   -0.302760
  C      1.438228    0.149580    0.991125
  C     -0.904822    1.767397    0.046251
  C      0.760684   -0.991780    1.169405
  C     -1.580786    1.805971    1.198119
  C      1.559408    1.209898    2.038010
  C     -0.097269    2.908182   -0.484433
  C      2.245743    0.282750   -0.226009
  C     -1.069274    0.589438   -0.806361
  C      1.442912   -1.951173   -0.952233
  C     -2.517880   -0.418542    0.941254
  H      0.177888   -1.181096    2.058929
  H     -1.544547    2.658981    1.858225
  H      1.366511    2.195221    1.623896
  H      0.863507    1.025196    2.853617
  H      2.570808    1.229942    2.441207
  H     -0.495208    3.237268   -1.442554
  H     -0.116437    3.746246    0.208863
  H      0.936756    2.616821   -0.652687
  H      0.193931   -2.828029    0.383993
  H     -2.787301    0.776120    2.550021
  H      2.694671   -0.712027   -1.958419
  H     -2.042114   -1.215460   -0.866108

 Total Charge           Charge          ....    0
 Multiplicity           Mult            ....    3
 Number of Electrons    NEL             ....  132
 Basis Dimension        Dim             ....  882

ORBITAL ENERGIES
----------------
                 SPIN UP ORBITALS
  NO   OCC          E(Eh)            E(eV)
   0   1.0000     -19.329155      -525.9730
   1   1.0000     -19.328005      -525.9417
   2   1.0000     -19.326668      -525.9054
   3   1.0000     -19.316083      -525.6173
   4   1.0000     -14.592140      -397.0723
   5   1.0000     -14.586874      -396.9290
   6   1.0000     -14.572299      -396.5324
   7   1.0000     -14.545871      -395.8133
   8   1.0000     -10.515766      -286.1485
   9   1.0000     -10.505783      -285.8769
  10   1.0000     -10.481895      -285.2269
  11   1.0000     -10.455274      -284.5025
  12   1.0000     -10.435827      -283.9733
  13   1.0000     -10.405696      -283.1534
  14   1.0000     -10.395260      -282.8694
  15   1.0000     -10.383624      -282.5528
  16   1.0000     -10.368797      -282.1493
  17   1.0000     -10.352772      -281.7133
  18   1.0000      -1.228841       -33.4385
  19   1.0000      -1.222033       -33.2532
  20   1.0000      -1.197099       -32.5747
  21   1.0000      -1.186513       -32.2867
  22   1.0000      -1.125520       -30.6270
  23   1.0000      -1.122659       -30.5491
  24   1.0000      -1.072590       -29.1866
  25   1.0000      -1.057307       -28.7708
  26   1.0000      -0.975074       -26.5331
  27   1.0000      -0.959309       -26.1041
  28   1.0000      -0.856479       -23.3060
  29   1.0000      -0.849592       -23.1186
  30   1.0000      -0.813885       -22.1469
  31   1.0000      -0.807807       -21.9815
  32   1.0000      -0.796933       -21.6857
  33   1.0000      -0.787051       -21.4168
  34   1.0000      -0.700418       -19.0593
  35   1.0000      -0.698530       -19.0080
  36   1.0000      -0.695006       -18.9121
  37   1.0000      -0.689155       -18.7529
  38   1.0000      -0.645145       -17.5553
  39   1.0000      -0.638626       -17.3779
  40   1.0000      -0.628929       -17.1140
  41   1.0000      -0.606360       -16.4999
  42   1.0000      -0.600352       -16.3364
  43   1.0000      -0.591525       -16.0962
  44   1.0000      -0.574757       -15.6399
  45   1.0000      -0.568706       -15.4753
  46   1.0000      -0.566632       -15.4189
  47   1.0000      -0.554076       -15.0772
  48   1.0000      -0.550169       -14.9709
  49   1.0000      -0.540873       -14.7179
  50   1.0000      -0.530169       -14.4266
  51   1.0000      -0.527046       -14.3417
  52   1.0000      -0.520977       -14.1765
  53   1.0000      -0.516363       -14.0510
  54   1.0000      -0.508678       -13.8418
  55   1.0000      -0.500829       -13.6282
  56   1.0000      -0.489869       -13.3300
  57   1.0000      -0.480013       -13.0618
  58   1.0000      -0.421777       -11.4771
  59   1.0000      -0.415618       -11.3095
  60   1.0000      -0.408713       -11.1216
  61   1.0000      -0.396156       -10.7800
  62   1.0000      -0.390834       -10.6351
  63   1.0000      -0.387173       -10.5355
  64   1.0000      -0.383328       -10.4309
  65   1.0000      -0.348160        -9.4739
  66   1.0000      -0.207156        -5.6370
  67   0.0000       0.010524         0.2864
  68   0.0000       0.018372         0.4999
  69   0.0000       0.028319         0.7706
  70   0.0000       0.037692         1.0256
  71   0.0000       0.041575         1.1313

                 SPIN DOWN ORBITALS
  NO   OCC          E(Eh)            E(eV)
   0   1.0000     -19.329100      -525.9715
   1   1.0000     -19.326722      -525.9068
   2   1.0000     -19.326005      -525.8873
   3   1.0000     -19.310128      -525.4553
   4   1.0000     -14.586903      -396.9298
   5   1.0000     -14.586657      -396.9231
   6   1.0000     -14.572266      -396.5315
   7   1.0000     -14.545013      -395.7899
   8   1.0000     -10.515759      -286.1484
   9   1.0000     -10.506228      -285.8890
  10   1.0000     -10.481860      -285.2259
  11   1.0000     -10.454938      -284.4933
  12   1.0000     -10.435308      -283.9592
  13   1.0000     -10.396144      -282.8935
  14   1.0000     -10.385021      -282.5908
  15   1.0000     -10.383721      -282.5554
  16   1.0000     -10.369285      -282.1626
  17   1.0000     -10.352752      -281.7127
  18   1.0000      -1.228633       -33.4328
  19   1.0000      -1.217633       -33.1335
  20   1.0000      -1.197090       -32.5745
  21   1.0000      -1.177623       -32.0447
  22   1.0000      -1.125049       -30.6141
  23   1.0000      -1.111647       -30.2495
  24   1.0000      -1.072376       -29.1808
  25   1.0000      -1.051966       -28.6255
  26   1.0000      -0.962588       -26.1934
  27   1.0000      -0.947603       -25.7856
  28   1.0000      -0.849406       -23.1135
  29   1.0000      -0.845325       -23.0025
  30   1.0000      -0.813421       -22.1343
  31   1.0000      -0.797910       -21.7122
  32   1.0000      -0.795813       -21.6552
  33   1.0000      -0.780221       -21.2309
  34   1.0000      -0.698134       -18.9972
  35   1.0000      -0.695287       -18.9197
  36   1.0000      -0.688287       -18.7292
  37   1.0000      -0.680967       -18.5301
  38   1.0000      -0.644691       -17.5429
  39   1.0000      -0.629283       -17.1237
  40   1.0000      -0.621376       -16.9085
  41   1.0000      -0.600749       -16.3472
  42   1.0000      -0.594108       -16.1665
  43   1.0000      -0.583070       -15.8661
  44   1.0000      -0.569084       -15.4856
  45   1.0000      -0.562120       -15.2961
  46   1.0000      -0.560261       -15.2455
  47   1.0000      -0.553025       -15.0486
  48   1.0000      -0.543353       -14.7854
  49   1.0000      -0.536321       -14.5940
  50   1.0000      -0.521646       -14.1947
  51   1.0000      -0.519557       -14.1379
  52   1.0000      -0.514545       -14.0015
  53   1.0000      -0.507123       -13.7995
  54   1.0000      -0.501882       -13.6569
  55   1.0000      -0.496842       -13.5198
  56   1.0000      -0.478200       -13.0125
  57   1.0000      -0.445944       -12.1347
  58   1.0000      -0.421473       -11.4689
  59   1.0000      -0.411358       -11.1936
  60   1.0000      -0.403972       -10.9926
  61   1.0000      -0.390370       -10.6225
  62   1.0000      -0.376082       -10.2337
  63   1.0000      -0.374604       -10.1935
  64   1.0000      -0.349273        -9.5042
  65   0.0000      -0.104898        -2.8544
  66   0.0000       0.010170         0.2767
  67   0.0000       0.020807         0.5662
  68   0.0000       0.026712         0.7269
  69   0.0000       0.034856         0.9485

----------------------------------------------------------------------------------------------------
          SPIN FLIP ABSORPTION SPECTRUM VIA TRANSITION ELECTRIC DIPOLE MOMENTS
----------------------------------------------------------------------------------------------------
     Transition      Energy     Energy  Wavelength fosc(D2)      D2        DX        DY        DZ
                      (eV)      (cm-1)    (nm)                 (au**2)    (au)      (au)      (au)
----------------------------------------------------------------------------------------------------
  1-3A  ->  2-3A    4.201596   33888.2   295.1   0.001628917   0.01582  -0.05537  -0.09395   0.06270

Dispersion correction             ... done (  0.0 sec)

MULLIKEN ATOMIC CHARGES AND SPIN DENSITIES
------------------------------------------
   0 O :   -0.694946    0.032299
   1 O :   -0.660073   -0.000405
   2 O :   -0.650972    0.007980
   3 O :   -0.667106    0.000235
   4 N :   -0.020901    0.055955
   5 N :   -0.013966   -0.000103
   6 N :    0.003687    0.001700
   7 N :   -0.021336   -0.004837
   8 C :    1.097477    0.426668
   9 C :    0.429009   -0.008984
  10 C :   -0.330578   -0.381413
  11 C :    0.198237   -0.017207
  12 C :   -1.536021   -0.000902
  13 C :   -1.443752    0.017353
  14 C :    0.290308   -0.204525
  15 C :    0.551463    0.017636
  16 C :    0.525724    0.018774
  17 C :    0.478287   -0.002801
  18 H :    0.286097    0.034336
  19 H :    0.187010   -0.001691
  20 H :    0.226161   -0.000403
  21 H :    0.317142    0.008739
  22 H :    0.419386    0.007450
  23 H :    0.379209    0.000777
  24 H :    0.325703    0.001418
  25 H :    0.203411   -0.006489
  26 H :    0.029517   -0.001822
  27 H :    0.019249   -0.000249
  28 H :    0.029643    0.002743
  29 H :    0.042931   -0.002234
Sum of atomic charges       :   -0.0000000

LOEWDIN ATOMIC CHARGES AND SPIN DENSITIES
-----------------------------------------
   0 O :    0.076842    0.028936
   1 O :    0.106729    0.000705
   2 O :    0.094822    0.006633
   3 O :    0.075800    0.000107
   4 N :    0.295711    0.025287
   5 N :    0.282205    0.000465
   6 N :    0.341672   -0.000407
   7 N :    0.333788   -0.001022
   8 C :   -0.141076   -0.035556
   9 C :   -0.152255   -0.000467
  10 C :    0.049130   -0.031756
  11 C :    0.047368   -0.000664
  12 C :    0.177119   -0.003261
  13 C :    0.185049    0.000206
  14 C :   -0.409024    0.010310
  15 C :   -0.399118   -0.000603
  16 C :   -0.469629    0.000737
  17 C :   -0.491185   -0.000188
  18 H :    0.039745   -0.002115
  19 H :    0.038676    0.000007
  20 H :   -0.018864   -0.000142
  21 H :   -0.005044    0.000323
  22 H :    0.006386   -0.000318
  23 H :    0.005753    0.000033
  24 H :   -0.001895    0.000010
  25 H :   -0.023295    0.000180
  26 H :   -0.014522    0.002391
  27 H :   -0.021358    0.000031
  28 H :   -0.003033    0.000209
  29 H :   -0.006495   -0.000072

  Mayer bond orders larger than 0.100000
B(  0-O , 14-C ) :   1.3965 B(  1-O , 15-C ) :   1.4193 B(  2-O , 16-C ) :   1.5612
B(  3-O , 17-C ) :   1.5524 B(  4-N , 10-C ) :   0.9333 B(  4-N , 16-C ) :   0.9988
B(  4-N , 26-H ) :   1.1487 B(  5-N , 11-C ) :   0.9723 B(  5-N , 17-C ) :   1.0413
B(  5-N , 27-H ) :   1.1433 B(  6-N , 14-C ) :   1.0374 B(  6-N , 16-C ) :   0.9905
B(  6-N , 28-H ) :   1.0981 B(  7-N , 15-C ) :   1.0331 B(  7-N , 17-C ) :   0.9546
B(  7-N , 29-H ) :   1.0998 B(  8-C , 10-C ) :   0.9703 B(  8-C , 12-C ) :   0.2762
B(  8-C , 14-C ) :   0.5707 B(  8-C , 15-C ) :  -0.1087 B(  8-C , 18-H ) :  -0.1295
B(  8-C , 20-H ) :  -0.1056 B(  9-C , 11-C ) :   1.0275 B(  9-C , 13-C ) :   0.4146
B(  9-C , 15-C ) :   0.8040 B(  9-C , 24-H ) :  -0.1106 B(  9-C , 25-H ) :  -0.1031
B( 10-C , 12-C ) :  -0.1641 B( 10-C , 18-H ) :   1.1035 B( 11-C , 13-C ) :  -0.2477
B( 11-C , 19-H ) :   1.0698 B( 12-C , 20-H ) :   1.0522 B( 12-C , 21-H ) :   1.0323
B( 12-C , 22-H ) :   0.8225 B( 13-C , 23-H ) :   0.8636 B( 13-C , 24-H ) :   1.0741
B( 13-C , 25-H ) :   0.9795

Dispersion correction           -0.058905556
FINAL SINGLE POINT ENERGY      -908.921965013248

DIPOLE MOMENT
-------------

Method             : TDA/CIS
Type of density    : Electron Density
Level              : Relaxed density
State              :   1
Multiplicity       :   3
Irrep              :   0
Energy             :     0.0000000000000000 Eh
Relativity type    :
Basis              : AO
                                X                 Y                 Z
Electronic contribution:     -2.175117803      -9.844571904      -5.446595988
Nuclear contribution   :      1.280980200      10.737594775       7.613615655
                        -----------------------------------------
Total Dipole Moment    :     -0.894137603       0.893022870       2.167019667
                        -----------------------------------------
Magnitude (a.u.)       :      2.508574523
Magnitude (Debye)      :      6.376289705

Rotational constants in cm-1:             0.019782             0.013933             0.011160
Rotational constants in MHz :           593.063802           417.708721           334.579480

                             ****ORCA TERMINATED NORMALLY****
TOTAL RUN TIME: 0 days 0 hours 33 minutes 32 seconds 110 msec
