                         Program Version 6.0.0  -   RELEASE  -
|  1> ! Engrad def2-TZVPPD wB97M-D3BJ
|  2> %pal nprocs 8 end%pal nprocs 64 end
|  3> %tddft
|  4>  Iroot 1 Nroots 3
|  5> sf true
|  6> end
|  7> *xyz 0 3
|  8> O   -0.49384624 0.60568215 -0.44575318
|  9> C   0.53299221 0.400696 0.44032372
| 10> C   1.28945444 -0.89277514 0.29939933
| 11> H   0.0791278 0.50699514 1.42601619
| 12> H   1.26802001 1.24230678 0.14991389
| 13> H   0.6365683 -1.75199927 0.07164672
| 14> H   2.23164505 -0.94554545 -0.19506982
| 15> *
| 16>
| 17>                          ****END OF INPUT****

CARTESIAN COORDINATES (ANGSTROEM)
---------------------------------
  O     -0.493846    0.605682   -0.445753
  C      0.532992    0.400696    0.440324
  C      1.289454   -0.892775    0.299399
  H      0.079128    0.506995    1.426016
  H      1.268020    1.242307    0.149914
  H      0.636568   -1.751999    0.071647
  H      2.231645   -0.945545   -0.195070

 Total Charge           Charge          ....    0
 Multiplicity           Mult            ....    3
 Number of Electrons    NEL             ....   24
 Basis Dimension        Dim             ....  182

ORBITAL ENERGIES
----------------
                 SPIN UP ORBITALS
  NO   OCC          E(Eh)            E(eV)
   0   1.0000     -19.390997      -527.6558
   1   1.0000     -10.418941      -283.5138
   2   1.0000     -10.369099      -282.1575
   3   1.0000      -1.171336       -31.8737
   4   1.0000      -0.872748       -23.7487
   5   1.0000      -0.731763       -19.9123
   6   1.0000      -0.626806       -17.0563
   7   1.0000      -0.573763       -15.6129
   8   1.0000      -0.555746       -15.1226
   9   1.0000      -0.512041       -13.9333
  10   1.0000      -0.439424       -11.9573
  11   1.0000      -0.411692       -11.2027
  12   1.0000      -0.338866        -9.2210
  13   0.0000       0.041966         1.1420
  14   0.0000       0.062793         1.7087
  15   0.0000       0.076093         2.0706
  16   0.0000       0.087336         2.3765
  17   0.0000       0.112403         3.0586

                 SPIN DOWN ORBITALS
  NO   OCC          E(Eh)            E(eV)
   0   1.0000     -19.366595      -526.9918
   1   1.0000     -10.420022      -283.5432
   2   1.0000     -10.355928      -281.7991
   3   1.0000      -1.116583       -30.3838
   4   1.0000      -0.839882       -22.8544
   5   1.0000      -0.706548       -19.2262
   6   1.0000      -0.588228       -16.0065
   7   1.0000      -0.546991       -14.8844
   8   1.0000      -0.531734       -14.4692
   9   1.0000      -0.480385       -13.0719
  10   1.0000      -0.380673       -10.3587
  11   0.0000      -0.054475        -1.4823
  12   0.0000      -0.009550        -0.2599
  13   0.0000       0.041352         1.1252
  14   0.0000       0.063486         1.7275
  15   0.0000       0.076514         2.0821

----------------------------------------------------------------------------------------------------
          SPIN FLIP ABSORPTION SPECTRUM VIA TRANSITION ELECTRIC DIPOLE MOMENTS
----------------------------------------------------------------------------------------------------
     Transition      Energy     Energy  Wavelength fosc(D2)      D2        DX        DY        DZ
                      (eV)      (cm-1)    (nm)                 (au**2)    (au)      (au)      (au)
----------------------------------------------------------------------------------------------------
  1-3A  ->  2-3A    0.207308    1672.1  5980.7   0.000242641   0.04777   0.12827  -0.17241   0.03995
  1-3A  ->  3-3A    0.912315    7358.3  1359.0   0.004057379   0.18153  -0.37395   0.15558  -0.13223

Dispersion correction             ... done (  0.2 sec)

MULLIKEN ATOMIC CHARGES AND SPIN DENSITIES
------------------------------------------
   0 O :   -0.399849   -0.308985
   1 C :    0.052711    0.047734
   2 C :   -0.547023    0.139428
   3 H :    0.214488    0.042008
   4 H :    0.199228    0.032463
   5 H :    0.252669    0.030858
   6 H :    0.227776    0.016494
Sum of atomic charges       :   -0.0000000

LOEWDIN ATOMIC CHARGES AND SPIN DENSITIES
-----------------------------------------
   0 O :   -0.013752   -0.310400
   1 C :   -0.288142    0.023804
   2 C :    0.321394    0.209421
   3 H :    0.010383    0.023042
   4 H :    0.070314    0.006542
   5 H :   -0.035167    0.021921
   6 H :   -0.065029    0.025670

  Mayer bond orders larger than 0.100000
B(  0-O ,  1-C ) :   0.9280 B(  0-O ,  2-C ) :   0.2600 B(  1-C ,  2-C ) :   0.7172
B(  1-C ,  3-H ) :   0.9827 B(  1-C ,  4-H ) :   0.9275 B(  2-C ,  5-H ) :   0.9670
B(  2-C ,  6-H ) :   0.9859

Dispersion correction           -0.005516436
FINAL SINGLE POINT ENERGY      -153.748600147761

DIPOLE MOMENT
-------------

Method             : TDA/CIS
Type of density    : Electron Density
Level              : Relaxed density
State              :   1
Multiplicity       :   3
Irrep              :   0
Energy             :     0.0000000000000000 Eh
Relativity type    :
Basis              : AO
                                X                 Y                 Z
Electronic contribution:     -1.515911957       0.814887429      -0.671519415
Nuclear contribution   :      2.387748397      -1.122185223       1.080962870
                        -----------------------------------------
Total Dipole Moment    :      0.871836440      -0.307297794       0.409443455
                        -----------------------------------------
Magnitude (a.u.)       :      1.011026535
Magnitude (Debye)      :      2.569825225

Rotational constants in cm-1:             1.443385             0.340243             0.304918
Rotational constants in MHz :         43271.607746         10200.214189          9141.224615

                             ****ORCA TERMINATED NORMALLY****
TOTAL RUN TIME: 0 days 0 hours 0 minutes 27 seconds 14 msec
