                         Program Version 6.0.0  -   RELEASE  -
|  1> ! Engrad def2-TZVPPD wB97M-D3BJ
|  2> %pal nprocs 8 end%pal nprocs 64 end
|  3> %tddft
|  4>  Iroot 2 Nroots 3
|  5> sf true
|  6> end
|  7> *xyz 0 3
|  8> O   3.07108079 -0.76378771 -1.99121597
|  9> O   -2.13388902 1.39275947 -1.7775538
| 10> O   -0.98657142 -2.82883192 -1.0741721
| 11> O   -2.90502172 0.93097224 2.70600537
| 12> N   -0.025989 -1.63448641 0.54992021
| 13> N   -0.72667638 0.81763789 2.01927104
| 14> N   0.8847864 -1.51082912 -1.59435222
| 15> N   -2.46360794 0.76941387 0.45526954
| 16> C   2.1729862 -0.60334723 0.15823045
| 17> C   -0.24104319 1.35230622 -0.32421587
| 18> C   0.91929559 -0.53373882 0.99055612
| 19> C   0.27108523 0.8948646 1.04495822
| 20> C   3.36680758 0.0754532 0.68965748
| 21> C   0.72151821 1.81970226 -1.38451658
| 22> C   2.09461059 -0.97652377 -1.24965501
| 23> C   -1.69975457 1.25022265 -0.60060588
| 24> C   -0.07954236 -2.0981072 -0.7306208
| 25> C   -2.06513668 0.83911995 1.80422237
| 26> H   1.37716445 -0.74511649 1.9667591
| 27> H   1.05963587 1.5495316 1.32371757
| 28> H   3.62249734 -0.3602015 1.68498675
| 29> H   4.1450144 0.14973684 -0.02007217
| 30> H   3.28162479 1.19175206 0.79862339
| 31> H   0.64934968 2.89686496 -1.4100964
| 32> H   1.72066563 1.61768185 -1.1079113
| 33> H   0.52794959 1.48900659 -2.41348946
| 34> H   -0.87277224 -1.74202877 1.12413514
| 35> H   -0.47528957 0.74242589 3.00858169
| 36> H   0.72677933 -1.70229409 -2.57439467
| 37> H   -3.4241509 0.78755407 0.3077964
| 38> *
| 39>
| 40>                          ****END OF INPUT****

CARTESIAN COORDINATES (ANGSTROEM)
---------------------------------
  O      3.071081   -0.763788   -1.991216
  O     -2.133889    1.392759   -1.777554
  O     -0.986571   -2.828832   -1.074172
  O     -2.905022    0.930972    2.706005
  N     -0.025989   -1.634486    0.549920
  N     -0.726676    0.817638    2.019271
  N      0.884786   -1.510829   -1.594352
  N     -2.463608    0.769414    0.455270
  C      2.172986   -0.603347    0.158230
  C     -0.241043    1.352306   -0.324216
  C      0.919296   -0.533739    0.990556
  C      0.271085    0.894865    1.044958
  C      3.366808    0.075453    0.689657
  C      0.721518    1.819702   -1.384517
  C      2.094611   -0.976524   -1.249655
  C     -1.699755    1.250223   -0.600606
  C     -0.079542   -2.098107   -0.730621
  C     -2.065137    0.839120    1.804222
  H      1.377164   -0.745116    1.966759
  H      1.059636    1.549532    1.323718
  H      3.622497   -0.360201    1.684987
  H      4.145014    0.149737   -0.020072
  H      3.281625    1.191752    0.798623
  H      0.649350    2.896865   -1.410096
  H      1.720666    1.617682   -1.107911
  H      0.527950    1.489007   -2.413489
  H     -0.872772   -1.742029    1.124135
  H     -0.475290    0.742426    3.008582
  H      0.726779   -1.702294   -2.574395
  H     -3.424151    0.787554    0.307796

 Total Charge           Charge          ....    0
 Multiplicity           Mult            ....    3
 Number of Electrons    NEL             ....  132
 Basis Dimension        Dim             ....  882

ORBITAL ENERGIES
----------------
                 SPIN UP ORBITALS
  NO   OCC          E(Eh)            E(eV)
   0   1.0000     -19.338045      -526.2149
   1   1.0000     -19.337082      -526.1888
   2   1.0000     -19.327911      -525.9392
   3   1.0000     -19.325950      -525.8858
   4   1.0000     -14.575998      -396.6331
   5   1.0000     -14.573660      -396.5695
   6   1.0000     -14.570644      -396.4874
   7   1.0000     -14.563575      -396.2950
   8   1.0000     -10.519084      -286.2388
   9   1.0000     -10.514178      -286.1053
  10   1.0000     -10.491303      -285.4829
  11   1.0000     -10.487384      -285.3762
  12   1.0000     -10.450305      -284.3673
  13   1.0000     -10.446846      -284.2731
  14   1.0000     -10.429454      -283.7999
  15   1.0000     -10.417407      -283.4721
  16   1.0000     -10.378777      -282.4209
  17   1.0000     -10.372321      -282.2452
  18   1.0000      -1.218358       -33.1532
  19   1.0000      -1.215464       -33.0745
  20   1.0000      -1.189491       -32.3677
  21   1.0000      -1.177461       -32.0404
  22   1.0000      -1.124963       -30.6118
  23   1.0000      -1.100772       -29.9535
  24   1.0000      -1.076933       -29.3048
  25   1.0000      -1.057234       -28.7688
  26   1.0000      -0.983835       -26.7715
  27   1.0000      -0.953412       -25.9437
  28   1.0000      -0.893910       -24.3245
  29   1.0000      -0.847237       -23.0545
  30   1.0000      -0.830578       -22.6012
  31   1.0000      -0.806691       -21.9512
  32   1.0000      -0.792885       -21.5755
  33   1.0000      -0.787875       -21.4392
  34   1.0000      -0.704184       -19.1618
  35   1.0000      -0.700526       -19.0623
  36   1.0000      -0.696044       -18.9403
  37   1.0000      -0.684286       -18.6204
  38   1.0000      -0.654999       -17.8234
  39   1.0000      -0.645039       -17.5524
  40   1.0000      -0.626297       -17.0424
  41   1.0000      -0.605591       -16.4790
  42   1.0000      -0.601514       -16.3680
  43   1.0000      -0.584038       -15.8925
  44   1.0000      -0.577763       -15.7217
  45   1.0000      -0.572070       -15.5668
  46   1.0000      -0.566280       -15.4093
  47   1.0000      -0.562632       -15.3100
  48   1.0000      -0.558655       -15.2018
  49   1.0000      -0.557069       -15.1586
  50   1.0000      -0.550876       -14.9901
  51   1.0000      -0.533582       -14.5195
  52   1.0000      -0.530450       -14.4343
  53   1.0000      -0.529311       -14.4033
  54   1.0000      -0.513180       -13.9643
  55   1.0000      -0.507390       -13.8068
  56   1.0000      -0.486595       -13.2409
  57   1.0000      -0.427139       -11.6230
  58   1.0000      -0.421125       -11.4594
  59   1.0000      -0.415243       -11.2993
  60   1.0000      -0.407192       -11.0803
  61   1.0000      -0.403347       -10.9756
  62   1.0000      -0.396827       -10.7982
  63   1.0000      -0.391738       -10.6597
  64   1.0000      -0.387959       -10.5569
  65   1.0000      -0.353430        -9.6173
  66   1.0000      -0.324432        -8.8282
  67   0.0000       0.005469         0.1488
  68   0.0000       0.028309         0.7703
  69   0.0000       0.031666         0.8617
  70   0.0000       0.034342         0.9345
  71   0.0000       0.052181         1.4199

                 SPIN DOWN ORBITALS
  NO   OCC          E(Eh)            E(eV)
   0   1.0000     -19.333710      -526.0970
   1   1.0000     -19.332576      -526.0661
   2   1.0000     -19.327847      -525.9375
   3   1.0000     -19.325866      -525.8836
   4   1.0000     -14.575851      -396.6291
   5   1.0000     -14.572942      -396.5499
   6   1.0000     -14.570057      -396.4714
   7   1.0000     -14.563485      -396.2926
   8   1.0000     -10.519122      -286.2399
   9   1.0000     -10.514207      -286.1061
  10   1.0000     -10.492484      -285.5150
  11   1.0000     -10.488362      -285.4028
  12   1.0000     -10.450037      -284.3600
  13   1.0000     -10.446428      -284.2618
  14   1.0000     -10.417835      -283.4837
  15   1.0000     -10.405977      -283.1610
  16   1.0000     -10.379459      -282.4394
  17   1.0000     -10.372766      -282.2573
  18   1.0000      -1.217406       -33.1273
  19   1.0000      -1.214532       -33.0491
  20   1.0000      -1.184020       -32.2188
  21   1.0000      -1.171748       -31.8849
  22   1.0000      -1.123075       -30.5604
  23   1.0000      -1.098286       -29.8859
  24   1.0000      -1.074618       -29.2419
  25   1.0000      -1.055768       -28.7289
  26   1.0000      -0.971983       -26.4490
  27   1.0000      -0.936473       -25.4827
  28   1.0000      -0.888229       -24.1700
  29   1.0000      -0.842396       -22.9228
  30   1.0000      -0.821793       -22.3621
  31   1.0000      -0.802187       -21.8286
  32   1.0000      -0.791146       -21.5282
  33   1.0000      -0.785999       -21.3881
  34   1.0000      -0.700034       -19.0489
  35   1.0000      -0.693058       -18.8591
  36   1.0000      -0.690348       -18.7853
  37   1.0000      -0.677686       -18.4408
  38   1.0000      -0.646117       -17.5817
  39   1.0000      -0.638490       -17.3742
  40   1.0000      -0.623422       -16.9642
  41   1.0000      -0.599537       -16.3142
  42   1.0000      -0.596337       -16.2272
  43   1.0000      -0.579058       -15.7570
  44   1.0000      -0.571976       -15.5643
  45   1.0000      -0.567009       -15.4291
  46   1.0000      -0.559899       -15.2356
  47   1.0000      -0.555064       -15.1041
  48   1.0000      -0.554061       -15.0768
  49   1.0000      -0.549304       -14.9473
  50   1.0000      -0.539132       -14.6705
  51   1.0000      -0.525829       -14.3085
  52   1.0000      -0.523726       -14.2513
  53   1.0000      -0.519974       -14.1492
  54   1.0000      -0.503214       -13.6931
  55   1.0000      -0.501053       -13.6343
  56   1.0000      -0.481072       -13.0906
  57   1.0000      -0.421258       -11.4630
  58   1.0000      -0.417165       -11.3516
  59   1.0000      -0.405973       -11.0471
  60   1.0000      -0.397173       -10.8076
  61   1.0000      -0.393456       -10.7065
  62   1.0000      -0.391031       -10.6405
  63   1.0000      -0.386494       -10.5170
  64   1.0000      -0.379871       -10.3368
  65   0.0000      -0.066945        -1.8217
  66   0.0000      -0.047079        -1.2811
  67   0.0000       0.004735         0.1288
  68   0.0000       0.027940         0.7603
  69   0.0000       0.031897         0.8680

----------------------------------------------------------------------------------------------------
          SPIN FLIP ABSORPTION SPECTRUM VIA TRANSITION ELECTRIC DIPOLE MOMENTS
----------------------------------------------------------------------------------------------------
     Transition      Energy     Energy  Wavelength fosc(D2)      D2        DX        DY        DZ
                      (eV)      (cm-1)    (nm)                 (au**2)    (au)      (au)      (au)
----------------------------------------------------------------------------------------------------
  1-3A  ->  2-3A    0.123908     999.4  10006.1   0.000047719   0.01572   0.10678  -0.05430  -0.03699
  1-3A  ->  3-3A    2.214317   17859.7   559.9   0.000679611   0.01253   0.07390  -0.03309   0.07727

Dispersion correction             ... done (  0.1 sec)

MULLIKEN ATOMIC CHARGES AND SPIN DENSITIES
------------------------------------------
   0 O :   -0.688657    0.009842
   1 O :   -0.682849   -0.012716
   2 O :   -0.642612    0.000068
   3 O :   -0.665779    0.000197
   4 N :   -0.255466   -0.008756
   5 N :   -0.186203    0.002607
   6 N :    0.084939   -0.002832
   7 N :    0.100106   -0.001454
   8 C :    0.521832    0.284295
   9 C :    0.611055    0.343176
  10 C :    0.219268   -0.115080
  11 C :    0.094373   -0.222327
  12 C :   -1.515650   -0.021894
  13 C :   -1.454591   -0.017614
  14 C :    0.160895   -0.111565
  15 C :    0.151911   -0.145552
  16 C :    0.457548    0.001733
  17 C :    0.378363    0.009618
  18 H :    0.522266    0.000513
  19 H :    0.565289   -0.025689
  20 H :    0.395160    0.009149
  21 H :    0.303235   -0.001053
  22 H :    0.281004    0.007546
  23 H :    0.440361    0.008895
  24 H :    0.326727    0.007408
  25 H :    0.224432   -0.001109
  26 H :    0.101596   -0.001055
  27 H :    0.087969    0.000964
  28 H :    0.039862    0.000060
  29 H :    0.023617    0.002626
Sum of atomic charges       :    0.0000000

LOEWDIN ATOMIC CHARGES AND SPIN DENSITIES
-----------------------------------------
   0 O :    0.062020    0.008033
   1 O :    0.046422   -0.010721
   2 O :    0.091121   -0.000137
   3 O :    0.064406   -0.000003
   4 N :    0.284676   -0.000376
   5 N :    0.257255   -0.000014
   6 N :    0.332153   -0.001544
   7 N :    0.340958   -0.003640
   8 C :   -0.043703    0.040548
   9 C :    0.048007   -0.021318
  10 C :   -0.078040    0.000405
  11 C :   -0.124561   -0.002434
  12 C :    0.177599    0.005050
  13 C :    0.208854   -0.004684
  14 C :   -0.421585    0.000220
  15 C :   -0.349591   -0.009436
  16 C :   -0.460053   -0.000271
  17 C :   -0.444818   -0.000296
  18 H :    0.044667   -0.000052
  19 H :    0.029084   -0.000586
  20 H :    0.027820    0.001225
  21 H :   -0.034394    0.000036
  22 H :    0.024219    0.002172
  23 H :    0.006560   -0.001427
  24 H :   -0.044615    0.000053
  25 H :    0.025555   -0.000338
  26 H :   -0.013829   -0.000018
  27 H :    0.007821    0.000012
  28 H :   -0.006493   -0.000116
  29 H :   -0.057514   -0.000342

  Mayer bond orders larger than 0.100000
B(  0-O , 14-C ) :   1.4410 B(  1-O , 15-C ) :   1.3615 B(  2-O , 16-C ) :   1.5519
B(  3-O , 17-C ) :   1.6043 B(  4-N ,  8-C ) :   0.2020 B(  4-N , 10-C ) :   0.4803
B(  4-N , 16-C ) :   1.0647 B(  4-N , 18-H ) :  -0.1172 B(  4-N , 26-H ) :   1.0094
B(  5-N , 10-C ) :   0.1167 B(  5-N , 11-C ) :   0.3622 B(  5-N , 17-C ) :   1.1559
B(  5-N , 27-H ) :   1.0998 B(  6-N ,  8-C ) :  -0.1706 B(  6-N , 10-C ) :   0.1335
B(  6-N , 14-C ) :   1.1337 B(  6-N , 16-C ) :   0.9214 B(  6-N , 28-H ) :   1.1141
B(  7-N , 15-C ) :   1.0946 B(  7-N , 17-C ) :   0.9831 B(  7-N , 29-H ) :   1.0633
B(  8-C , 10-C ) :   0.5701 B(  8-C , 11-C ) :   0.1445 B(  8-C , 12-C ) :   0.3162
B(  8-C , 14-C ) :   0.7580 B(  8-C , 18-H ) :  -0.1176 B(  8-C , 20-H ) :  -0.1223
B(  9-C , 10-C ) :   0.2217 B(  9-C , 11-C ) :   0.5676 B(  9-C , 13-C ) :   0.3284
B(  9-C , 15-C ) :   0.6875 B(  9-C , 19-H ) :  -0.1639 B(  9-C , 24-H ) :  -0.1642
B( 10-C , 11-C ) :   0.6237 B( 10-C , 14-C ) :  -0.1472 B( 10-C , 16-C ) :  -0.1417
B( 10-C , 18-H ) :   0.7953 B( 11-C , 12-C ) :   0.1126 B( 11-C , 17-C ) :  -0.1911
B( 11-C , 19-H ) :   0.7178 B( 12-C , 20-H ) :   0.9552 B( 12-C , 21-H ) :   1.0208
B( 12-C , 22-H ) :   0.8684 B( 13-C , 23-H ) :   0.7448 B( 13-C , 24-H ) :   1.0256
B( 13-C , 25-H ) :   1.0774

Dispersion correction           -0.058494096
FINAL SINGLE POINT ENERGY      -908.770054366963

DIPOLE MOMENT
-------------

Method             : TDA/CIS
Type of density    : Electron Density
Level              : Relaxed density
State              :   2
Multiplicity       :   3
Irrep              :   0
Energy             :     0.0000000000000000 Eh
Relativity type    :
Basis              : AO
                                X                 Y                 Z
Electronic contribution:     -9.795877677      -5.054449568      -1.180476063
Nuclear contribution   :     11.604429525       6.021314131       2.798394225
                        -----------------------------------------
Total Dipole Moment    :      1.808551847       0.966864563       1.617918162
                        -----------------------------------------
Magnitude (a.u.)       :      2.612153526
Magnitude (Debye)      :      6.639566609

Rotational constants in cm-1:             0.021742             0.011699             0.011183
Rotational constants in MHz :           651.821111           350.733431           335.254781

                             ****ORCA TERMINATED NORMALLY****
TOTAL RUN TIME: 0 days 0 hours 5 minutes 25 seconds 152 msec
