                         Program Version 6.0.0  -   RELEASE  -
|  1> ! Opt wB97M-D3BJ def2-TZVPPD
|  2> %pal nprocs 8 end %pal nprocs 64 end
|  3> %geom
|  4> Constraints
|  5>     {A 2 1 0 63.05084745762712 C }
|  6> end
|  7> MaxIter 200
|  8> end
|  9> *xyz 0 1
| 10> O   0.1003267563256971 0.8708102108004526 0.0
| 11> C   0.7509 -0.4065 0.0
| 12> C   -0.7502 -0.4076 0.0
| 13> H   1.2625 -0.6786 0.9136
| 14> H   1.2625 -0.6787 -0.9136
| 15> H   -1.2614 -0.6806 -0.9136
| 16> H   -1.2614 -0.6805 0.9136
| 17> *
| 18>
| 19>                          ****END OF INPUT****
 Total Charge           Charge          ....    0
 Multiplicity           Mult            ....    1
 Number of Electrons    NEL             ....   24
Dispersion correction           -0.005187376
FINAL SINGLE POINT ENERGY      -153.881526795347
Dispersion correction             ... done (  0.1 sec)
Dispersion correction           -0.005221537
FINAL SINGLE POINT ENERGY      -153.886871752476
Dispersion correction             ... done (  0.1 sec)
Dispersion correction           -0.005237123
FINAL SINGLE POINT ENERGY      -153.887474462770
Dispersion correction             ... done (  0.1 sec)
FINAL SINGLE POINT ENERGY      -153.887500211410
Dispersion correction             ... done (  0.1 sec)
Dispersion correction           -0.005232625
FINAL SINGLE POINT ENERGY      -153.887510835539
Dispersion correction             ... done (  0.1 sec)
Dispersion correction           -0.005232748
FINAL SINGLE POINT ENERGY      -153.887512961656
Dispersion correction             ... done (  0.1 sec)
                    ***********************HURRAY********************

CARTESIAN COORDINATES (ANGSTROEM)
---------------------------------
  O      0.063610    0.810628   -0.000048
  C      0.726801   -0.419643    0.000063
  C     -0.714883   -0.454329   -0.000080
  H      1.263236   -0.662822    0.911543
  H      1.263113   -0.663134   -0.911431
  H     -1.249415   -0.636154   -0.920820
  H     -1.249236   -0.636236    0.920773

 Multiplicity           Mult            ....    1
 Number of Electrons    NEL             ....   24
 Basis Dimension        Dim             ....  182

ORBITAL ENERGIES
----------------

  NO   OCC          E(Eh)            E(eV)
   0   2.0000     -19.351159      -526.5718
   1   2.0000     -10.400652      -283.0161
   2   2.0000     -10.398039      -282.9450
   3   2.0000      -1.201609       -32.6975
   4   2.0000      -0.811281       -22.0761
   5   2.0000      -0.753442       -20.5022
   6   2.0000      -0.631083       -17.1726
   7   2.0000      -0.594703       -16.1827
   8   2.0000      -0.499605       -13.5950
   9   2.0000      -0.490001       -13.3336
  10   2.0000      -0.427394       -11.6300
  11   2.0000      -0.384615       -10.4659
  12   0.0000       0.042335         1.1520
  13   0.0000       0.058684         1.5969
  14   0.0000       0.074243         2.0203
  15   0.0000       0.077792         2.1168
  16   0.0000       0.114344         3.1115

MULLIKEN ATOMIC CHARGES
-----------------------
   0 O :   -0.386416
   1 C :   -0.148536
   2 C :   -0.193666
   3 H :    0.183581
   4 H :    0.183569
   5 H :    0.180755
   6 H :    0.180712
Sum of atomic charges:    0.0000000

LOEWDIN ATOMIC CHARGES
----------------------
   0 O :   -0.031341
   1 C :   -0.067951
   2 C :    0.051145
   3 H :    0.016059
   4 H :    0.016060
   5 H :    0.008014
   6 H :    0.008014

  Mayer bond orders larger than 0.100000
B(  0-O ,  1-C ) :   0.8003 B(  0-O ,  2-C ) :   0.8484 B(  1-C ,  2-C ) :   0.8204
B(  1-C ,  3-H ) :   1.0257 B(  1-C ,  4-H ) :   1.0257 B(  2-C ,  5-H ) :   1.0073
B(  2-C ,  6-H ) :   1.0074

Dispersion correction           -0.005233039
FINAL SINGLE POINT ENERGY      -153.887513223602

DIPOLE MOMENT
-------------

Method             : SCF
Type of density    : Electron Density
Multiplicity       :   1
Irrep              :   0
Energy             :  -153.8822801850075734 Eh
Relativity type    :
Basis              : AO
                                X                 Y                 Z
Electronic contribution:      0.025481987       1.619160575      -0.000110126
Nuclear contribution   :     -0.074738892      -2.413130730       0.000137559
                        -----------------------------------------
Total Dipole Moment    :     -0.049256905      -0.793970156       0.000027433
                        -----------------------------------------
Magnitude (a.u.)       :      0.795496607
Magnitude (Debye)      :      2.021991684

Rotational constants in cm-1:             0.851287             0.744133             0.472359
Rotational constants in MHz :         25520.951802         22308.535246         14160.966982

                             ****ORCA TERMINATED NORMALLY****
TOTAL RUN TIME: 0 days 0 hours 1 minutes 28 seconds 14 msec
