                         Program Version 6.0.0  -   RELEASE  -
|  1> ! Opt wB97M-D3BJ def2-TZVPPD
|  2> %pal nprocs 8 end %pal nprocs 64 end
|  3> %geom
|  4> Constraints
|  5>     {A 2 1 0 87.27272727272728 C }
|  6> end
|  7> MaxIter 500
|  8> end
|  9> *xyz 0 1
| 10> O   -0.0007 0.8141 0.0
| 11> C   0.7509 -0.4065 0.0
| 12> C   -0.7502 -0.4076 0.0
| 13> H   1.2625 -0.6786 0.9136
| 14> H   1.2625 -0.6787 -0.9136
| 15> H   -1.2614 -0.6806 -0.9136
| 16> H   -1.2614 -0.6805 0.9136
| 17> *
| 18>
| 19>                          ****END OF INPUT****
 Total Charge           Charge          ....    0
 Multiplicity           Mult            ....    1
 Number of Electrons    NEL             ....   24
Dispersion correction           -0.005525368
FINAL SINGLE POINT ENERGY      -153.808128511627
Dispersion correction             ... done (  0.1 sec)
Dispersion correction           -0.005566262
FINAL SINGLE POINT ENERGY      -153.824815555406
Dispersion correction             ... done (  0.1 sec)
Dispersion correction           -0.005583216
FINAL SINGLE POINT ENERGY      -153.830487247224
Dispersion correction             ... done (  0.1 sec)
FINAL SINGLE POINT ENERGY      -153.832147129397
FINAL SINGLE POINT ENERGY      -153.832547345407
FINAL SINGLE POINT ENERGY      -153.832687426974
FINAL SINGLE POINT ENERGY      -153.832743515045
FINAL SINGLE POINT ENERGY      -153.832766237758
Dispersion correction             ... done (  0.1 sec)
Dispersion correction           -0.005604481
FINAL SINGLE POINT ENERGY      -153.832777756983
Dispersion correction             ... done (  0.2 sec)
Dispersion correction           -0.005604413
FINAL SINGLE POINT ENERGY      -153.832782467467
Dispersion correction             ... done (  0.1 sec)
                    ***********************HURRAY********************

CARTESIAN COORDINATES (ANGSTROEM)
---------------------------------
  O      0.259391    0.960864   -0.001766
  C      0.644050   -0.325590   -0.000391
  C     -0.735519   -0.667503    0.000400
  H      1.201434   -0.641495    0.889342
  H      1.201893   -0.643002   -0.889232
  H     -1.285146   -0.702336   -0.926615
  H     -1.283902   -0.699337    0.928262

 Multiplicity           Mult            ....    1
 Number of Electrons    NEL             ....   24
 Basis Dimension        Dim             ....  182

ORBITAL ENERGIES
----------------

  NO   OCC          E(Eh)            E(eV)
   0   2.0000     -19.339064      -526.2427
   1   2.0000     -10.427630      -283.7502
   2   2.0000     -10.396808      -282.9115
   3   2.0000      -1.148844       -31.2616
   4   2.0000      -0.863014       -23.4838
   5   2.0000      -0.735589       -20.0164
   6   2.0000      -0.625754       -17.0276
   7   2.0000      -0.581338       -15.8190
   8   2.0000      -0.513318       -13.9681
   9   2.0000      -0.505779       -13.7629
  10   2.0000      -0.390158       -10.6167
  11   2.0000      -0.365100        -9.9349
  12   0.0000      -0.007843        -0.2134
  13   0.0000       0.040931         1.1138
  14   0.0000       0.060757         1.6533
  15   0.0000       0.076648         2.0857
  16   0.0000       0.098586         2.6827

MULLIKEN ATOMIC CHARGES
-----------------------
   0 O :   -0.475442
   1 C :   -0.083127
   2 C :   -0.308452
   3 H :    0.216298
   4 H :    0.216409
   5 H :    0.217121
   6 H :    0.217194
Sum of atomic charges:   -0.0000000

LOEWDIN ATOMIC CHARGES
----------------------
   0 O :   -0.018456
   1 C :   -0.333455
   2 C :    0.314668
   3 H :    0.024643
   4 H :    0.024644
   5 H :   -0.006018
   6 H :   -0.006025

  Mayer bond orders larger than 0.100000
B(  0-O ,  1-C ) :   0.6679 B(  0-O ,  2-C ) :   0.9480 B(  1-C ,  2-C ) :   0.7664
B(  1-C ,  3-H ) :   1.0496 B(  1-C ,  4-H ) :   1.0494 B(  2-C ,  5-H ) :   0.9644
B(  2-C ,  6-H ) :   0.9644

Dispersion correction           -0.005604112
FINAL SINGLE POINT ENERGY      -153.832783606540

DIPOLE MOMENT
-------------

Method             : SCF
Type of density    : Electron Density
Multiplicity       :   1
Irrep              :   0
Energy             :  -153.8271794947187630 Eh
Relativity type    :
Basis              : AO
                                X                 Y                 Z
Electronic contribution:      0.051772441       1.442482039      -0.002468547
Nuclear contribution   :     -0.398310630      -2.568933747       0.003877043
                        -----------------------------------------
Total Dipole Moment    :     -0.346538189      -1.126451708       0.001408495
                        -----------------------------------------
Magnitude (a.u.)       :      1.178551717
Magnitude (Debye)      :      2.995640398

Rotational constants in cm-1:             1.033220             0.524314             0.403190
Rotational constants in MHz :         30975.167921         15718.534284         12087.319117

                             ****ORCA TERMINATED NORMALLY****
TOTAL RUN TIME: 0 days 0 hours 2 minutes 29 seconds 818 msec
