                         Program Version 6.0.0  -   RELEASE  -
|  1> ! Opt wB97M-D3BJ def2-TZVPPD
|  2> %pal nprocs 8 end %pal nprocs 64 end
|  3> %geom
|  4> Constraints
|  5>     {A 2 1 0 128.1818181818182 C }
|  6> end
|  7> MaxIter 500
|  8> end
|  9> *xyz 0 1
| 10> O   -0.0007 0.8141 0.0
| 11> C   0.7509 -0.4065 0.0
| 12> C   -0.7502 -0.4076 0.0
| 13> H   1.2625 -0.6786 0.9136
| 14> H   1.2625 -0.6787 -0.9136
| 15> H   -1.2614 -0.6806 -0.9136
| 16> H   -1.2614 -0.6805 0.9136
| 17> *
| 18>
| 19>                          ****END OF INPUT****
 Total Charge           Charge          ....    0
 Multiplicity           Mult            ....    1
 Number of Electrons    NEL             ....   24
Dispersion correction           -0.005740729
FINAL SINGLE POINT ENERGY      -153.570548990967
Dispersion correction             ... done (  0.1 sec)
Dispersion correction           -0.005646088
FINAL SINGLE POINT ENERGY      -153.681110115122
Dispersion correction             ... done (  0.1 sec)
Dispersion correction           -0.005577577
FINAL SINGLE POINT ENERGY      -153.708997892531
Dispersion correction             ... done (  0.1 sec)
FINAL SINGLE POINT ENERGY      -153.719845913053
FINAL SINGLE POINT ENERGY      -153.723785600230
FINAL SINGLE POINT ENERGY      -153.727136202615
FINAL SINGLE POINT ENERGY      -153.730525557723
FINAL SINGLE POINT ENERGY      -153.732264587949
FINAL SINGLE POINT ENERGY      -153.734153003578
FINAL SINGLE POINT ENERGY      -153.741079833009
FINAL SINGLE POINT ENERGY      -153.930073278808
FINAL SINGLE POINT ENERGY      -153.930607203347
FINAL SINGLE POINT ENERGY      -153.930782252874
FINAL SINGLE POINT ENERGY      -153.931198240541
FINAL SINGLE POINT ENERGY      -153.931293924762
FINAL SINGLE POINT ENERGY      -153.931352931813
FINAL SINGLE POINT ENERGY      -153.931371983647
Dispersion correction             ... done (  0.1 sec)
Dispersion correction           -0.005526573
FINAL SINGLE POINT ENERGY      -153.931381688489
Dispersion correction             ... done (  0.1 sec)
Dispersion correction           -0.005527521
FINAL SINGLE POINT ENERGY      -153.931383728023
Dispersion correction             ... done (  0.1 sec)
                    ***********************HURRAY********************

CARTESIAN COORDINATES (ANGSTROEM)
---------------------------------
  O      0.683638    1.338743    0.073150
  C      0.561065    0.190596   -0.256003
  C     -0.446676   -0.807750    0.224514
  H      0.079228   -1.680811    0.611738
  H      1.258715   -0.225834   -1.012061
  H     -1.036856   -1.143720   -0.628851
  H     -1.096914   -0.389624    0.987514

 Multiplicity           Mult            ....    1
 Number of Electrons    NEL             ....   24
 Basis Dimension        Dim             ....  182

ORBITAL ENERGIES
----------------

  NO   OCC          E(Eh)            E(eV)
   0   2.0000     -19.340186      -526.2732
   1   2.0000     -10.443207      -284.1741
   2   2.0000     -10.359058      -281.8843
   3   2.0000      -1.188752       -32.3476
   4   2.0000      -0.887023       -24.1371
   5   2.0000      -0.701050       -19.0765
   6   2.0000      -0.597874       -16.2690
   7   2.0000      -0.562161       -15.2972
   8   2.0000      -0.555891       -15.1266
   9   2.0000      -0.508884       -13.8474
  10   2.0000      -0.477315       -12.9884
  11   2.0000      -0.367947       -10.0123
  12   0.0000       0.036953         1.0055
  13   0.0000       0.055535         1.5112
  14   0.0000       0.059227         1.6116
  15   0.0000       0.082871         2.2550
  16   0.0000       0.085996         2.3401

MULLIKEN ATOMIC CHARGES
-----------------------
   0 O :   -0.475199
   1 C :    0.233666
   2 C :   -0.694362
   3 H :    0.230942
   4 H :    0.236547
   5 H :    0.226971
   6 H :    0.241435
Sum of atomic charges:    0.0000000

LOEWDIN ATOMIC CHARGES
----------------------
   0 O :    0.071590
   1 C :   -0.235599
   2 C :    0.169798
   3 H :   -0.010443
   4 H :    0.022780
   5 H :   -0.009594
   6 H :   -0.008532

  Mayer bond orders larger than 0.100000
B(  0-O ,  1-C ) :   1.7701 B(  1-C ,  2-C ) :   0.7538 B(  1-C ,  4-H ) :   0.9898
B(  2-C ,  3-H ) :   0.9932 B(  2-C ,  5-H ) :   0.9910 B(  2-C ,  6-H ) :   0.9573

Dispersion correction           -0.005527874
FINAL SINGLE POINT ENERGY      -153.931384152157

DIPOLE MOMENT
-------------

Method             : SCF
Type of density    : Electron Density
Multiplicity       :   1
Irrep              :   0
Energy             :  -153.9258562782645186 Eh
Relativity type    :
Basis              : AO
                                X                 Y                 Z
Electronic contribution:      1.452253817       3.007628546      -0.089289317
Nuclear contribution   :     -1.720808557      -4.108781037      -0.102155269
                        -----------------------------------------
Total Dipole Moment    :     -0.268554741      -1.101152491      -0.191444586
                        -----------------------------------------
Magnitude (a.u.)       :      1.149482269
Magnitude (Debye)      :      2.921751732

Rotational constants in cm-1:             2.017978             0.331868             0.300749
Rotational constants in MHz :         60497.473101          9949.156051          9016.220165

                             ****ORCA TERMINATED NORMALLY****
TOTAL RUN TIME: 0 days 0 hours 7 minutes 39 seconds 947 msec
