                         Program Version 6.0.0  -   RELEASE  -
|  1> ! Engrad def2-TZVPPD wB97M-D3BJ
|  2> %pal nprocs 8 end%pal nprocs 64 end
|  3> %tddft Nroots 2 Iroot 1
|  4> sf true
|  5> end
|  6> *xyz 0 3
|  7> O   2.51410315 -0.25331928 -1.2225722
|  8> O   -0.28651172 2.67095238 -2.06369591
|  9> O   0.36027144 -3.70734559 0.61544171
| 10> O   -1.97257111 -1.41521406 -1.33144316
| 11> N   0.78584821 -2.04088554 1.94536443
| 12> N   -1.28311787 -0.3256582 0.5774207
| 13> N   1.23651719 -1.9390574 -0.30019304
| 14> N   -1.43439114 0.79954759 -1.51001835
| 15> C   1.31924574 0.14049389 0.8672382
| 16> C   -1.32959277 2.72522132 0.07312604
| 17> C   0.84281567 -0.64083908 2.04350069
| 18> C   -0.22200487 0.24158235 1.24803442
| 19> C   2.12131034 1.43450707 1.08288841
| 20> C   -1.41163207 4.18958001 0.22622222
| 21> C   1.75995691 -0.63604739 -0.37576022
| 22> C   -0.88227885 2.06226522 -1.20944055
| 23> C   0.70518373 -2.57189151 0.74573576
| 24> C   -1.5753535 -0.41388464 -0.77449033
| 25> H   1.01271878 -0.20237316 3.0126091
| 26> H   -0.39858223 1.22575234 1.76455258
| 27> H   2.08692788 2.1043948 0.29069502
| 28> H   1.71300972 1.85523934 1.98162197
| 29> H   3.20038647 1.17833532 1.18161863
| 30> H   -2.07016386 4.62628566 1.04894813
| 31> H   -0.4134045 4.64379345 0.37902149
| 32> H   -1.81343756 4.76999266 -0.6071769
| 33> H   0.60485446 -2.5918507 2.77730944
| 34> H   -1.74813349 -1.14107158 0.96201192
| 35> H   1.27939321 -2.58498401 -1.07519681
| 36> H   -1.48128977 0.6962 -2.47653763
| 37> *
| 38>
| 39>                          ****END OF INPUT****

CARTESIAN COORDINATES (ANGSTROEM)
---------------------------------
  O      2.514103   -0.253319   -1.222572
  O     -0.286512    2.670952   -2.063696
  O      0.360271   -3.707346    0.615442
  O     -1.972571   -1.415214   -1.331443
  N      0.785848   -2.040886    1.945364
  N     -1.283118   -0.325658    0.577421
  N      1.236517   -1.939057   -0.300193
  N     -1.434391    0.799548   -1.510018
  C      1.319246    0.140494    0.867238
  C     -1.329593    2.725221    0.073126
  C      0.842816   -0.640839    2.043501
  C     -0.222005    0.241582    1.248034
  C      2.121310    1.434507    1.082888
  C     -1.411632    4.189580    0.226222
  C      1.759957   -0.636047   -0.375760
  C     -0.882279    2.062265   -1.209441
  C      0.705184   -2.571892    0.745736
  C     -1.575353   -0.413885   -0.774490
  H      1.012719   -0.202373    3.012609
  H     -0.398582    1.225752    1.764553
  H      2.086928    2.104395    0.290695
  H      1.713010    1.855239    1.981622
  H      3.200386    1.178335    1.181619
  H     -2.070164    4.626286    1.048948
  H     -0.413405    4.643793    0.379021
  H     -1.813438    4.769993   -0.607177
  H      0.604854   -2.591851    2.777309
  H     -1.748133   -1.141072    0.962012
  H      1.279393   -2.584984   -1.075197
  H     -1.481290    0.696200   -2.476538

 Total Charge           Charge          ....    0
 Multiplicity           Mult            ....    3
 Number of Electrons    NEL             ....  132
 Basis Dimension        Dim             ....  882

ORBITAL ENERGIES
----------------
                 SPIN UP ORBITALS
  NO   OCC          E(Eh)            E(eV)
   0   1.0000     -19.347199      -526.4640
   1   1.0000     -19.342919      -526.3476
   2   1.0000     -19.327862      -525.9379
   3   1.0000     -19.299458      -525.1649
   4   1.0000     -14.563422      -396.2909
   5   1.0000     -14.559033      -396.1714
   6   1.0000     -14.558008      -396.1435
   7   1.0000     -14.554375      -396.0447
   8   1.0000     -10.511660      -286.0368
   9   1.0000     -10.495177      -285.5883
  10   1.0000     -10.493680      -285.5476
  11   1.0000     -10.486754      -285.3591
  12   1.0000     -10.440000      -284.0868
  13   1.0000     -10.431550      -283.8569
  14   1.0000     -10.426920      -283.7309
  15   1.0000     -10.413814      -283.3743
  16   1.0000     -10.380871      -282.4779
  17   1.0000     -10.360419      -281.9213
  18   1.0000      -1.233106       -33.5545
  19   1.0000      -1.221266       -33.2323
  20   1.0000      -1.207301       -32.8523
  21   1.0000      -1.205985       -32.8165
  22   1.0000      -1.124788       -30.6070
  23   1.0000      -1.091131       -29.6912
  24   1.0000      -1.073904       -29.2224
  25   1.0000      -1.058986       -28.8165
  26   1.0000      -0.995979       -27.1020
  27   1.0000      -0.925870       -25.1942
  28   1.0000      -0.868926       -23.6447
  29   1.0000      -0.823264       -22.4021
  30   1.0000      -0.816484       -22.2177
  31   1.0000      -0.808616       -22.0036
  32   1.0000      -0.789937       -21.4953
  33   1.0000      -0.765894       -20.8410
  34   1.0000      -0.716340       -19.4926
  35   1.0000      -0.702940       -19.1280
  36   1.0000      -0.688961       -18.7476
  37   1.0000      -0.655553       -17.8385
  38   1.0000      -0.632486       -17.2108
  39   1.0000      -0.626468       -17.0471
  40   1.0000      -0.612253       -16.6603
  41   1.0000      -0.607516       -16.5313
  42   1.0000      -0.603277       -16.4160
  43   1.0000      -0.588664       -16.0184
  44   1.0000      -0.578114       -15.7313
  45   1.0000      -0.571153       -15.5419
  46   1.0000      -0.566952       -15.4276
  47   1.0000      -0.561676       -15.2840
  48   1.0000      -0.551848       -15.0166
  49   1.0000      -0.545266       -14.8375
  50   1.0000      -0.541094       -14.7239
  51   1.0000      -0.527811       -14.3625
  52   1.0000      -0.519219       -14.1287
  53   1.0000      -0.512215       -13.9381
  54   1.0000      -0.506421       -13.7804
  55   1.0000      -0.487872       -13.2757
  56   1.0000      -0.450433       -12.2569
  57   1.0000      -0.434113       -11.8128
  58   1.0000      -0.413336       -11.2474
  59   1.0000      -0.411443       -11.1959
  60   1.0000      -0.405143       -11.0245
  61   1.0000      -0.395985       -10.7753
  62   1.0000      -0.389596       -10.6015
  63   1.0000      -0.376906       -10.2561
  64   1.0000      -0.372904       -10.1472
  65   1.0000      -0.354409        -9.6440
  66   1.0000      -0.337680        -9.1887
  67   0.0000       0.012463         0.3391
  68   0.0000       0.028629         0.7790
  69   0.0000       0.035212         0.9582
  70   0.0000       0.038869         1.0577
  71   0.0000       0.045527         1.2388

                 SPIN DOWN ORBITALS
  NO   OCC          E(Eh)            E(eV)
   0   1.0000     -19.342919      -526.3476
   1   1.0000     -19.342090      -526.3250
   2   1.0000     -19.327625      -525.9314
   3   1.0000     -19.299441      -525.1645
   4   1.0000     -14.563358      -396.2891
   5   1.0000     -14.559031      -396.1714
   6   1.0000     -14.557990      -396.1430
   7   1.0000     -14.553954      -396.0332
   8   1.0000     -10.511681      -286.0374
   9   1.0000     -10.495299      -285.5916
  10   1.0000     -10.493682      -285.5476
  11   1.0000     -10.486755      -285.3591
  12   1.0000     -10.439844      -284.0826
  13   1.0000     -10.431097      -283.8446
  14   1.0000     -10.413826      -283.3746
  15   1.0000     -10.401130      -283.0291
  16   1.0000     -10.381041      -282.4825
  17   1.0000     -10.360389      -281.9205
  18   1.0000      -1.233050       -33.5530
  19   1.0000      -1.216621       -33.1059
  20   1.0000      -1.207276       -32.8517
  21   1.0000      -1.202002       -32.7082
  22   1.0000      -1.124585       -30.6015
  23   1.0000      -1.090601       -29.6768
  24   1.0000      -1.073833       -29.2205
  25   1.0000      -1.057078       -28.7646
  26   1.0000      -0.995681       -27.0939
  27   1.0000      -0.896170       -24.3860
  28   1.0000      -0.868699       -23.6385
  29   1.0000      -0.821462       -22.3531
  30   1.0000      -0.814174       -22.1548
  31   1.0000      -0.799271       -21.7493
  32   1.0000      -0.786312       -21.3966
  33   1.0000      -0.761460       -20.7204
  34   1.0000      -0.714135       -19.4326
  35   1.0000      -0.701505       -19.0889
  36   1.0000      -0.680224       -18.5098
  37   1.0000      -0.654632       -17.8134
  38   1.0000      -0.630159       -17.1475
  39   1.0000      -0.621150       -16.9024
  40   1.0000      -0.608388       -16.5551
  41   1.0000      -0.605038       -16.4639
  42   1.0000      -0.590930       -16.0800
  43   1.0000      -0.576204       -15.6793
  44   1.0000      -0.571794       -15.5593
  45   1.0000      -0.568249       -15.4628
  46   1.0000      -0.560278       -15.2459
  47   1.0000      -0.557727       -15.1765
  48   1.0000      -0.545154       -14.8344
  49   1.0000      -0.543466       -14.7885
  50   1.0000      -0.530949       -14.4479
  51   1.0000      -0.520447       -14.1621
  52   1.0000      -0.513044       -13.9606
  53   1.0000      -0.506421       -13.7804
  54   1.0000      -0.501269       -13.6402
  55   1.0000      -0.486801       -13.2465
  56   1.0000      -0.437518       -11.9055
  57   1.0000      -0.430311       -11.7093
  58   1.0000      -0.413045       -11.2395
  59   1.0000      -0.398256       -10.8371
  60   1.0000      -0.395544       -10.7633
  61   1.0000      -0.390357       -10.6222
  62   1.0000      -0.387158       -10.5351
  63   1.0000      -0.375651       -10.2220
  64   1.0000      -0.356276        -9.6948
  65   0.0000      -0.044938        -1.2228
  66   0.0000      -0.026012        -0.7078
  67   0.0000       0.013331         0.3628
  68   0.0000       0.030143         0.8202
  69   0.0000       0.036975         1.0062

----------------------------------------------------------------------------------------------------
          SPIN FLIP ABSORPTION SPECTRUM VIA TRANSITION ELECTRIC DIPOLE MOMENTS
----------------------------------------------------------------------------------------------------
     Transition      Energy     Energy  Wavelength fosc(D2)      D2        DX        DY        DZ
                      (eV)      (cm-1)    (nm)                 (au**2)    (au)      (au)      (au)
----------------------------------------------------------------------------------------------------
  1-3A  ->  2-3A    0.425436    3431.4  2914.3   0.000925837   0.08883  -0.21534  -0.01953   0.20512

Dispersion correction             ... done (  0.1 sec)

MULLIKEN ATOMIC CHARGES AND SPIN DENSITIES
------------------------------------------
   0 O :   -0.618769   -0.000775
   1 O :   -0.575543    0.011371
   2 O :   -0.686291   -0.000226
   3 O :   -0.630958    0.000365
   4 N :   -0.105823    0.000243
   5 N :   -0.111692   -0.005301
   6 N :    0.022431    0.000538
   7 N :   -0.000122   -0.008558
   8 C :    1.733658    0.054481
   9 C :   -0.037612    0.089754
  10 C :   -0.294170   -0.036540
  11 C :   -0.749027   -0.073663
  12 C :   -1.806556    0.019356
  13 C :   -0.774528    0.117839
  14 C :    0.193308   -0.002004
  15 C :    0.703449   -0.182465
  16 C :    0.503921   -0.002718
  17 C :    0.488856   -0.004338
  18 H :    0.265660   -0.001251
  19 H :    0.438677    0.019038
  20 H :    0.314590    0.000521
  21 H :    0.419981   -0.002837
  22 H :    0.366830    0.001268
  23 H :    0.252788    0.004852
  24 H :    0.218891    0.008500
  25 H :    0.267387   -0.014423
  26 H :    0.066893    0.000717
  27 H :    0.108757   -0.001406
  28 H :    0.010305    0.000055
  29 H :    0.014708    0.007606
Sum of atomic charges       :   -0.0000000

LOEWDIN ATOMIC CHARGES AND SPIN DENSITIES
-----------------------------------------
   0 O :    0.132093    0.000033
   1 O :    0.107210    0.008469
   2 O :    0.102891   -0.000310
   3 O :    0.103118   -0.001006
   4 N :    0.289918   -0.001252
   5 N :    0.251894   -0.002334
   6 N :    0.342672   -0.000007
   7 N :    0.338023   -0.000880
   8 C :   -0.181663   -0.000505
   9 C :    0.192881    0.033168
  10 C :   -0.036785   -0.002520
  11 C :   -0.092820   -0.010812
  12 C :    0.221452   -0.000817
  13 C :    0.078422   -0.003240
  14 C :   -0.330711    0.000002
  15 C :   -0.444574   -0.006684
  16 C :   -0.592351   -0.000189
  17 C :   -0.438758   -0.000719
  18 H :    0.046765   -0.000134
  19 H :    0.015986   -0.007596
  20 H :   -0.044442   -0.000262
  21 H :   -0.018280   -0.000110
  22 H :    0.027496   -0.000011
  23 H :    0.016749    0.003360
  24 H :    0.020780   -0.000749
  25 H :   -0.018531   -0.004679
  26 H :    0.001478   -0.000079
  27 H :   -0.022834   -0.000059
  28 H :    0.001965   -0.000000
  29 H :   -0.070045   -0.000079

  Mayer bond orders larger than 0.100000
B(  0-O , 14-C ) :   1.5811 B(  1-O , 15-C ) :   1.4719 B(  2-O , 16-C ) :   1.4195
B(  3-O , 17-C ) :   1.5096 B(  4-N , 10-C ) :   0.7623 B(  4-N , 16-C ) :   1.1589
B(  4-N , 26-H ) :   1.0726 B(  5-N , 11-C ) :   0.5711 B(  5-N , 17-C ) :   0.9820
B(  5-N , 27-H ) :   1.0108 B(  6-N , 14-C ) :   0.9679 B(  6-N , 16-C ) :   0.9638
B(  6-N , 28-H ) :   1.0982 B(  7-N ,  9-C ) :   0.1433 B(  7-N , 15-C ) :   0.8084
B(  7-N , 17-C ) :   0.9561 B(  7-N , 29-H ) :   1.1419 B(  8-C , 10-C ) :   0.5705
B(  8-C , 14-C ) :   0.6031 B(  8-C , 20-H ) :  -0.1276 B(  8-C , 21-H ) :  -0.1004
B(  9-C , 13-C ) :   0.8559 B(  9-C , 15-C ) :   0.3321 B(  9-C , 19-H ) :  -0.1774
B( 10-C , 11-C ) :   0.7233 B( 10-C , 12-C ) :  -0.1471 B( 10-C , 16-C ) :  -0.1520
B( 10-C , 18-H ) :   1.0969 B( 11-C , 15-C ) :   0.1119 B( 11-C , 19-H ) :   1.1300
B( 12-C , 20-H ) :   1.0679 B( 12-C , 21-H ) :   0.9680 B( 12-C , 22-H ) :   0.8431
B( 13-C , 23-H ) :   0.9720 B( 13-C , 24-H ) :   0.9136 B( 13-C , 25-H ) :   0.9494

Dispersion correction           -0.054288294
FINAL SINGLE POINT ENERGY      -908.664933899052

DIPOLE MOMENT
-------------

Method             : TDA/CIS
Type of density    : Electron Density
Level              : Relaxed density
State              :   1
Multiplicity       :   3
Irrep              :   0
Energy             :     0.0000000000000000 Eh
Relativity type    :
Basis              : AO
                                X                 Y                 Z
Electronic contribution:     -1.261286468     -11.708367554      -6.476185066
Nuclear contribution   :      1.044534018      13.585108172       8.503750944
                        -----------------------------------------
Total Dipole Moment    :     -0.216752450       1.876740618       2.027565877
                        -----------------------------------------
Magnitude (a.u.)       :      2.771310224
Magnitude (Debye)      :      7.044110784

Rotational constants in cm-1:             0.022643             0.011504             0.010333
Rotational constants in MHz :           678.806849           344.892801           309.789982

                             ****ORCA TERMINATED NORMALLY****
TOTAL RUN TIME: 0 days 0 hours 4 minutes 35 seconds 587 msec
