                         Program Version 6.0.0  -   RELEASE  -
|  1> ! Engrad def2-TZVPPD wB97M-D3BJ
|  2> %pal nprocs 8 end%pal nprocs 64 end
|  3> %tddft Nroots 2 Iroot 2
|  4> sf true
|  5> end
|  6> *xyz 0 3
|  7> O   2.21122961 0.31090478 -1.18809542
|  8> O   -0.8068693 2.43441125 -2.61181307
|  9> O   0.55736117 -3.71187121 0.23570309
| 10> O   -2.56468444 -1.14156086 -0.91023204
| 11> N   0.81779656 -2.06943087 1.75884544
| 12> N   -1.34790388 -0.28271442 0.80068007
| 13> N   1.41260847 -1.70498866 -0.4431863
| 14> N   -0.94600304 0.39408583 -1.51286856
| 15> C   1.27352784 0.25047834 0.98676086
| 16> C   -1.27554057 2.46758049 -0.35651986
| 17> C   0.91052087 -0.69209015 2.04582738
| 18> C   -0.18242797 0.24711141 1.46002743
| 19> C   2.14476117 1.4211539 1.37218854
| 20> C   -1.36938322 3.74375274 0.36161187
| 21> C   1.71419664 -0.31194702 -0.31018326
| 22> C   -1.09737745 1.79222278 -1.58270572
| 23> C   0.86386521 -2.58891362 0.49622982
| 24> C   -1.68075367 -0.38330301 -0.55581647
| 25> H   1.20259992 -0.3967817 3.0880495
| 26> H   -0.40784628 1.09587248 2.11980855
| 27> H   2.17263214 2.17429699 0.58261083
| 28> H   1.73329638 1.89764012 2.34520617
| 29> H   3.17548737 1.08769383 1.55010975
| 30> H   -1.89127777 3.7696328 1.30793587
| 31> H   -0.32726074 4.1153375 0.54699001
| 32> H   -1.76951356 4.46174163 -0.33274333
| 33> H   0.4891766 -2.71095725 2.46885866
| 34> H   -1.70048122 -1.12404423 1.24758897
| 35> H   1.64115741 -2.07552055 -1.35871758
| 36> H   -1.09101585 -0.03708864 -2.38306491
| 37> *
| 38>
| 39>                          ****END OF INPUT****

CARTESIAN COORDINATES (ANGSTROEM)
---------------------------------
  O      2.211230    0.310905   -1.188095
  O     -0.806869    2.434411   -2.611813
  O      0.557361   -3.711871    0.235703
  O     -2.564684   -1.141561   -0.910232
  N      0.817797   -2.069431    1.758845
  N     -1.347904   -0.282714    0.800680
  N      1.412608   -1.704989   -0.443186
  N     -0.946003    0.394086   -1.512869
  C      1.273528    0.250478    0.986761
  C     -1.275541    2.467580   -0.356520
  C      0.910521   -0.692090    2.045827
  C     -0.182428    0.247111    1.460027
  C      2.144761    1.421154    1.372189
  C     -1.369383    3.743753    0.361612
  C      1.714197   -0.311947   -0.310183
  C     -1.097377    1.792223   -1.582706
  C      0.863865   -2.588914    0.496230
  C     -1.680754   -0.383303   -0.555816
  H      1.202600   -0.396782    3.088049
  H     -0.407846    1.095872    2.119809
  H      2.172632    2.174297    0.582611
  H      1.733296    1.897640    2.345206
  H      3.175487    1.087694    1.550110
  H     -1.891278    3.769633    1.307936
  H     -0.327261    4.115337    0.546990
  H     -1.769514    4.461742   -0.332743
  H      0.489177   -2.710957    2.468859
  H     -1.700481   -1.124044    1.247589
  H      1.641157   -2.075521   -1.358718
  H     -1.091016   -0.037089   -2.383065

 Total Charge           Charge          ....    0
 Multiplicity           Mult            ....    3
 Number of Electrons    NEL             ....  132
 Basis Dimension        Dim             ....  882

ORBITAL ENERGIES
----------------
                 SPIN UP ORBITALS
  NO   OCC          E(Eh)            E(eV)
   0   1.0000     -19.341970      -526.3218
   1   1.0000     -19.333377      -526.0879
   2   1.0000     -19.328630      -525.9587
   3   1.0000     -19.321878      -525.7750
   4   1.0000     -14.565393      -396.3445
   5   1.0000     -14.563373      -396.2895
   6   1.0000     -14.561965      -396.2512
   7   1.0000     -14.552277      -395.9876
   8   1.0000     -10.510245      -285.9983
   9   1.0000     -10.506545      -285.8976
  10   1.0000     -10.491154      -285.4788
  11   1.0000     -10.482929      -285.2550
  12   1.0000     -10.438831      -284.0550
  13   1.0000     -10.433009      -283.8966
  14   1.0000     -10.411933      -283.3231
  15   1.0000     -10.411537      -283.3123
  16   1.0000     -10.386175      -282.6222
  17   1.0000     -10.375666      -282.3362
  18   1.0000      -1.228967       -33.4419
  19   1.0000      -1.213742       -33.0276
  20   1.0000      -1.211546       -32.9678
  21   1.0000      -1.182998       -32.1910
  22   1.0000      -1.126564       -30.6554
  23   1.0000      -1.080202       -29.3938
  24   1.0000      -1.063212       -28.9315
  25   1.0000      -1.053641       -28.6710
  26   1.0000      -1.011136       -27.5144
  27   1.0000      -0.934373       -25.4256
  28   1.0000      -0.873829       -23.7781
  29   1.0000      -0.834625       -22.7113
  30   1.0000      -0.814892       -22.1743
  31   1.0000      -0.804307       -21.8863
  32   1.0000      -0.782338       -21.2885
  33   1.0000      -0.755788       -20.5660
  34   1.0000      -0.715436       -19.4680
  35   1.0000      -0.692634       -18.8475
  36   1.0000      -0.683138       -18.5891
  37   1.0000      -0.653801       -17.7908
  38   1.0000      -0.628952       -17.1147
  39   1.0000      -0.624572       -16.9955
  40   1.0000      -0.603519       -16.4226
  41   1.0000      -0.603056       -16.4100
  42   1.0000      -0.600913       -16.3517
  43   1.0000      -0.586003       -15.9460
  44   1.0000      -0.574667       -15.6375
  45   1.0000      -0.570906       -15.5351
  46   1.0000      -0.567483       -15.4420
  47   1.0000      -0.560151       -15.2425
  48   1.0000      -0.555486       -15.1155
  49   1.0000      -0.553253       -15.0548
  50   1.0000      -0.548410       -14.9230
  51   1.0000      -0.545234       -14.8366
  52   1.0000      -0.531896       -14.4736
  53   1.0000      -0.517594       -14.0845
  54   1.0000      -0.501095       -13.6355
  55   1.0000      -0.481854       -13.1119
  56   1.0000      -0.442037       -12.0284
  57   1.0000      -0.438987       -11.9455
  58   1.0000      -0.421168       -11.4606
  59   1.0000      -0.411159       -11.1882
  60   1.0000      -0.404324       -11.0022
  61   1.0000      -0.398732       -10.8500
  62   1.0000      -0.393736       -10.7141
  63   1.0000      -0.387595       -10.5470
  64   1.0000      -0.364214        -9.9108
  65   1.0000      -0.340052        -9.2533
  66   1.0000      -0.337008        -9.1705
  67   0.0000       0.010516         0.2861
  68   0.0000       0.027655         0.7525
  69   0.0000       0.032895         0.8951
  70   0.0000       0.038901         1.0585
  71   0.0000       0.049479         1.3464

                 SPIN DOWN ORBITALS
  NO   OCC          E(Eh)            E(eV)
   0   1.0000     -19.341958      -526.3214
   1   1.0000     -19.328680      -525.9601
   2   1.0000     -19.324994      -525.8598
   3   1.0000     -19.321878      -525.7750
   4   1.0000     -14.565341      -396.3431
   5   1.0000     -14.562992      -396.2792
   6   1.0000     -14.561952      -396.2509
   7   1.0000     -14.551736      -395.9729
   8   1.0000     -10.510240      -285.9982
   9   1.0000     -10.506545      -285.8976
  10   1.0000     -10.491160      -285.4790
  11   1.0000     -10.484191      -285.2894
  12   1.0000     -10.438754      -284.0529
  13   1.0000     -10.432937      -283.8946
  14   1.0000     -10.411442      -283.3097
  15   1.0000     -10.387368      -282.6546
  16   1.0000     -10.386771      -282.6384
  17   1.0000     -10.375660      -282.3361
  18   1.0000      -1.228937       -33.4411
  19   1.0000      -1.213727       -33.0272
  20   1.0000      -1.210714       -32.9452
  21   1.0000      -1.170667       -31.8555
  22   1.0000      -1.126408       -30.6511
  23   1.0000      -1.078923       -29.3590
  24   1.0000      -1.060809       -28.8661
  25   1.0000      -1.052700       -28.6454
  26   1.0000      -1.010825       -27.5059
  27   1.0000      -0.904961       -24.6253
  28   1.0000      -0.873703       -23.7747
  29   1.0000      -0.816313       -22.2130
  30   1.0000      -0.812597       -22.1119
  31   1.0000      -0.804032       -21.8788
  32   1.0000      -0.781810       -21.2741
  33   1.0000      -0.753744       -20.5104
  34   1.0000      -0.712779       -19.3957
  35   1.0000      -0.690714       -18.7953
  36   1.0000      -0.674493       -18.3539
  37   1.0000      -0.653282       -17.7767
  38   1.0000      -0.627059       -17.0631
  39   1.0000      -0.618390       -16.8273
  40   1.0000      -0.603191       -16.4137
  41   1.0000      -0.599904       -16.3242
  42   1.0000      -0.582328       -15.8460
  43   1.0000      -0.577544       -15.7158
  44   1.0000      -0.573000       -15.5921
  45   1.0000      -0.562673       -15.3111
  46   1.0000      -0.557692       -15.1756
  47   1.0000      -0.553857       -15.0712
  48   1.0000      -0.551964       -15.0197
  49   1.0000      -0.548918       -14.9368
  50   1.0000      -0.540568       -14.7096
  51   1.0000      -0.536205       -14.5909
  52   1.0000      -0.530043       -14.4232
  53   1.0000      -0.504466       -13.7272
  54   1.0000      -0.500209       -13.6114
  55   1.0000      -0.481389       -13.0993
  56   1.0000      -0.440185       -11.9780
  57   1.0000      -0.429117       -11.6769
  58   1.0000      -0.420576       -11.4445
  59   1.0000      -0.403988       -10.9931
  60   1.0000      -0.398804       -10.8520
  61   1.0000      -0.389521       -10.5994
  62   1.0000      -0.383308       -10.4304
  63   1.0000      -0.378554       -10.3010
  64   1.0000      -0.362267        -9.8578
  65   0.0000      -0.035287        -0.9602
  66   0.0000      -0.006336        -0.1724
  67   0.0000       0.011441         0.3113
  68   0.0000       0.027757         0.7553
  69   0.0000       0.032876         0.8946

----------------------------------------------------------------------------------------------------
          SPIN FLIP ABSORPTION SPECTRUM VIA TRANSITION ELECTRIC DIPOLE MOMENTS
----------------------------------------------------------------------------------------------------
     Transition      Energy     Energy  Wavelength fosc(D2)      D2        DX        DY        DZ
                      (eV)      (cm-1)    (nm)                 (au**2)    (au)      (au)      (au)
----------------------------------------------------------------------------------------------------
  1-3A  ->  2-3A    0.037579     303.1  32993.1   0.000025373   0.02756   0.07243   0.02515  -0.14724

Dispersion correction             ... done (  0.1 sec)

MULLIKEN ATOMIC CHARGES AND SPIN DENSITIES
------------------------------------------
   0 O :   -0.589376    0.000026
   1 O :   -0.664568   -0.120498
   2 O :   -0.630595    0.000221
   3 O :   -0.645874   -0.001124
   4 N :   -0.136019   -0.001697
   5 N :   -0.140056    0.016514
   6 N :   -0.028071   -0.000547
   7 N :    0.222160   -0.004162
   8 C :    2.226627   -0.002480
   9 C :    0.648947    0.657489
  10 C :   -0.338740   -0.011248
  11 C :   -0.809652    0.024830
  12 C :   -1.684798    0.002173
  13 C :   -0.965971    0.031476
  14 C :   -0.189208   -0.021138
  15 C :    0.108207   -0.586860
  16 C :    0.465546   -0.000865
  17 C :    0.381739   -0.025333
  18 H :    0.233359   -0.001114
  19 H :    0.378053    0.013871
  20 H :    0.310915   -0.007257
  21 H :    0.354651    0.001136
  22 H :    0.381574   -0.000009
  23 H :    0.227686    0.015201
  24 H :    0.252510    0.025947
  25 H :    0.332217   -0.011912
  26 H :    0.058094    0.000267
  27 H :    0.148477    0.003230
  28 H :    0.034811    0.000302
  29 H :    0.057354    0.003561
Sum of atomic charges       :    0.0000000

LOEWDIN ATOMIC CHARGES AND SPIN DENSITIES
-----------------------------------------
   0 O :    0.141187   -0.000541
   1 O :    0.057894   -0.098797
   2 O :    0.109770    0.000097
   3 O :    0.094422   -0.000159
   4 N :    0.276310   -0.000716
   5 N :    0.269936    0.012260
   6 N :    0.343219   -0.000717
   7 N :    0.305103   -0.014059
   8 C :   -0.262555   -0.003535
   9 C :    0.222619    0.134092
  10 C :   -0.073367   -0.001804
  11 C :   -0.052515   -0.004085
  12 C :    0.188340   -0.001242
  13 C :    0.130980    0.013992
  14 C :   -0.375574    0.000024
  15 C :   -0.489817   -0.038823
  16 C :   -0.503578    0.000013
  17 C :   -0.431981    0.006560
  18 H :    0.080935   -0.000190
  19 H :    0.037668   -0.000131
  20 H :   -0.003699   -0.000756
  21 H :    0.044857    0.000019
  22 H :    0.010986   -0.000008
  23 H :   -0.011190    0.019236
  24 H :    0.016635   -0.005120
  25 H :   -0.005810   -0.014006
  26 H :   -0.015920   -0.000054
  27 H :   -0.031832    0.000632
  28 H :   -0.012006   -0.000049
  29 H :   -0.061017   -0.002134

  Mayer bond orders larger than 0.100000
B(  0-O , 14-C ) :   1.5402 B(  1-O ,  9-C ) :   0.2497 B(  1-O , 15-C ) :   1.2680
B(  2-O , 16-C ) :   1.5596 B(  3-O , 17-C ) :   1.4312 B(  4-N , 10-C ) :   0.7535
B(  4-N , 11-C ) :  -0.1140 B(  4-N , 16-C ) :   1.0977 B(  4-N , 26-H ) :   1.0855
B(  5-N , 11-C ) :   0.5288 B(  5-N , 17-C ) :   0.9418 B(  5-N , 19-H ) :  -0.1186
B(  5-N , 27-H ) :   0.9869 B(  6-N , 14-C ) :   0.9260 B(  6-N , 16-C ) :   0.9160
B(  6-N , 28-H ) :   1.1041 B(  7-N , 15-C ) :   1.0056 B(  7-N , 17-C ) :   1.0199
B(  7-N , 29-H ) :   1.0311 B(  8-C , 10-C ) :   0.5474 B(  8-C , 11-C ) :  -0.1733
B(  8-C , 12-C ) :  -0.1342 B(  8-C , 20-H ) :  -0.1320 B(  8-C , 21-H ) :  -0.1061
B(  9-C , 13-C ) :   0.6081 B(  9-C , 15-C ) :   0.7976 B( 10-C , 11-C ) :   0.7233
B( 10-C , 12-C ) :  -0.1444 B( 10-C , 18-H ) :   1.1058 B( 11-C , 17-C ) :  -0.1155
B( 11-C , 19-H ) :   1.0769 B( 12-C , 20-H ) :   1.0809 B( 12-C , 21-H ) :   1.0226
B( 12-C , 22-H ) :   0.8209 B( 13-C , 23-H ) :   1.0384 B( 13-C , 24-H ) :   0.9218
B( 13-C , 25-H ) :   0.9134

Dispersion correction           -0.054474928
FINAL SINGLE POINT ENERGY      -908.677922532536

DIPOLE MOMENT
-------------

Method             : TDA/CIS
Type of density    : Electron Density
Level              : Relaxed density
State              :   2
Multiplicity       :   3
Irrep              :   0
Energy             :     0.0000000000000000 Eh
Relativity type    :
Basis              : AO
                                X                 Y                 Z
Electronic contribution:     -2.120203446     -10.363360931      -7.648508213
Nuclear contribution   :      2.642914676      11.505396402      10.644647259
                        -----------------------------------------
Total Dipole Moment    :      0.522711230       1.142035470       2.996139046
                        -----------------------------------------
Magnitude (a.u.)       :      3.248741484
Magnitude (Debye)      :      8.257644606

Rotational constants in cm-1:             0.021161             0.012272             0.010832
Rotational constants in MHz :           634.399667           367.914594           324.745582

                             ****ORCA TERMINATED NORMALLY****
TOTAL RUN TIME: 0 days 0 hours 4 minutes 29 seconds 51 msec
