                         Program Version 6.0.0  -   RELEASE  -
|  1> ! EnGrad wB97M-D3BJ def2-TZVPPD
|  2> %pal nprocs 8 end%pal nprocs 16 end
|  3> %tddft
|  4>  sf true
|  5>  nroots 2 Iroot 1 end
|  6> *xyz 0 3
|  7> O   0.18481782204118 0.9102215542807 -0.00069235829339
|  8> C   0.66050700163311 -0.35285160085596 -4.398061895e-05
|  9> C   -0.73150585253522 -0.61429012390449 5.441399909e-05
| 10> H   1.21691153477783 -0.64742005825936 0.89434849276693
| 11> H   1.21677199327286 -0.6477845628274 -0.89441556444949
| 12> H   -1.27301291694152 -0.68451167301848 -0.9281392488064
| 13> H   -1.27228958224823 -0.68176353541502 0.92888824540223
| 14> *
| 15>
| 16>                          ****END OF INPUT****

CARTESIAN COORDINATES (ANGSTROEM)
---------------------------------
  O      0.184818    0.910222   -0.000692
  C      0.660507   -0.352852   -0.000044
  C     -0.731506   -0.614290    0.000054
  H      1.216912   -0.647420    0.894348
  H      1.216772   -0.647785   -0.894416
  H     -1.273013   -0.684512   -0.928139
  H     -1.272290   -0.681764    0.928888

 Total Charge           Charge          ....    0
 Multiplicity           Mult            ....    3
 Number of Electrons    NEL             ....   24
 Basis Dimension        Dim             ....  182

ORBITAL ENERGIES
----------------
                 SPIN UP ORBITALS
  NO   OCC          E(Eh)            E(eV)
   0   1.0000     -19.424842      -528.5768
   1   1.0000     -10.409007      -283.2435
   2   1.0000     -10.334237      -281.2089
   3   1.0000      -1.237830       -33.6831
   4   1.0000      -0.860793       -23.4234
   5   1.0000      -0.748867       -20.3777
   6   1.0000      -0.656566       -17.8661
   7   1.0000      -0.620452       -16.8834
   8   1.0000      -0.550138       -14.9700
   9   1.0000      -0.500299       -13.6138
  10   1.0000      -0.467095       -12.7103
  11   1.0000      -0.451428       -12.2840
  12   1.0000      -0.228029        -6.2050
  13   0.0000       0.040006         1.0886
  14   0.0000       0.063528         1.7287
  15   0.0000       0.072028         1.9600
  16   0.0000       0.085578         2.3287
  17   0.0000       0.114580         3.1179

                 SPIN DOWN ORBITALS
  NO   OCC          E(Eh)            E(eV)
   0   1.0000     -19.393948      -527.7362
   1   1.0000     -10.409949      -283.2691
   2   1.0000     -10.322158      -280.8802
   3   1.0000      -1.173641       -31.9364
   4   1.0000      -0.826156       -22.4809
   5   1.0000      -0.728904       -19.8345
   6   1.0000      -0.609348       -16.5812
   7   1.0000      -0.583873       -15.8880
   8   1.0000      -0.521611       -14.1938
   9   1.0000      -0.471050       -12.8179
  10   1.0000      -0.402682       -10.9575
  11   0.0000      -0.086380        -2.3505
  12   0.0000       0.037183         1.0118
  13   0.0000       0.050053         1.3620
  14   0.0000       0.062459         1.6996
  15   0.0000       0.069286         1.8854

----------------------------------------------------------------------------------------------------
          SPIN FLIP ABSORPTION SPECTRUM VIA TRANSITION ELECTRIC DIPOLE MOMENTS
----------------------------------------------------------------------------------------------------
     Transition      Energy     Energy  Wavelength fosc(D2)      D2        DX        DY        DZ
                      (eV)      (cm-1)    (nm)                 (au**2)    (au)      (au)      (au)
----------------------------------------------------------------------------------------------------
  1-3A  ->  2-3A    3.947051   31835.1   314.1   0.002112833   0.02185   0.00014  -0.00006  -0.14781

Dispersion correction             ... done (  0.0 sec)

MULLIKEN ATOMIC CHARGES AND SPIN DENSITIES
------------------------------------------
   0 O :   -0.462829    0.000180
   1 C :   -0.139923   -0.070562
   2 C :   -0.351223   -0.007905
   3 H :    0.222263    0.029679
   4 H :    0.222236    0.029645
   5 H :    0.254649    0.009450
   6 H :    0.254827    0.009514
Sum of atomic charges       :   -0.0000000

LOEWDIN ATOMIC CHARGES AND SPIN DENSITIES
-----------------------------------------
   0 O :   -0.057828   -0.037646
   1 C :   -0.275024   -0.008321
   2 C :    0.272284    0.035186
   3 H :    0.029493    0.005131
   4 H :    0.029497    0.005131
   5 H :    0.000802    0.000264
   6 H :    0.000777    0.000254

  Mayer bond orders larger than 0.100000
B(  0-O ,  1-C ) :   0.7436 B(  0-O ,  2-C ) :   0.9114 B(  1-C ,  2-C ) :   0.7876
B(  1-C ,  3-H ) :   1.0333 B(  1-C ,  4-H ) :   1.0330 B(  2-C ,  5-H ) :   0.9330
B(  2-C ,  6-H ) :   0.9330

Dispersion correction           -0.005341960
FINAL SINGLE POINT ENERGY      -153.834107121959

DIPOLE MOMENT
-------------

Method             : TDA/CIS
Type of density    : Electron Density
Level              : Relaxed density
State              :   1
Multiplicity       :   3
Irrep              :   0
Energy             :     0.0000000000000000 Eh
Relativity type    :
Basis              : AO
                                X                 Y                 Z
Electronic contribution:     -0.026679372       1.287284056      -0.000921050
Nuclear contribution   :     -0.272312132      -2.506013113       0.001507352
                        -----------------------------------------
Total Dipole Moment    :     -0.298991504      -1.218729057       0.000586302
                        -----------------------------------------
Magnitude (a.u.)       :      1.254869227
Magnitude (Debye)      :      3.189624091

Rotational constants in cm-1:             0.965180             0.587841             0.427407
Rotational constants in MHz :         28935.355671         17623.015795         12813.350066

                             ****ORCA TERMINATED NORMALLY****
TOTAL RUN TIME: 0 days 0 hours 0 minutes 17 seconds 817 msec
