                         Program Version 6.0.0  -   RELEASE  -
|  1> ! Engrad def2-TZVPPD wB97M-D3BJ
|  2> %pal nprocs 8 end%pal nprocs 64 end
|  3> %tddft
|  4>  Iroot 2 Nroots 3
|  5> sf true
|  6> end
|  7> *xyz 0 3
|  8> O   0.86668042 -0.37973308 1.00706789
|  9> C   0.41990415 -0.3545048 -0.36944971
| 10> C   -0.14399277 0.98764417 -0.48057855
| 11> H   -0.27970427 -1.11369833 -0.62426479
| 12> H   1.2041317 -0.64784925 -1.07453371
| 13> H   -0.04490739 1.63051988 -1.40552051
| 14> H   -0.67774227 1.28518492 0.36259659
| 15> *
| 16>
| 17>                          ****END OF INPUT****

CARTESIAN COORDINATES (ANGSTROEM)
---------------------------------
  O      0.866680   -0.379733    1.007068
  C      0.419904   -0.354505   -0.369450
  C     -0.143993    0.987644   -0.480579
  H     -0.279704   -1.113698   -0.624265
  H      1.204132   -0.647849   -1.074534
  H     -0.044907    1.630520   -1.405521
  H     -0.677742    1.285185    0.362597

 Total Charge           Charge          ....    0
 Multiplicity           Mult            ....    3
 Number of Electrons    NEL             ....   24
 Basis Dimension        Dim             ....  182

ORBITAL ENERGIES
----------------
                 SPIN UP ORBITALS
  NO   OCC          E(Eh)            E(eV)
   0   1.0000     -19.393033      -527.7113
   1   1.0000     -10.409767      -283.2642
   2   1.0000     -10.365871      -282.0697
   3   1.0000      -1.147247       -31.2182
   4   1.0000      -0.882330       -24.0094
   5   1.0000      -0.747136       -20.3306
   6   1.0000      -0.598856       -16.2957
   7   1.0000      -0.594293       -16.1715
   8   1.0000      -0.539428       -14.6786
   9   1.0000      -0.513630       -13.9766
  10   1.0000      -0.450347       -12.2546
  11   1.0000      -0.422575       -11.4988
  12   1.0000      -0.317836        -8.6488
  13   0.0000       0.040710         1.1078
  14   0.0000       0.060958         1.6587
  15   0.0000       0.080554         2.1920
  16   0.0000       0.085721         2.3326
  17   0.0000       0.110685         3.0119

                 SPIN DOWN ORBITALS
  NO   OCC          E(Eh)            E(eV)
   0   1.0000     -19.368416      -527.0414
   1   1.0000     -10.411113      -283.3008
   2   1.0000     -10.352256      -281.6992
   3   1.0000      -1.089507       -29.6470
   4   1.0000      -0.849477       -23.1155
   5   1.0000      -0.721749       -19.6398
   6   1.0000      -0.579809       -15.7774
   7   1.0000      -0.548107       -14.9147
   8   1.0000      -0.518615       -14.1122
   9   1.0000      -0.486068       -13.2266
  10   1.0000      -0.389368       -10.5952
  11   0.0000      -0.056831        -1.5465
  12   0.0000       0.007778         0.2117
  13   0.0000       0.039653         1.0790
  14   0.0000       0.061377         1.6701
  15   0.0000       0.080970         2.2033

----------------------------------------------------------------------------------------------------
          SPIN FLIP ABSORPTION SPECTRUM VIA TRANSITION ELECTRIC DIPOLE MOMENTS
----------------------------------------------------------------------------------------------------
     Transition      Energy     Energy  Wavelength fosc(D2)      D2        DX        DY        DZ
                      (eV)      (cm-1)    (nm)                 (au**2)    (au)      (au)      (au)
----------------------------------------------------------------------------------------------------
  1-3A  ->  2-3A    0.528857    4265.5  2344.4   0.000317318   0.02449  -0.02637  -0.07309   0.13584
  1-3A  ->  3-3A    1.277401   10302.9   970.6   0.057059638   1.82324   0.61399  -0.89922   0.79853

Dispersion correction             ... done (  0.1 sec)

MULLIKEN ATOMIC CHARGES AND SPIN DENSITIES
------------------------------------------
   0 O :   -0.309038    0.248584
   1 C :   -0.055206   -0.001200
   2 C :   -0.373497   -0.176866
   3 H :    0.201838    0.028437
   4 H :    0.189462   -0.003772
   5 H :    0.161040   -0.049910
   6 H :    0.185401   -0.045273
Sum of atomic charges       :    0.0000000

LOEWDIN ATOMIC CHARGES AND SPIN DENSITIES
-----------------------------------------
   0 O :    0.018093    0.226911
   1 C :   -0.180044    0.002881
   2 C :    0.254019   -0.199292
   3 H :    0.001384    0.020774
   4 H :    0.031876    0.005612
   5 H :   -0.027463   -0.028737
   6 H :   -0.097864   -0.028151

  Mayer bond orders larger than 0.100000
B(  0-O ,  1-C ) :   0.8986 B(  1-C ,  2-C ) :   0.8397 B(  1-C ,  3-H ) :   0.9507
B(  1-C ,  4-H ) :   0.9475 B(  2-C ,  5-H ) :   1.0060 B(  2-C ,  6-H ) :   1.0124

Dispersion correction           -0.005559746
FINAL SINGLE POINT ENERGY      -153.736267254497

DIPOLE MOMENT
-------------

Method             : TDA/CIS
Type of density    : Electron Density
Level              : Relaxed density
State              :   2
Multiplicity       :   3
Irrep              :   0
Energy             :     0.0000000000000000 Eh
Relativity type    :
Basis              : AO
                                X                 Y                 Z
Electronic contribution:      1.052308360      -0.976279678       2.029895916
Nuclear contribution   :     -1.284538743       0.846904248      -2.825755851
                        -----------------------------------------
Total Dipole Moment    :     -0.232230383      -0.129375430      -0.795859935
                        -----------------------------------------
Magnitude (a.u.)       :      0.839084018
Magnitude (Debye)      :      2.132782078

Rotational constants in cm-1:             1.209201             0.391623             0.317841
Rotational constants in MHz :         36250.922823         11740.561072          9528.619630

                             ****ORCA TERMINATED NORMALLY****
TOTAL RUN TIME: 0 days 0 hours 0 minutes 27 seconds 323 msec
