                         Program Version 6.0.0  -   RELEASE  -
|  1> ! Opt wB97M-D3BJ def2-TZVPPD
|  2> %pal nprocs 8 end %pal nprocs 64 end
|  3> %geom
|  4> Constraints
|  5>     {A 2 1 0 102.72727272727272 C }
|  6> end
|  7> MaxIter 500
|  8> end
|  9> *xyz 0 1
| 10> O   -0.0007 0.8141 0.0
| 11> C   0.7509 -0.4065 0.0
| 12> C   -0.7502 -0.4076 0.0
| 13> H   1.2625 -0.6786 0.9136
| 14> H   1.2625 -0.6787 -0.9136
| 15> H   -1.2614 -0.6806 -0.9136
| 16> H   -1.2614 -0.6805 0.9136
| 17> *
| 18>
| 19>                          ****END OF INPUT****
 Total Charge           Charge          ....    0
 Multiplicity           Mult            ....    1
 Number of Electrons    NEL             ....   24
Dispersion correction           -0.005793817
FINAL SINGLE POINT ENERGY      -153.727430461732
Dispersion correction             ... done (  0.1 sec)
Dispersion correction           -0.005694519
FINAL SINGLE POINT ENERGY      -153.770206531249
Dispersion correction             ... done (  0.1 sec)
Dispersion correction           -0.005641517
FINAL SINGLE POINT ENERGY      -153.782882654076
Dispersion correction             ... done (  0.2 sec)
FINAL SINGLE POINT ENERGY      -153.788645051226
FINAL SINGLE POINT ENERGY      -153.790160565647
FINAL SINGLE POINT ENERGY      -153.790453174265
FINAL SINGLE POINT ENERGY      -153.790571238432
FINAL SINGLE POINT ENERGY      -153.790643298848
FINAL SINGLE POINT ENERGY      -153.790681464387
FINAL SINGLE POINT ENERGY      -153.790726441468
FINAL SINGLE POINT ENERGY      -153.790770375009
FINAL SINGLE POINT ENERGY      -153.790808864744
FINAL SINGLE POINT ENERGY      -153.790835716065
FINAL SINGLE POINT ENERGY      -153.790849621628
Dispersion correction             ... done (  0.2 sec)
Dispersion correction           -0.005638559
FINAL SINGLE POINT ENERGY      -153.790854202140
Dispersion correction             ... done (  0.1 sec)
Dispersion correction           -0.005639459
FINAL SINGLE POINT ENERGY      -153.790855443277
Dispersion correction             ... done (  0.1 sec)
                    ***********************HURRAY********************

CARTESIAN COORDINATES (ANGSTROEM)
---------------------------------
  O      0.446074    1.071894   -0.002775
  C      0.610281   -0.257155   -0.000545
  C     -0.747003   -0.745019    0.000883
  H      1.159631   -0.624537    0.880508
  H      1.159042   -0.627597   -0.880666
  H     -1.313482   -0.770310   -0.921244
  H     -1.312341   -0.765677    0.923838

 Multiplicity           Mult            ....    1
 Number of Electrons    NEL             ....   24
 Basis Dimension        Dim             ....  182

ORBITAL ENERGIES
----------------

  NO   OCC          E(Eh)            E(eV)
   0   2.0000     -19.327295      -525.9224
   1   2.0000     -10.449233      -284.3381
   2   2.0000     -10.397199      -282.9222
   3   2.0000      -1.124316       -30.5942
   4   2.0000      -0.886143       -24.1132
   5   2.0000      -0.733649       -19.9636
   6   2.0000      -0.625062       -17.0088
   7   2.0000      -0.572622       -15.5818
   8   2.0000      -0.517744       -14.0885
   9   2.0000      -0.512534       -13.9468
  10   2.0000      -0.365434        -9.9440
  11   2.0000      -0.351727        -9.5710
  12   0.0000      -0.066189        -1.8011
  13   0.0000       0.035583         0.9683
  14   0.0000       0.061300         1.6681
  15   0.0000       0.076222         2.0741
  16   0.0000       0.098535         2.6813

MULLIKEN ATOMIC CHARGES
-----------------------
   0 O :   -0.513007
   1 C :   -0.118301
   2 C :   -0.224648
   3 H :    0.211830
   4 H :    0.211887
   5 H :    0.216035
   6 H :    0.216204
Sum of atomic charges:   -0.0000000

LOEWDIN ATOMIC CHARGES
----------------------
   0 O :   -0.019520
   1 C :   -0.409345
   2 C :    0.402313
   3 H :    0.021556
   4 H :    0.021553
   5 H :   -0.008271
   6 H :   -0.008286

  Mayer bond orders larger than 0.100000
B(  0-O ,  1-C ) :   0.7529 B(  0-O ,  2-C ) :   0.8758 B(  1-C ,  2-C ) :   0.7895
B(  1-C ,  3-H ) :   1.0412 B(  1-C ,  4-H ) :   1.0411 B(  2-C ,  5-H ) :   0.9685
B(  2-C ,  6-H ) :   0.9685

Dispersion correction           -0.005639812
FINAL SINGLE POINT ENERGY      -153.790855762398

DIPOLE MOMENT
-------------

Method             : SCF
Type of density    : Electron Density
Multiplicity       :   1
Irrep              :   0
Energy             :  -153.7852159502694178 Eh
Relativity type    :
Basis              : AO
                                X                 Y                 Z
Electronic contribution:      0.109383852       1.414260049      -0.002878533
Nuclear contribution   :     -0.724991273      -2.796742266       0.005484040
                        -----------------------------------------
Total Dipole Moment    :     -0.615607421      -1.382482217       0.002605507
                        -----------------------------------------
Magnitude (a.u.)       :      1.513352691
Magnitude (Debye)      :      3.846636842

Rotational constants in cm-1:             1.224193             0.417024             0.353885
Rotational constants in MHz :         36700.379308         12502.069253         10609.205240

                             ****ORCA TERMINATED NORMALLY****
TOTAL RUN TIME: 0 days 0 hours 4 minutes 2 seconds 347 msec
