                         Program Version 6.0.0  -   RELEASE  -
|  1> ! Engrad def2-TZVPPD wB97M-D3BJ
|  2> %pal nprocs 8 end%pal nprocs 64 end
|  3> %tddft
|  4>  Iroot 1 Nroots 3
|  5> sf true
|  6> end
|  7> *xyz 0 3
|  8> O   2.97218004 -0.91546764 -1.66584245
|  9> O   -1.69866961 1.280512 -2.16040654
| 10> O   -1.03385301 -2.6228928 -0.74832353
| 11> O   -2.96838244 -0.09940906 1.94801876
| 12> N   0.00482339 -1.5287305 0.94291647
| 13> N   -1.11900443 0.99108828 1.66947257
| 14> N   0.83307049 -1.38709642 -1.23959908
| 15> N   -2.352143 0.5617015 -0.19065911
| 16> C   2.15706509 -0.40707003 0.4677696
| 17> C   -0.0734069 1.44835043 -0.35477445
| 18> C   0.87549052 -0.40122019 1.24911488
| 19> C   0.14467164 0.91163001 1.02312971
| 20> C   3.26206291 0.46354228 0.97842559
| 21> C   0.85493521 2.39448313 -1.01647469
| 22> C   2.10326458 -0.93043622 -0.87300252
| 23> C   -1.33662176 1.11213297 -1.00551969
| 24> C   -0.14329214 -1.9268636 -0.36612078
| 25> C   -2.26947511 0.39066114 1.14428304
| 26> H   1.15912803 -0.45976605 2.32628682
| 27> H   0.7406911 1.66593794 1.43638238
| 28> H   2.83735983 1.48492609 1.02925163
| 29> H   3.74283434 0.0213969 1.84156997
| 30> H   4.04330455 0.53780817 0.2577949
| 31> H   0.45293757 3.3943464 -1.0346479
| 32> H   1.78181967 2.3389272 -0.50024935
| 33> H   1.0821816 2.218461 -2.05000322
| 34> H   -0.75255705 -1.68782867 1.56807677
| 35> H   -1.10020406 0.58764868 2.59663248
| 36> H   0.82960682 -1.77710114 -2.23699561
| 37> H   -3.09488758 0.14768826 -0.76123863
| 38> *
| 39>
| 40>                          ****END OF INPUT****

CARTESIAN COORDINATES (ANGSTROEM)
---------------------------------
  O      2.972180   -0.915468   -1.665842
  O     -1.698670    1.280512   -2.160407
  O     -1.033853   -2.622893   -0.748324
  O     -2.968382   -0.099409    1.948019
  N      0.004823   -1.528730    0.942916
  N     -1.119004    0.991088    1.669473
  N      0.833070   -1.387096   -1.239599
  N     -2.352143    0.561701   -0.190659
  C      2.157065   -0.407070    0.467770
  C     -0.073407    1.448350   -0.354774
  C      0.875491   -0.401220    1.249115
  C      0.144672    0.911630    1.023130
  C      3.262063    0.463542    0.978426
  C      0.854935    2.394483   -1.016475
  C      2.103265   -0.930436   -0.873003
  C     -1.336622    1.112133   -1.005520
  C     -0.143292   -1.926864   -0.366121
  C     -2.269475    0.390661    1.144283
  H      1.159128   -0.459766    2.326287
  H      0.740691    1.665938    1.436382
  H      2.837360    1.484926    1.029252
  H      3.742834    0.021397    1.841570
  H      4.043305    0.537808    0.257795
  H      0.452938    3.394346   -1.034648
  H      1.781820    2.338927   -0.500249
  H      1.082182    2.218461   -2.050003
  H     -0.752557   -1.687829    1.568077
  H     -1.100204    0.587649    2.596632
  H      0.829607   -1.777101   -2.236996
  H     -3.094888    0.147688   -0.761239

 Total Charge           Charge          ....    0
 Multiplicity           Mult            ....    3
 Number of Electrons    NEL             ....  132
 Basis Dimension        Dim             ....  882

ORBITAL ENERGIES
----------------
                 SPIN UP ORBITALS
  NO   OCC          E(Eh)            E(eV)
   0   1.0000     -19.338607      -526.2302
   1   1.0000     -19.336019      -526.1598
   2   1.0000     -19.323685      -525.8242
   3   1.0000     -19.322415      -525.7896
   4   1.0000     -14.563413      -396.2906
   5   1.0000     -14.561273      -396.2324
   6   1.0000     -14.558408      -396.1544
   7   1.0000     -14.540108      -395.6565
   8   1.0000     -10.505843      -285.8785
   9   1.0000     -10.495864      -285.6070
  10   1.0000     -10.483161      -285.2613
  11   1.0000     -10.478380      -285.1312
  12   1.0000     -10.442875      -284.1651
  13   1.0000     -10.427370      -283.7432
  14   1.0000     -10.422891      -283.6213
  15   1.0000     -10.420862      -283.5661
  16   1.0000     -10.381740      -282.5015
  17   1.0000     -10.371026      -282.2100
  18   1.0000      -1.238759       -33.7083
  19   1.0000      -1.233737       -33.5717
  20   1.0000      -1.214255       -33.0415
  21   1.0000      -1.203203       -32.7408
  22   1.0000      -1.125564       -30.6282
  23   1.0000      -1.100687       -29.9512
  24   1.0000      -1.064407       -28.9640
  25   1.0000      -1.048808       -28.5395
  26   1.0000      -0.986651       -26.8481
  27   1.0000      -0.959460       -26.1082
  28   1.0000      -0.891408       -24.2564
  29   1.0000      -0.846990       -23.0478
  30   1.0000      -0.833268       -22.6744
  31   1.0000      -0.800075       -21.7711
  32   1.0000      -0.784950       -21.3596
  33   1.0000      -0.779990       -21.2246
  34   1.0000      -0.699365       -19.0307
  35   1.0000      -0.687587       -18.7102
  36   1.0000      -0.684693       -18.6314
  37   1.0000      -0.676838       -18.4177
  38   1.0000      -0.664986       -18.0952
  39   1.0000      -0.637232       -17.3400
  40   1.0000      -0.612616       -16.6701
  41   1.0000      -0.606756       -16.5107
  42   1.0000      -0.592491       -16.1225
  43   1.0000      -0.589486       -16.0407
  44   1.0000      -0.585238       -15.9251
  45   1.0000      -0.579740       -15.7755
  46   1.0000      -0.572221       -15.5709
  47   1.0000      -0.568115       -15.4592
  48   1.0000      -0.566574       -15.4173
  49   1.0000      -0.561158       -15.2699
  50   1.0000      -0.553277       -15.0554
  51   1.0000      -0.543855       -14.7990
  52   1.0000      -0.529121       -14.3981
  53   1.0000      -0.528597       -14.3838
  54   1.0000      -0.518275       -14.1030
  55   1.0000      -0.511106       -13.9079
  56   1.0000      -0.495658       -13.4875
  57   1.0000      -0.431812       -11.7502
  58   1.0000      -0.426450       -11.6043
  59   1.0000      -0.412910       -11.2358
  60   1.0000      -0.408858       -11.1256
  61   1.0000      -0.402339       -10.9482
  62   1.0000      -0.397951       -10.8288
  63   1.0000      -0.392738       -10.6869
  64   1.0000      -0.383331       -10.4310
  65   1.0000      -0.349920        -9.5218
  66   1.0000      -0.333367        -9.0714
  67   0.0000       0.011848         0.3224
  68   0.0000       0.030061         0.8180
  69   0.0000       0.035903         0.9770
  70   0.0000       0.037280         1.0144
  71   0.0000       0.055261         1.5037

                 SPIN DOWN ORBITALS
  NO   OCC          E(Eh)            E(eV)
   0   1.0000     -19.334603      -526.1213
   1   1.0000     -19.331756      -526.0438
   2   1.0000     -19.323566      -525.8210
   3   1.0000     -19.322367      -525.7883
   4   1.0000     -14.562427      -396.2638
   5   1.0000     -14.560971      -396.2242
   6   1.0000     -14.558206      -396.1489
   7   1.0000     -14.539525      -395.6406
   8   1.0000     -10.505897      -285.8800
   9   1.0000     -10.495905      -285.6081
  10   1.0000     -10.484127      -285.2876
  11   1.0000     -10.479336      -285.1572
  12   1.0000     -10.442680      -284.1598
  13   1.0000     -10.426954      -283.7318
  14   1.0000     -10.411337      -283.3069
  15   1.0000     -10.409226      -283.2494
  16   1.0000     -10.382312      -282.5171
  17   1.0000     -10.371557      -282.2244
  18   1.0000      -1.238018       -33.6882
  19   1.0000      -1.229370       -33.4529
  20   1.0000      -1.212433       -32.9920
  21   1.0000      -1.197574       -32.5877
  22   1.0000      -1.122639       -30.5486
  23   1.0000      -1.098297       -29.8862
  24   1.0000      -1.062354       -28.9081
  25   1.0000      -1.046997       -28.4902
  26   1.0000      -0.973555       -26.4918
  27   1.0000      -0.942252       -25.6400
  28   1.0000      -0.886541       -24.1240
  29   1.0000      -0.841303       -22.8930
  30   1.0000      -0.822830       -22.3904
  31   1.0000      -0.794543       -21.6206
  32   1.0000      -0.783336       -21.3156
  33   1.0000      -0.778316       -21.1791
  34   1.0000      -0.694929       -18.9100
  35   1.0000      -0.682249       -18.5649
  36   1.0000      -0.678134       -18.4530
  37   1.0000      -0.667936       -18.1755
  38   1.0000      -0.653958       -17.7951
  39   1.0000      -0.632374       -17.2078
  40   1.0000      -0.605952       -16.4888
  41   1.0000      -0.601592       -16.3701
  42   1.0000      -0.588427       -16.0119
  43   1.0000      -0.584772       -15.9125
  44   1.0000      -0.577672       -15.7193
  45   1.0000      -0.573502       -15.6058
  46   1.0000      -0.566284       -15.4094
  47   1.0000      -0.562543       -15.3076
  48   1.0000      -0.557787       -15.1782
  49   1.0000      -0.554758       -15.0957
  50   1.0000      -0.547424       -14.8962
  51   1.0000      -0.533501       -14.5173
  52   1.0000      -0.522080       -14.2065
  53   1.0000      -0.520342       -14.1592
  54   1.0000      -0.509575       -13.8663
  55   1.0000      -0.507082       -13.7984
  56   1.0000      -0.490015       -13.3340
  57   1.0000      -0.427297       -11.6274
  58   1.0000      -0.421761       -11.4767
  59   1.0000      -0.403135       -10.9699
  60   1.0000      -0.399808       -10.8793
  61   1.0000      -0.392895       -10.6912
  62   1.0000      -0.391592       -10.6557
  63   1.0000      -0.388606       -10.5745
  64   1.0000      -0.375097       -10.2069
  65   0.0000      -0.062332        -1.6961
  66   0.0000      -0.053660        -1.4602
  67   0.0000       0.011461         0.3119
  68   0.0000       0.029976         0.8157
  69   0.0000       0.035521         0.9666

----------------------------------------------------------------------------------------------------
          SPIN FLIP ABSORPTION SPECTRUM VIA TRANSITION ELECTRIC DIPOLE MOMENTS
----------------------------------------------------------------------------------------------------
     Transition      Energy     Energy  Wavelength fosc(D2)      D2        DX        DY        DZ
                      (eV)      (cm-1)    (nm)                 (au**2)    (au)      (au)      (au)
----------------------------------------------------------------------------------------------------
  1-3A  ->  2-3A    0.011770      94.9  105341.6   0.000003208   0.01113   0.09721  -0.03844  -0.01405
  1-3A  ->  3-3A    2.197885   17727.1   564.1   0.005005510   0.09296  -0.29718   0.05759   0.03644

Dispersion correction             ... done (  0.1 sec)

MULLIKEN ATOMIC CHARGES AND SPIN DENSITIES
------------------------------------------
   0 O :   -0.626391   -0.014730
   1 O :   -0.689010    0.011408
   2 O :   -0.624422   -0.000660
   3 O :   -0.593673   -0.000483
   4 N :   -0.228186   -0.005558
   5 N :   -0.531965   -0.003411
   6 N :    0.001534   -0.002499
   7 N :    0.015087    0.002033
   8 C :    0.293000    0.309754
   9 C :    0.300378    0.317283
  10 C :    0.564826   -0.153018
  11 C :    0.355041   -0.148736
  12 C :   -1.314343   -0.027114
  13 C :   -1.534171    0.035759
  14 C :    0.182114   -0.201293
  15 C :    0.176320   -0.187005
  16 C :    0.288969    0.010240
  17 C :    0.325857    0.009210
  18 H :    0.493870   -0.009682
  19 H :    0.712637    0.020070
  20 H :    0.392964    0.011103
  21 H :    0.363271    0.007347
  22 H :    0.276200   -0.001087
  23 H :    0.369897    0.006261
  24 H :    0.315927    0.003654
  25 H :    0.291243    0.005470
  26 H :    0.073332    0.000400
  27 H :    0.165686    0.002141
  28 H :    0.135350    0.001445
  29 H :    0.048659    0.001697
Sum of atomic charges       :    0.0000000

LOEWDIN ATOMIC CHARGES AND SPIN DENSITIES
-----------------------------------------
   0 O :    0.127515   -0.012921
   1 O :    0.088009    0.010015
   2 O :    0.108951   -0.000597
   3 O :    0.128666   -0.000453
   4 N :    0.303056   -0.001020
   5 N :    0.267479    0.000333
   6 N :    0.305656   -0.001958
   7 N :    0.328164   -0.000171
   8 C :   -0.003909   -0.036270
   9 C :    0.015120    0.052927
  10 C :   -0.110083   -0.004811
  11 C :   -0.157925    0.002167
  12 C :    0.208740   -0.006136
  13 C :    0.226149    0.007357
  14 C :   -0.469100   -0.012096
  15 C :   -0.373553    0.002965
  16 C :   -0.487998   -0.000336
  17 C :   -0.540692   -0.000363
  18 H :    0.082194   -0.000736
  19 H :    0.008710    0.000317
  20 H :   -0.001498   -0.001323
  21 H :    0.005964   -0.001254
  22 H :   -0.017667    0.000090
  23 H :    0.014740    0.002785
  24 H :   -0.039361   -0.000058
  25 H :    0.008953    0.001691
  26 H :   -0.049752   -0.000070
  27 H :   -0.043250    0.000064
  28 H :    0.053972   -0.000130
  29 H :    0.012748   -0.000004

  Mayer bond orders larger than 0.100000
B(  0-O ,  8-C ) :  -0.1052 B(  0-O , 14-C ) :   1.5073 B(  1-O , 15-C ) :   1.2936
B(  2-O , 16-C ) :   1.5494 B(  3-O , 17-C ) :   1.5853 B(  4-N ,  8-C ) :   0.2176
B(  4-N , 10-C ) :   0.2350 B(  4-N , 16-C ) :   1.0435 B(  4-N , 26-H ) :   1.0450
B(  5-N ,  9-C ) :   0.4378 B(  5-N , 11-C ) :  -0.4660 B(  5-N , 17-C ) :   1.1749
B(  5-N , 19-H ) :  -0.1175 B(  5-N , 27-H ) :   0.9178 B(  6-N , 10-C ) :   0.1308
B(  6-N , 14-C ) :   1.0774 B(  6-N , 16-C ) :   0.9620 B(  6-N , 28-H ) :   1.0158
B(  7-N , 15-C ) :   0.9072 B(  7-N , 17-C ) :   0.9708 B(  7-N , 29-H ) :   1.0902
B(  8-C , 10-C ) :   0.6012 B(  8-C , 11-C ) :   0.2432 B(  8-C , 12-C ) :   0.4388
B(  8-C , 14-C ) :   0.7532 B(  8-C , 16-C ) :   0.1162 B(  8-C , 18-H ) :  -0.1519
B(  8-C , 22-H ) :  -0.1291 B(  9-C , 13-C ) :   0.4225 B(  9-C , 15-C ) :   0.7379
B(  9-C , 17-C ) :   0.1434 B(  9-C , 19-H ) :  -0.4092 B(  9-C , 24-H ) :  -0.1336
B(  9-C , 25-H ) :  -0.1074 B( 10-C , 11-C ) :   0.4606 B( 10-C , 16-C ) :  -0.2289
B( 10-C , 18-H ) :   0.8020 B( 11-C , 12-C ) :   0.1787 B( 11-C , 13-C ) :  -0.2062
B( 11-C , 15-C ) :  -0.2383 B( 11-C , 17-C ) :  -0.1761 B( 11-C , 18-H ) :  -0.1193
B( 11-C , 19-H ) :   0.8797 B( 12-C , 20-H ) :   0.7483 B( 12-C , 21-H ) :   0.9522
B( 12-C , 22-H ) :   1.1412 B( 13-C , 23-H ) :   0.8097 B( 13-C , 24-H ) :   0.9789
B( 13-C , 25-H ) :   1.0411 B( 14-C , 16-C ) :  -0.1050

Dispersion correction           -0.060743077
FINAL SINGLE POINT ENERGY      -908.765049491596

DIPOLE MOMENT
-------------

Method             : TDA/CIS
Type of density    : Electron Density
Level              : Relaxed density
State              :   1
Multiplicity       :   3
Irrep              :   0
Energy             :     0.0000000000000000 Eh
Relativity type    :
Basis              : AO
                                X                 Y                 Z
Electronic contribution:     -9.282045675      -7.277135607      -2.888894673
Nuclear contribution   :     11.022096249       8.426399409       4.432825750
                        -----------------------------------------
Total Dipole Moment    :      1.740050574       1.149263802       1.543931077
                        -----------------------------------------
Magnitude (a.u.)       :      2.594668853
Magnitude (Debye)      :      6.595124102

Rotational constants in cm-1:             0.021227             0.013425             0.012818
Rotational constants in MHz :           636.367646           402.462383           384.278720

                             ****ORCA TERMINATED NORMALLY****
TOTAL RUN TIME: 0 days 0 hours 4 minutes 51 seconds 928 msec
