                         Program Version 6.0.0  -   RELEASE  -
|  1> ! Opt wB97M-D3BJ def2-TZVPPD
|  2> %pal nprocs 8 end %pal nprocs 64 end
|  3> %geom
|  4> Constraints
|  5>     {A 2 1 0 135.45454545454544 C }
|  6> end
|  7> MaxIter 500
|  8> end
|  9> *xyz 0 1
| 10> O   -0.0007 0.8141 0.0
| 11> C   0.7509 -0.4065 0.0
| 12> C   -0.7502 -0.4076 0.0
| 13> H   1.2625 -0.6786 0.9136
| 14> H   1.2625 -0.6787 -0.9136
| 15> H   -1.2614 -0.6806 -0.9136
| 16> H   -1.2614 -0.6805 0.9136
| 17> *
| 18>
| 19>                          ****END OF INPUT****
 Total Charge           Charge          ....    0
 Multiplicity           Mult            ....    1
 Number of Electrons    NEL             ....   24
Dispersion correction           -0.005721694
FINAL SINGLE POINT ENERGY      -153.522092743449
Dispersion correction             ... done (  0.2 sec)
Dispersion correction           -0.005643572
FINAL SINGLE POINT ENERGY      -153.662000050743
Dispersion correction             ... done (  0.2 sec)
Dispersion correction           -0.005584023
FINAL SINGLE POINT ENERGY      -153.703098319306
Dispersion correction             ... done (  0.2 sec)
FINAL SINGLE POINT ENERGY      -153.719631394684
FINAL SINGLE POINT ENERGY      -153.726057518677
FINAL SINGLE POINT ENERGY      -153.730747659042
FINAL SINGLE POINT ENERGY      -153.734686578620
FINAL SINGLE POINT ENERGY      -153.736058949310
FINAL SINGLE POINT ENERGY      -153.736800770026
FINAL SINGLE POINT ENERGY      -153.737954823139
FINAL SINGLE POINT ENERGY      -153.926820111622
FINAL SINGLE POINT ENERGY      -153.926874142434
FINAL SINGLE POINT ENERGY      -153.926901421060
FINAL SINGLE POINT ENERGY      -153.926900516183
FINAL SINGLE POINT ENERGY      -153.926916946591
FINAL SINGLE POINT ENERGY      -153.926920542257
FINAL SINGLE POINT ENERGY      -153.926925629936
Dispersion correction             ... done (  0.1 sec)
Dispersion correction           -0.005511076
FINAL SINGLE POINT ENERGY      -153.926927904391
Dispersion correction             ... done (  0.3 sec)
Dispersion correction           -0.005510766
FINAL SINGLE POINT ENERGY      -153.926928293772
Dispersion correction             ... done (  0.1 sec)
                    ***********************HURRAY********************

CARTESIAN COORDINATES (ANGSTROEM)
---------------------------------
  O      0.766332    1.365444   -0.017314
  C      0.546108    0.211542    0.223207
  C     -0.464033   -0.798242   -0.226096
  H      1.233064   -0.276938    0.954406
  H      0.082629   -1.639329   -0.651971
  H     -1.184794   -0.416270   -0.945025
  H     -0.977108   -1.164606    0.662793

 Multiplicity           Mult            ....    1
 Number of Electrons    NEL             ....   24
 Basis Dimension        Dim             ....  182

ORBITAL ENERGIES
----------------

  NO   OCC          E(Eh)            E(eV)
   0   2.0000     -19.341975      -526.3219
   1   2.0000     -10.444434      -284.2075
   2   2.0000     -10.363670      -282.0098
   3   2.0000      -1.189880       -32.3783
   4   2.0000      -0.892956       -24.2986
   5   2.0000      -0.697882       -18.9903
   6   2.0000      -0.596792       -16.2395
   7   2.0000      -0.565053       -15.3759
   8   2.0000      -0.559603       -15.2276
   9   2.0000      -0.510147       -13.8818
  10   2.0000      -0.479874       -13.0580
  11   2.0000      -0.365277        -9.9397
  12   0.0000       0.035303         0.9607
  13   0.0000       0.057205         1.5566
  14   0.0000       0.059231         1.6117
  15   0.0000       0.081900         2.2286
  16   0.0000       0.085418         2.3244

MULLIKEN ATOMIC CHARGES
-----------------------
   0 O :   -0.472382
   1 C :    0.230938
   2 C :   -0.691070
   3 H :    0.221355
   4 H :    0.235819
   5 H :    0.240094
   6 H :    0.235246
Sum of atomic charges:    0.0000000

LOEWDIN ATOMIC CHARGES
----------------------
   0 O :    0.076472
   1 C :   -0.244238
   2 C :    0.171863
   3 H :    0.021151
   4 H :   -0.008119
   5 H :   -0.008959
   6 H :   -0.008171

  Mayer bond orders larger than 0.100000
B(  0-O ,  1-C ) :   1.7707 B(  1-C ,  2-C ) :   0.7482 B(  1-C ,  3-H ) :   1.0020
B(  2-C ,  4-H ) :   0.9888 B(  2-C ,  5-H ) :   0.9601 B(  2-C ,  6-H ) :   0.9892

Dispersion correction           -0.005510727
FINAL SINGLE POINT ENERGY      -153.926928310106

DIPOLE MOMENT
-------------

Method             : SCF
Type of density    : Electron Density
Multiplicity       :   1
Irrep              :   0
Energy             :  -153.9214175835546428 Eh
Relativity type    :
Basis              : AO
                                X                 Y                 Z
Electronic contribution:      1.479648323       3.104810404       0.069385580
Nuclear contribution   :     -1.842463895      -4.224896458       0.043614845
                        -----------------------------------------
Total Dipole Moment    :     -0.362815572      -1.120086055       0.113000426
                        -----------------------------------------
Magnitude (a.u.)       :      1.182792038
Magnitude (Debye)      :      3.006418437

Rotational constants in cm-1:             2.243749             0.315688             0.291598
Rotational constants in MHz :         67265.907477          9464.088090          8741.890314

                             ****ORCA TERMINATED NORMALLY****
TOTAL RUN TIME: 0 days 0 hours 11 minutes 45 seconds 535 msec
