                         Program Version 6.0.0  -   RELEASE  -
|  1> ! Engrad def2-TZVPPD wB97M-D3BJ
|  2> %pal nprocs 8 end%pal nprocs 64 end
|  3> %tddft
|  4>  Iroot 1 Nroots 3
|  5> sf true
|  6> end
|  7> *xyz 0 3
|  8> O   0.11909431 0.94383461 0.78760238
|  9> C   0.5463178 -0.310332 0.42877813
| 10> C   0.56865268 -0.47928046 -1.05580344
| 11> H   -0.26092811 -0.95113661 0.84308005
| 12> H   1.56242441 -0.68018665 0.80939829
| 13> H   1.40801796 -0.91911786 -1.73694045
| 14> H   -0.12554109 -0.18778924 -1.75250232
| 15> *
| 16>
| 17>                          ****END OF INPUT****

CARTESIAN COORDINATES (ANGSTROEM)
---------------------------------
  O      0.119094    0.943835    0.787602
  C      0.546318   -0.310332    0.428778
  C      0.568653   -0.479280   -1.055803
  H     -0.260928   -0.951137    0.843080
  H      1.562424   -0.680187    0.809398
  H      1.408018   -0.919118   -1.736940
  H     -0.125541   -0.187789   -1.752502

 Total Charge           Charge          ....    0
 Multiplicity           Mult            ....    3
 Number of Electrons    NEL             ....   24
 Basis Dimension        Dim             ....  182

ORBITAL ENERGIES
----------------
                 SPIN UP ORBITALS
  NO   OCC          E(Eh)            E(eV)
   0   1.0000     -19.394967      -527.7639
   1   1.0000     -10.426521      -283.7201
   2   1.0000     -10.370676      -282.2004
   3   1.0000      -1.173031       -31.9198
   4   1.0000      -0.873391       -23.7662
   5   1.0000      -0.739367       -20.1192
   6   1.0000      -0.617763       -16.8102
   7   1.0000      -0.584390       -15.9021
   8   1.0000      -0.563800       -15.3418
   9   1.0000      -0.495238       -13.4761
  10   1.0000      -0.443247       -12.0614
  11   1.0000      -0.417786       -11.3685
  12   1.0000      -0.325406        -8.8548
  13   0.0000       0.040267         1.0957
  14   0.0000       0.060072         1.6346
  15   0.0000       0.077918         2.1202
  16   0.0000       0.087465         2.3800
  17   0.0000       0.109960         2.9922

                 SPIN DOWN ORBITALS
  NO   OCC          E(Eh)            E(eV)
   0   1.0000     -19.370787      -527.1059
   1   1.0000     -10.427908      -283.7578
   2   1.0000     -10.357054      -281.8298
   3   1.0000      -1.118330       -30.4313
   4   1.0000      -0.839695       -22.8493
   5   1.0000      -0.712141       -19.3783
   6   1.0000      -0.582280       -15.8446
   7   1.0000      -0.552371       -15.0308
   8   1.0000      -0.537267       -14.6198
   9   1.0000      -0.470276       -12.7969
  10   1.0000      -0.388042       -10.5591
  11   0.0000      -0.056268        -1.5311
  12   0.0000      -0.002319        -0.0631
  13   0.0000       0.039694         1.0801
  14   0.0000       0.060492         1.6461
  15   0.0000       0.077933         2.1207

----------------------------------------------------------------------------------------------------
          SPIN FLIP ABSORPTION SPECTRUM VIA TRANSITION ELECTRIC DIPOLE MOMENTS
----------------------------------------------------------------------------------------------------
     Transition      Energy     Energy  Wavelength fosc(D2)      D2        DX        DY        DZ
                      (eV)      (cm-1)    (nm)                 (au**2)    (au)      (au)      (au)
----------------------------------------------------------------------------------------------------
  1-3A  ->  2-3A    0.125527    1012.4  9877.1   0.000024525   0.00797  -0.06287   0.04931   0.03988
  1-3A  ->  3-1A    0.942313    7600.3  1315.7   0.030581854   1.32468  -0.15597   0.77474   0.83673

Dispersion correction             ... done (  0.1 sec)

MULLIKEN ATOMIC CHARGES AND SPIN DENSITIES
------------------------------------------
   0 O :   -0.473820   -0.513960
   1 C :   -0.022420   -0.056541
   2 C :   -0.468852    0.508845
   3 H :    0.227347    0.047405
   4 H :    0.225107   -0.067471
   5 H :    0.202792    0.030608
   6 H :    0.309846    0.051114
Sum of atomic charges       :   -0.0000000

LOEWDIN ATOMIC CHARGES AND SPIN DENSITIES
-----------------------------------------
   0 O :   -0.067975   -0.514282
   1 C :   -0.300835   -0.008935
   2 C :    0.346060    0.466926
   3 H :    0.026281    0.004539
   4 H :    0.063412   -0.054443
   5 H :    0.025883    0.042183
   6 H :   -0.092826    0.064012

  Mayer bond orders larger than 0.100000
B(  0-O ,  1-C ) :   0.9338 B(  0-O ,  2-C ) :   0.3901 B(  1-C ,  2-C ) :   0.8103
B(  1-C ,  3-H ) :   0.9966 B(  1-C ,  4-H ) :   0.9350 B(  2-C ,  5-H ) :   0.9808
B(  2-C ,  6-H ) :   0.9018

Dispersion correction           -0.005420028
FINAL SINGLE POINT ENERGY      -153.741088660040

DIPOLE MOMENT
-------------

Method             : TDA/CIS
Type of density    : Electron Density
Level              : Relaxed density
State              :   1
Multiplicity       :   3
Irrep              :   0
Energy             :     0.0000000000000000 Eh
Relativity type    :
Basis              : AO
                                X                 Y                 Z
Electronic contribution:     -0.511980547       1.623857738       1.147022090
Nuclear contribution   :      0.894976165      -2.799255351      -1.986957087
                        -----------------------------------------
Total Dipole Moment    :      0.382995618      -1.175397613      -0.839934997
                        -----------------------------------------
Magnitude (a.u.)       :      1.494568831
Magnitude (Debye)      :      3.798892066

Rotational constants in cm-1:             1.413069             0.348116             0.302810
Rotational constants in MHz :         42362.736866         10436.246596          9078.018779

                             ****ORCA TERMINATED NORMALLY****
TOTAL RUN TIME: 0 days 0 hours 0 minutes 26 seconds 403 msec
