                         Program Version 6.0.0  -   RELEASE  -
|  1> ! Engrad def2-TZVPPD wB97M-D3BJ
|  2> %pal nprocs 8 end%pal nprocs 64 end
|  3> %tddft
|  4> Iroot 3 Nroots 3
|  5> sf true
|  6> end
|  7> *xyz 0 3
|  8> O   2.9860351807525314 0.739821986317642 -0.7599884615106169
|  9> O   -0.3623374964898168 1.1455397992492704 -2.2885225515356353
| 10> O   0.4921516996973704 -3.0161201434855984 -0.8025196521457569
| 11> O   -3.1747961177713147 -1.4637377052691005 0.025368867552138397
| 12> N   0.3135367213422309 -1.6529182289490034 0.9676441397232656
| 13> N   -2.101828791317543 0.12058361335026235 1.1736175630669001
| 14> N   1.658228506232072 -1.0792810810942368 -0.8026559218205039
| 15> N   -1.5942467631252482 -0.2752467603860326 -1.0489165530438453
| 16> C   1.4299228679949036 0.5036004541179885 0.9500738360010941
| 17> C   -0.5101578463252658 1.5442081087827428 0.034678353926124145
| 18> C   0.446422988503048 -0.385763404580046 1.5854779521662177
| 19> C   -0.9159416058882208 0.8527451737063381 1.2879212578464523
| 20> C   2.068507021582218 1.5251173446662036 1.7712901903226943
| 21> C   -0.42618246236471613 2.9914033615726674 -0.02791075827530904
| 22> C   2.1104016365271945 0.08756580566088225 -0.2577957105768212
| 23> C   -0.7860699913873093 0.8248727678752998 -1.2087591414855199
| 24> C   0.7891975112100953 -1.9888523003592546 -0.2529109143356969
| 25> C   -2.342964722144772 -0.602922857753544 0.06017027702069258
| 26> H   0.5901835625355686 -0.514063478039274 2.6550559531854705
| 27> H   -1.0075672221154204 1.5517161969291728 2.1111417024909658
| 28> H   2.432172679755481 2.337557530194431 1.1508221410812693
| 29> H   1.4235816085994182 1.9483659195799963 2.536391207989786
| 30> H   2.9349890436982977 1.1529323893056844 2.3155298271671145
| 31> H   -1.438001217048171 3.391122627705005 -0.11923091313852704
| 32> H   0.04062249823368154 3.4734491458698082 0.8220254846040859
| 33> H   0.11674032520158423 3.310974127489547 -0.9114963308860831
| 34> H   -0.360340826271062 -2.3057324756098714 1.3229155491026567
| 35> H   -2.616932383102615 -0.15257256365974844 1.9882032380684824
| 36> H   2.051841507216046 -1.3484265390369676 -1.6890449211170588
| 37> H   -1.794567913730254 -0.800938814150333 -1.8839757114440192
| 38> *
| 39>
| 40>                          ****END OF INPUT****

CARTESIAN COORDINATES (ANGSTROEM)
---------------------------------
  O      2.986035    0.739822   -0.759988
  O     -0.362337    1.145540   -2.288523
  O      0.492152   -3.016120   -0.802520
  O     -3.174796   -1.463738    0.025369
  N      0.313537   -1.652918    0.967644
  N     -2.101829    0.120584    1.173618
  N      1.658229   -1.079281   -0.802656
  N     -1.594247   -0.275247   -1.048917
  C      1.429923    0.503600    0.950074
  C     -0.510158    1.544208    0.034678
  C      0.446423   -0.385763    1.585478
  C     -0.915942    0.852745    1.287921
  C      2.068507    1.525117    1.771290
  C     -0.426182    2.991403   -0.027911
  C      2.110402    0.087566   -0.257796
  C     -0.786070    0.824873   -1.208759
  C      0.789198   -1.988852   -0.252911
  C     -2.342965   -0.602923    0.060170
  H      0.590184   -0.514063    2.655056
  H     -1.007567    1.551716    2.111142
  H      2.432173    2.337558    1.150822
  H      1.423582    1.948366    2.536391
  H      2.934989    1.152932    2.315530
  H     -1.438001    3.391123   -0.119231
  H      0.040622    3.473449    0.822025
  H      0.116740    3.310974   -0.911496
  H     -0.360341   -2.305732    1.322916
  H     -2.616932   -0.152573    1.988203
  H      2.051842   -1.348427   -1.689045
  H     -1.794568   -0.800939   -1.883976

 Total Charge           Charge          ....    0
 Multiplicity           Mult            ....    3
 Number of Electrons    NEL             ....  132
 Basis Dimension        Dim             ....  882

ORBITAL ENERGIES
----------------
                 SPIN UP ORBITALS
  NO   OCC          E(Eh)            E(eV)
   0   1.0000     -19.328066      -525.9434
   1   1.0000     -19.319980      -525.7234
   2   1.0000     -19.316342      -525.6244
   3   1.0000     -19.315944      -525.6136
   4   1.0000     -14.567139      -396.3920
   5   1.0000     -14.566073      -396.3630
   6   1.0000     -14.562279      -396.2598
   7   1.0000     -14.557370      -396.1262
   8   1.0000     -10.500855      -285.7428
   9   1.0000     -10.500572      -285.7351
  10   1.0000     -10.475150      -285.0433
  11   1.0000     -10.466475      -284.8073
  12   1.0000     -10.448314      -284.3131
  13   1.0000     -10.445414      -284.2342
  14   1.0000     -10.407205      -283.1945
  15   1.0000     -10.397904      -282.9414
  16   1.0000     -10.366563      -282.0885
  17   1.0000     -10.364238      -282.0253
  18   1.0000      -1.230782       -33.4913
  19   1.0000      -1.223315       -33.2881
  20   1.0000      -1.202108       -32.7110
  21   1.0000      -1.196717       -32.5643
  22   1.0000      -1.125343       -30.6221
  23   1.0000      -1.108550       -30.1652
  24   1.0000      -1.072869       -29.1942
  25   1.0000      -1.066483       -29.0205
  26   1.0000      -0.987283       -26.8653
  27   1.0000      -0.951155       -25.8822
  28   1.0000      -0.874215       -23.7886
  29   1.0000      -0.842816       -22.9342
  30   1.0000      -0.827056       -22.5054
  31   1.0000      -0.808213       -21.9926
  32   1.0000      -0.795260       -21.6401
  33   1.0000      -0.788986       -21.4694
  34   1.0000      -0.704162       -19.1612
  35   1.0000      -0.702228       -19.1086
  36   1.0000      -0.695821       -18.9343
  37   1.0000      -0.673461       -18.3258
  38   1.0000      -0.661733       -18.0067
  39   1.0000      -0.638598       -17.3771
  40   1.0000      -0.629507       -17.1297
  41   1.0000      -0.597955       -16.2712
  42   1.0000      -0.593645       -16.1539
  43   1.0000      -0.587407       -15.9842
  44   1.0000      -0.582741       -15.8572
  45   1.0000      -0.570698       -15.5295
  46   1.0000      -0.563778       -15.3412
  47   1.0000      -0.559971       -15.2376
  48   1.0000      -0.555964       -15.1285
  49   1.0000      -0.552821       -15.0430
  50   1.0000      -0.545509       -14.8441
  51   1.0000      -0.544909       -14.8277
  52   1.0000      -0.534825       -14.5533
  53   1.0000      -0.518762       -14.1162
  54   1.0000      -0.512726       -13.9520
  55   1.0000      -0.497676       -13.5425
  56   1.0000      -0.493243       -13.4218
  57   1.0000      -0.428636       -11.6638
  58   1.0000      -0.416665       -11.3380
  59   1.0000      -0.410785       -11.1780
  60   1.0000      -0.404039       -10.9945
  61   1.0000      -0.401526       -10.9261
  62   1.0000      -0.391546       -10.6545
  63   1.0000      -0.388633       -10.5752
  64   1.0000      -0.385381       -10.4868
  65   1.0000      -0.329244        -8.9592
  66   1.0000      -0.286548        -7.7974
  67   0.0000       0.005881         0.1600
  68   0.0000       0.027413         0.7459
  69   0.0000       0.031340         0.8528
  70   0.0000       0.037853         1.0300
  71   0.0000       0.055851         1.5198

                 SPIN DOWN ORBITALS
  NO   OCC          E(Eh)            E(eV)
   0   1.0000     -19.325042      -525.8611
   1   1.0000     -19.316088      -525.6175
   2   1.0000     -19.315924      -525.6130
   3   1.0000     -19.315811      -525.6100
   4   1.0000     -14.566110      -396.3640
   5   1.0000     -14.565673      -396.3521
   6   1.0000     -14.561805      -396.2469
   7   1.0000     -14.556842      -396.1118
   8   1.0000     -10.500857      -285.7428
   9   1.0000     -10.500593      -285.7357
  10   1.0000     -10.475846      -285.0623
  11   1.0000     -10.466857      -284.8177
  12   1.0000     -10.446218      -284.2561
  13   1.0000     -10.444380      -284.2060
  14   1.0000     -10.395691      -282.8811
  15   1.0000     -10.387041      -282.6458
  16   1.0000     -10.366936      -282.0987
  17   1.0000     -10.364732      -282.0387
  18   1.0000      -1.229176       -33.4476
  19   1.0000      -1.221993       -33.2521
  20   1.0000      -1.198168       -32.6038
  21   1.0000      -1.191882       -32.4328
  22   1.0000      -1.122147       -30.5352
  23   1.0000      -1.106406       -30.1068
  24   1.0000      -1.070822       -29.1386
  25   1.0000      -1.064639       -28.9703
  26   1.0000      -0.971609       -26.4388
  27   1.0000      -0.936334       -25.4790
  28   1.0000      -0.868687       -23.6382
  29   1.0000      -0.838818       -22.8254
  30   1.0000      -0.819096       -22.2887
  31   1.0000      -0.801502       -21.8100
  32   1.0000      -0.793366       -21.5886
  33   1.0000      -0.787370       -21.4254
  34   1.0000      -0.697379       -18.9766
  35   1.0000      -0.692422       -18.8418
  36   1.0000      -0.689498       -18.7622
  37   1.0000      -0.667152       -18.1541
  38   1.0000      -0.650777       -17.7085
  39   1.0000      -0.634952       -17.2779
  40   1.0000      -0.626327       -17.0432
  41   1.0000      -0.593461       -16.1489
  42   1.0000      -0.587559       -15.9883
  43   1.0000      -0.582661       -15.8550
  44   1.0000      -0.567670       -15.4471
  45   1.0000      -0.563226       -15.3261
  46   1.0000      -0.557063       -15.1585
  47   1.0000      -0.555256       -15.1093
  48   1.0000      -0.551553       -15.0085
  49   1.0000      -0.546623       -14.8744
  50   1.0000      -0.537705       -14.6317
  51   1.0000      -0.533131       -14.5072
  52   1.0000      -0.527432       -14.3522
  53   1.0000      -0.510813       -13.8999
  54   1.0000      -0.503413       -13.6986
  55   1.0000      -0.492024       -13.3887
  56   1.0000      -0.488005       -13.2793
  57   1.0000      -0.422462       -11.4958
  58   1.0000      -0.413566       -11.2537
  59   1.0000      -0.407010       -11.0753
  60   1.0000      -0.393604       -10.7105
  61   1.0000      -0.390330       -10.6214
  62   1.0000      -0.384181       -10.4541
  63   1.0000      -0.380449       -10.3525
  64   1.0000      -0.353536        -9.6202
  65   0.0000      -0.072279        -1.9668
  66   0.0000      -0.019603        -0.5334
  67   0.0000       0.005823         0.1585
  68   0.0000       0.027689         0.7534
  69   0.0000       0.031690         0.8623

----------------------------------------------------------------------------------------------------
          SPIN FLIP ABSORPTION SPECTRUM VIA TRANSITION ELECTRIC DIPOLE MOMENTS
----------------------------------------------------------------------------------------------------
     Transition      Energy     Energy  Wavelength fosc(D2)      D2        DX        DY        DZ
                      (eV)      (cm-1)    (nm)                 (au**2)    (au)      (au)      (au)
----------------------------------------------------------------------------------------------------
  1-3A  ->  2-3A    0.951470    7674.1  1303.1   0.000265194   0.01138  -0.00886  -0.07300   0.07726
  1-3A  ->  3-1A    2.058559   16603.4   602.3   0.064911745   1.28707   0.82240  -0.50496   0.59644

Dispersion correction             ... done (  0.2 sec)

MULLIKEN ATOMIC CHARGES AND SPIN DENSITIES
------------------------------------------
   0 O :   -0.687080    0.006740
   1 O :   -0.698631    0.014556
   2 O :   -0.649780   -0.005488
   3 O :   -0.646604   -0.014980
   4 N :   -0.142607   -0.032242
   5 N :   -0.165800   -0.048698
   6 N :    0.047236   -0.003029
   7 N :    0.070596    0.000825
   8 C :    0.902600    0.278852
   9 C :    1.175305    0.493541
  10 C :    0.066804   -0.152365
  11 C :    0.055539   -0.282125
  12 C :   -1.724068    0.055323
  13 C :   -1.766680    0.044246
  14 C :    0.262411   -0.206230
  15 C :   -0.113300   -0.223097
  16 C :    0.477459    0.013358
  17 C :    0.338589    0.019590
  18 H :    0.478339    0.007428
  19 H :    0.381618   -0.003960
  20 H :    0.337737    0.001359
  21 H :    0.338468    0.001144
  22 H :    0.399460    0.008631
  23 H :    0.413400    0.007994
  24 H :    0.362876    0.004541
  25 H :    0.322038    0.002599
  26 H :    0.041113    0.002298
  27 H :    0.087356    0.004542
  28 H :    0.006245    0.002877
  29 H :    0.029361    0.001770
Sum of atomic charges       :    0.0000000

LOEWDIN ATOMIC CHARGES AND SPIN DENSITIES
-----------------------------------------
   0 O :    0.120422    0.006493
   1 O :    0.090215    0.011172
   2 O :    0.109407   -0.004505
   3 O :    0.104086   -0.013495
   4 N :    0.300919   -0.028419
   5 N :    0.289689   -0.039941
   6 N :    0.352300   -0.003851
   7 N :    0.340394   -0.000354
   8 C :   -0.103086    0.051310
   9 C :   -0.140949    0.056648
  10 C :    0.010744   -0.030730
  11 C :   -0.017555   -0.018342
  12 C :    0.176588    0.007276
  13 C :    0.159783    0.008495
  14 C :   -0.432383    0.001173
  15 C :   -0.454744    0.008792
  16 C :   -0.500995   -0.003687
  17 C :   -0.511343   -0.004700
  18 H :    0.053185   -0.004120
  19 H :    0.050466   -0.003199
  20 H :    0.008473    0.000485
  21 H :    0.001381    0.000529
  22 H :    0.018087    0.003539
  23 H :    0.008489    0.005284
  24 H :   -0.009934    0.000905
  25 H :    0.005325   -0.000333
  26 H :   -0.015926   -0.002526
  27 H :   -0.016577   -0.003580
  28 H :    0.004257   -0.000261
  29 H :   -0.000717   -0.000055

  Mayer bond orders larger than 0.100000
B(  0-O , 14-C ) :   1.2219 B(  1-O , 15-C ) :   1.4307 B(  2-O , 16-C ) :   1.5342
B(  3-O , 17-C ) :   1.5596 B(  4-N ,  8-C ) :   0.2134 B(  4-N , 10-C ) :   0.5393
B(  4-N , 16-C ) :   1.0273 B(  4-N , 26-H ) :   1.1036 B(  5-N ,  9-C ) :   0.1764
B(  5-N , 11-C ) :   0.2935 B(  5-N , 17-C ) :   1.1738 B(  5-N , 27-H ) :   1.0656
B(  6-N , 14-C ) :   1.0448 B(  6-N , 16-C ) :   0.9416 B(  6-N , 28-H ) :   1.1197
B(  7-N , 11-C ) :   0.1070 B(  7-N , 15-C ) :   0.8730 B(  7-N , 17-C ) :   0.9850
B(  7-N , 29-H ) :   1.1105 B(  8-C ,  9-C ) :   0.2863 B(  8-C , 10-C ) :   0.7019
B(  8-C , 14-C ) :   0.6359 B(  8-C , 15-C ) :   0.2149 B(  8-C , 20-H ) :  -0.1258
B(  8-C , 21-H ) :  -0.1755 B(  9-C , 11-C ) :   0.3589 B(  9-C , 13-C ) :   0.1495
B(  9-C , 14-C ) :   0.1160 B(  9-C , 15-C ) :   0.2027 B(  9-C , 17-C ) :   0.1057
B(  9-C , 19-H ) :  -0.1266 B(  9-C , 25-H ) :  -0.1377 B( 10-C , 11-C ) :   0.2508
B( 10-C , 12-C ) :  -0.1605 B( 10-C , 15-C ) :  -0.1300 B( 10-C , 16-C ) :  -0.1145
B( 10-C , 18-H ) :   0.8292 B( 11-C , 13-C ) :  -0.2403 B( 11-C , 17-C ) :  -0.2159
B( 11-C , 19-H ) :   0.9952 B( 12-C , 20-H ) :   0.9890 B( 12-C , 21-H ) :   1.0946
B( 12-C , 22-H ) :   0.7640 B( 13-C , 23-H ) :   0.8082 B( 13-C , 24-H ) :   0.9365
B( 13-C , 25-H ) :   1.0527 B( 15-C , 17-C ) :  -0.1452

Dispersion correction           -0.061252142
FINAL SINGLE POINT ENERGY      -908.724830456916

DIPOLE MOMENT
-------------

Method             : TDA/CIS
Type of density    : Electron Density
Level              : Relaxed density
State              :   3
Multiplicity       :   3
Irrep              :   0
Energy             :     0.0000000000000000 Eh
Relativity type    :
Basis              : AO
                                X                 Y                 Z
Electronic contribution:     -2.415729024     -10.806404148      -6.372784070
Nuclear contribution   :      2.230305918      11.493751872       9.580516773
                        -----------------------------------------
Total Dipole Moment    :     -0.185423107       0.687347725       3.207732703
                        -----------------------------------------
Magnitude (a.u.)       :      3.285784186
Magnitude (Debye)      :      8.351799673

Rotational constants in cm-1:             0.019709             0.016167             0.013239
Rotational constants in MHz :           590.872030           484.665911           396.902770

                             ****ORCA TERMINATED NORMALLY****
TOTAL RUN TIME: 0 days 0 hours 6 minutes 12 seconds 487 msec
