                         Program Version 6.0.0  -   RELEASE  -
|  1> ! Engrad def2-TZVPPD wB97M-D3BJ
|  2> %pal nprocs 8 end%pal nprocs 64 end
|  3> %tddft Nroots 2 Iroot 2
|  4> sf true
|  5> end
|  6> *xyz 0 3
|  7> O   4.16140687 -0.24439096 1.11629704
|  8> O   -2.17559418 1.91087171 -2.09620522
|  9> O   1.33531456 -2.87190838 -1.19692375
| 10> O   -3.60731851 -1.57838268 0.39389843
| 11> N   0.45210873 -0.99207904 -0.22713689
| 12> N   -1.93668761 -0.30906207 1.24353882
| 13> N   2.59978748 -1.70754287 0.29445581
| 14> N   -2.66398681 0.02142424 -0.92654586
| 15> C   1.88214829 0.43364992 1.05598331
| 16> C   -1.11982041 1.60183653 -0.00883856
| 17> C   0.51513046 -0.21387716 0.99466489
| 18> C   -0.84031346 0.63049268 1.11057072
| 19> C   2.13610113 1.84169145 1.32431238
| 20> C   -0.564271 2.97299779 0.03027678
| 21> C   2.9863955 -0.48758776 0.85840174
| 22> C   -1.99214711 1.23724446 -1.09258621
| 23> C   1.4295935 -1.92590253 -0.43860453
| 24> C   -2.80627183 -0.6883136 0.26118703
| 25> H   0.47561276 -0.9015978 1.85989763
| 26> H   -0.74620195 1.21321812 2.03605413
| 27> H   3.180548 2.00477218 1.64256799
| 28> H   1.995579 2.43838873 0.44707189
| 29> H   1.45132423 2.24202111 2.05307391
| 30> H   -0.53239923 3.35769089 1.03538154
| 31> H   0.44546603 3.01849408 -0.30945894
| 32> H   -1.13597036 3.63967319 -0.60634342
| 33> H   -0.42570939 -1.26317005 -0.59939214
| 34> H   -2.01119448 -0.86124229 2.08513144
| 35> H   3.3693113 -2.32756241 0.08941519
| 36> H   -3.33295357 -0.20718149 -1.6402134
| 37> *
| 38>
| 39>                          ****END OF INPUT****

CARTESIAN COORDINATES (ANGSTROEM)
---------------------------------
  O      4.161407   -0.244391    1.116297
  O     -2.175594    1.910872   -2.096205
  O      1.335315   -2.871908   -1.196924
  O     -3.607319   -1.578383    0.393898
  N      0.452109   -0.992079   -0.227137
  N     -1.936688   -0.309062    1.243539
  N      2.599787   -1.707543    0.294456
  N     -2.663987    0.021424   -0.926546
  C      1.882148    0.433650    1.055983
  C     -1.119820    1.601837   -0.008839
  C      0.515130   -0.213877    0.994665
  C     -0.840313    0.630493    1.110571
  C      2.136101    1.841691    1.324312
  C     -0.564271    2.972998    0.030277
  C      2.986395   -0.487588    0.858402
  C     -1.992147    1.237244   -1.092586
  C      1.429593   -1.925903   -0.438605
  C     -2.806272   -0.688314    0.261187
  H      0.475613   -0.901598    1.859898
  H     -0.746202    1.213218    2.036054
  H      3.180548    2.004772    1.642568
  H      1.995579    2.438389    0.447072
  H      1.451324    2.242021    2.053074
  H     -0.532399    3.357691    1.035382
  H      0.445466    3.018494   -0.309459
  H     -1.135970    3.639673   -0.606343
  H     -0.425709   -1.263170   -0.599392
  H     -2.011194   -0.861242    2.085131
  H      3.369311   -2.327562    0.089415
  H     -3.332954   -0.207181   -1.640213

 Total Charge           Charge          ....    0
 Multiplicity           Mult            ....    3
 Number of Electrons    NEL             ....  132
 Basis Dimension        Dim             ....  882

ORBITAL ENERGIES
----------------
                 SPIN UP ORBITALS
  NO   OCC          E(Eh)            E(eV)
   0   1.0000     -19.343496      -526.3633
   1   1.0000     -19.339635      -526.2582
   2   1.0000     -19.327049      -525.9158
   3   1.0000     -19.319676      -525.7151
   4   1.0000     -14.570631      -396.4870
   5   1.0000     -14.569737      -396.4627
   6   1.0000     -14.563730      -396.2993
   7   1.0000     -14.558915      -396.1682
   8   1.0000     -10.513288      -286.0811
   9   1.0000     -10.504602      -285.8447
  10   1.0000     -10.489495      -285.4337
  11   1.0000     -10.484515      -285.2981
  12   1.0000     -10.461578      -284.6740
  13   1.0000     -10.451490      -284.3995
  14   1.0000     -10.430075      -283.8168
  15   1.0000     -10.421940      -283.5954
  16   1.0000     -10.376074      -282.3473
  17   1.0000     -10.375283      -282.3258
  18   1.0000      -1.228824       -33.4380
  19   1.0000      -1.217458       -33.1287
  20   1.0000      -1.204430       -32.7742
  21   1.0000      -1.194365       -32.5003
  22   1.0000      -1.125787       -30.6342
  23   1.0000      -1.104841       -30.0642
  24   1.0000      -1.071637       -29.1607
  25   1.0000      -1.058776       -28.8108
  26   1.0000      -0.985951       -26.8291
  27   1.0000      -0.966025       -26.2869
  28   1.0000      -0.899590       -24.4791
  29   1.0000      -0.852199       -23.1895
  30   1.0000      -0.841672       -22.9031
  31   1.0000      -0.798784       -21.7360
  32   1.0000      -0.793373       -21.5888
  33   1.0000      -0.786080       -21.3903
  34   1.0000      -0.706787       -19.2327
  35   1.0000      -0.701916       -19.1001
  36   1.0000      -0.697483       -18.9795
  37   1.0000      -0.681841       -18.5538
  38   1.0000      -0.652211       -17.7476
  39   1.0000      -0.639980       -17.4147
  40   1.0000      -0.629851       -17.1391
  41   1.0000      -0.610114       -16.6021
  42   1.0000      -0.606784       -16.5114
  43   1.0000      -0.588829       -16.0229
  44   1.0000      -0.585632       -15.9359
  45   1.0000      -0.578693       -15.7470
  46   1.0000      -0.572599       -15.5812
  47   1.0000      -0.569946       -15.5090
  48   1.0000      -0.567504       -15.4426
  49   1.0000      -0.560866       -15.2619
  50   1.0000      -0.555513       -15.1163
  51   1.0000      -0.543899       -14.8002
  52   1.0000      -0.542502       -14.7622
  53   1.0000      -0.528840       -14.3905
  54   1.0000      -0.517033       -14.0692
  55   1.0000      -0.516303       -14.0493
  56   1.0000      -0.498072       -13.5532
  57   1.0000      -0.429551       -11.6887
  58   1.0000      -0.427604       -11.6357
  59   1.0000      -0.414391       -11.2762
  60   1.0000      -0.408641       -11.1197
  61   1.0000      -0.402837       -10.9617
  62   1.0000      -0.400135       -10.8882
  63   1.0000      -0.391485       -10.6529
  64   1.0000      -0.385070       -10.4783
  65   1.0000      -0.351145        -9.5551
  66   1.0000      -0.343253        -9.3404
  67   0.0000       0.006441         0.1753
  68   0.0000       0.027819         0.7570
  69   0.0000       0.032169         0.8754
  70   0.0000       0.032901         0.8953
  71   0.0000       0.053972         1.4686

                 SPIN DOWN ORBITALS
  NO   OCC          E(Eh)            E(eV)
   0   1.0000     -19.338812      -526.2358
   1   1.0000     -19.335007      -526.1323
   2   1.0000     -19.326938      -525.9127
   3   1.0000     -19.319517      -525.7108
   4   1.0000     -14.570483      -396.4830
   5   1.0000     -14.569230      -396.4489
   6   1.0000     -14.563420      -396.2908
   7   1.0000     -14.558258      -396.1504
   8   1.0000     -10.513322      -286.0820
   9   1.0000     -10.504631      -285.8456
  10   1.0000     -10.490582      -285.4633
  11   1.0000     -10.485531      -285.3258
  12   1.0000     -10.462329      -284.6944
  13   1.0000     -10.451022      -284.3868
  14   1.0000     -10.418760      -283.5089
  15   1.0000     -10.410461      -283.2830
  16   1.0000     -10.376598      -282.3616
  17   1.0000     -10.375818      -282.3404
  18   1.0000      -1.227431       -33.4001
  19   1.0000      -1.215430       -33.0735
  20   1.0000      -1.198731       -32.6191
  21   1.0000      -1.189139       -32.3581
  22   1.0000      -1.123516       -30.5724
  23   1.0000      -1.102440       -29.9989
  24   1.0000      -1.069917       -29.1139
  25   1.0000      -1.057199       -28.7678
  26   1.0000      -0.972622       -26.4664
  27   1.0000      -0.948237       -25.8028
  28   1.0000      -0.895688       -24.3729
  29   1.0000      -0.846887       -23.0450
  30   1.0000      -0.831818       -22.6349
  31   1.0000      -0.795316       -21.6416
  32   1.0000      -0.790382       -21.5074
  33   1.0000      -0.784606       -21.3502
  34   1.0000      -0.702038       -19.1034
  35   1.0000      -0.695560       -18.9272
  36   1.0000      -0.691782       -18.8243
  37   1.0000      -0.674001       -18.3405
  38   1.0000      -0.645419       -17.5628
  39   1.0000      -0.629726       -17.1357
  40   1.0000      -0.626157       -17.0386
  41   1.0000      -0.603907       -16.4331
  42   1.0000      -0.601293       -16.3620
  43   1.0000      -0.583539       -15.8789
  44   1.0000      -0.577678       -15.7194
  45   1.0000      -0.570824       -15.5329
  46   1.0000      -0.567867       -15.4524
  47   1.0000      -0.564321       -15.3560
  48   1.0000      -0.559997       -15.2383
  49   1.0000      -0.552425       -15.0323
  50   1.0000      -0.547688       -14.9034
  51   1.0000      -0.537553       -14.6276
  52   1.0000      -0.532043       -14.4776
  53   1.0000      -0.519920       -14.1478
  54   1.0000      -0.509934       -13.8760
  55   1.0000      -0.507585       -13.8121
  56   1.0000      -0.493293       -13.4232
  57   1.0000      -0.425978       -11.5914
  58   1.0000      -0.422736       -11.5032
  59   1.0000      -0.401826       -10.9342
  60   1.0000      -0.400098       -10.8872
  61   1.0000      -0.396637       -10.7931
  62   1.0000      -0.394752       -10.7418
  63   1.0000      -0.386425       -10.5152
  64   1.0000      -0.381879       -10.3915
  65   0.0000      -0.068814        -1.8725
  66   0.0000      -0.056378        -1.5341
  67   0.0000       0.005979         0.1627
  68   0.0000       0.027552         0.7497
  69   0.0000       0.032071         0.8727

----------------------------------------------------------------------------------------------------
          SPIN FLIP ABSORPTION SPECTRUM VIA TRANSITION ELECTRIC DIPOLE MOMENTS
----------------------------------------------------------------------------------------------------
     Transition      Energy     Energy  Wavelength fosc(D2)      D2        DX        DY        DZ
                      (eV)      (cm-1)    (nm)                 (au**2)    (au)      (au)      (au)
----------------------------------------------------------------------------------------------------
  1-3A  ->  2-3A    0.023970     193.3  51725.4   0.000000028   0.00005   0.00559  -0.00288   0.00278

Dispersion correction             ... done (  0.1 sec)

MULLIKEN ATOMIC CHARGES AND SPIN DENSITIES
------------------------------------------
   0 O :   -0.657452   -0.169935
   1 O :   -0.651956    0.170516
   2 O :   -0.641258   -0.003737
   3 O :   -0.635811    0.003911
   4 N :   -0.232056   -0.049165
   5 N :   -0.206620    0.015828
   6 N :   -0.032386   -0.018270
   7 N :   -0.010280    0.021904
   8 C :    1.337280    0.290463
   9 C :    0.209638    0.395367
  10 C :    0.138572   -0.345012
  11 C :    0.298151    0.068677
  12 C :   -1.469996   -0.094720
  13 C :   -1.511353    0.015300
  14 C :   -0.077323   -0.403677
  15 C :    0.564588    0.154738
  16 C :    0.274603    0.009439
  17 C :    0.416375   -0.002030
  18 H :    0.291215   -0.091736
  19 H :    0.508879    0.002016
  20 H :    0.300703   -0.018372
  21 H :    0.233343   -0.031339
  22 H :    0.338385    0.022127
  23 H :    0.332353    0.002756
  24 H :    0.224854    0.030773
  25 H :    0.351984    0.016709
  26 H :    0.125944    0.004532
  27 H :    0.049949    0.000178
  28 H :    0.098703    0.004426
  29 H :    0.030972   -0.001668
Sum of atomic charges       :   -0.0000000

LOEWDIN ATOMIC CHARGES AND SPIN DENSITIES
-----------------------------------------
   0 O :    0.070718   -0.153035
   1 O :    0.100244    0.150405
   2 O :    0.088388   -0.005670
   3 O :    0.099192    0.003962
   4 N :    0.291033   -0.016173
   5 N :    0.269294    0.004702
   6 N :    0.318392   -0.012914
   7 N :    0.319423    0.019895
   8 C :    0.027792   -0.487391
   9 C :    0.002374    0.500105
  10 C :   -0.094599   -0.029572
  11 C :   -0.087760    0.057868
  12 C :    0.188956   -0.086126
  13 C :    0.200372    0.075533
  14 C :   -0.409430   -0.088493
  15 C :   -0.389523    0.084302
  16 C :   -0.464440   -0.001829
  17 C :   -0.501693    0.001029
  18 H :    0.061162   -0.018130
  19 H :    0.051713    0.008196
  20 H :    0.025008   -0.002739
  21 H :   -0.022846   -0.027315
  22 H :   -0.005081   -0.011936
  23 H :   -0.002274    0.009582
  24 H :   -0.032994    0.023579
  25 H :    0.006863    0.003409
  26 H :   -0.061307   -0.001797
  27 H :   -0.020046   -0.000010
  28 H :   -0.013342   -0.001141
  29 H :   -0.015588    0.001705

  Mayer bond orders larger than 0.100000
B(  0-O ,  8-C ) :   0.1481 B(  0-O , 14-C ) :   1.3217 B(  1-O , 15-C ) :   1.3330
B(  2-O , 16-C ) :   1.5957 B(  3-O , 17-C ) :   1.6104 B(  4-N ,  8-C ) :   0.2426
B(  4-N , 10-C ) :   0.1035 B(  4-N , 11-C ) :   0.1771 B(  4-N , 16-C ) :   1.1974
B(  4-N , 26-H ) :   0.9980 B(  5-N ,  9-C ) :   0.1163 B(  5-N , 10-C ) :   0.2034
B(  5-N , 11-C ) :   0.2432 B(  5-N , 17-C ) :   1.0844 B(  5-N , 27-H ) :   1.1226
B(  6-N ,  8-C ) :  -0.1070 B(  6-N , 14-C ) :   0.9902 B(  6-N , 16-C ) :   0.9492
B(  6-N , 28-H ) :   1.0429 B(  7-N , 15-C ) :   1.0347 B(  7-N , 17-C ) :   0.9918
B(  7-N , 29-H ) :   1.0999 B(  8-C , 10-C ) :  -0.3658 B(  8-C , 11-C ) :   0.2084
B(  8-C , 14-C ) :   0.4488 B(  8-C , 20-H ) :  -0.1053 B(  8-C , 22-H ) :  -0.1008
B(  9-C , 10-C ) :   0.2701 B(  9-C , 13-C ) :   0.2912 B(  9-C , 15-C ) :   0.6396
B(  9-C , 19-H ) :  -0.2183 B(  9-C , 23-H ) :  -0.1235 B( 10-C , 11-C ) :   0.6869
B( 10-C , 12-C ) :   0.1721 B( 10-C , 14-C ) :   0.2790 B( 10-C , 16-C ) :  -0.1242
B( 10-C , 18-H ) :   0.7870 B( 11-C , 13-C ) :  -0.3109 B( 11-C , 17-C ) :  -0.1515
B( 11-C , 19-H ) :   0.8515 B( 12-C , 20-H ) :   1.0451 B( 12-C , 21-H ) :   0.8573
B( 12-C , 22-H ) :   0.9342 B( 13-C , 23-H ) :   1.0324 B( 13-C , 24-H ) :   0.9339
B( 13-C , 25-H ) :   0.9008 B( 18-H , 19-H ) :   0.1015

Dispersion correction           -0.056699885
FINAL SINGLE POINT ENERGY      -908.793671752981

DIPOLE MOMENT
-------------

Method             : TDA/CIS
Type of density    : Electron Density
Level              : Relaxed density
State              :   2
Multiplicity       :   3
Irrep              :   0
Energy             :     0.0000000000000000 Eh
Relativity type    :
Basis              : AO
                                X                 Y                 Z
Electronic contribution:     -2.934911375     -10.173504424      -4.246575704
Nuclear contribution   :      2.730623362      11.938648405       6.030844158
                        -----------------------------------------
Total Dipole Moment    :     -0.204288013       1.765143981       1.784268454
                        -----------------------------------------
Magnitude (a.u.)       :      2.518150270
Magnitude (Debye)      :      6.400629319

Rotational constants in cm-1:             0.021437             0.010719             0.008710
Rotational constants in MHz :           642.679144           321.337593           261.105863

                             ****ORCA TERMINATED NORMALLY****
TOTAL RUN TIME: 0 days 0 hours 4 minutes 16 seconds 835 msec
