                         Program Version 6.0.0  -   RELEASE  -
|  1> ! Engrad def2-TZVPPD wB97M-D3BJ
|  2> %pal nprocs 8 end%pal nprocs 64 end
|  3> %tddft
|  4>  Iroot 2 Nroots 3
|  5> sf true
|  6> end
|  7> *xyz 0 3
|  8> O   3.2010227 0.39361317 -0.90989799
|  9> O   -0.63896917 1.53617906 -2.31037614
| 10> O   0.41145014 -3.07751456 -0.35431209
| 11> O   -3.0067847 -1.77592363 -0.41809113
| 12> N   0.33670985 -1.43916765 1.20785642
| 13> N   -2.15799781 -0.18194799 0.96428076
| 14> N   1.549136 -1.15786087 -0.76191875
| 15> N   -1.49144367 -0.29321703 -1.25235081
| 16> C   1.76371888 0.50368963 0.94997455
| 17> C   -0.86417084 1.61715663 0.04651384
| 18> C   0.38465234 -0.04136636 1.55887533
| 19> C   -1.07867083 0.72470189 1.23459577
| 20> C   2.48723211 1.56826799 1.64908969
| 21> C   -0.69198624 3.06766833 0.19236694
| 22> C   2.24857339 -0.04713525 -0.29874073
| 23> C   -0.96859466 1.00046235 -1.26607501
| 24> C   0.72922303 -1.96964559 0.00414834
| 25> C   -2.27746903 -0.83668095 -0.23687567
| 26> H   0.48080649 0.01353052 2.64605925
| 27> H   -1.32759298 1.31360399 2.11138957
| 28> H   3.46350993 1.7400164 1.20152235
| 29> H   1.92803521 2.50603443 1.59298425
| 30> H   2.58036054 1.34659872 2.71893107
| 31> H   -1.57379793 3.50815019 0.6757224
| 32> H   0.15274183 3.29368797 0.8449831
| 33> H   -0.52893893 3.53291987 -0.77210701
| 34> H   -0.27969367 -2.04813043 1.70857907
| 35> H   -2.6943297 -0.57974559 1.72278132
| 36> H   1.8974577 -1.59497041 -1.60504361
| 37> H   -1.58905247 -0.74912705 -2.14849145
| 38> *
| 39>
| 40>                          ****END OF INPUT****

CARTESIAN COORDINATES (ANGSTROEM)
---------------------------------
  O      3.201023    0.393613   -0.909898
  O     -0.638969    1.536179   -2.310376
  O      0.411450   -3.077515   -0.354312
  O     -3.006785   -1.775924   -0.418091
  N      0.336710   -1.439168    1.207856
  N     -2.157998   -0.181948    0.964281
  N      1.549136   -1.157861   -0.761919
  N     -1.491444   -0.293217   -1.252351
  C      1.763719    0.503690    0.949975
  C     -0.864171    1.617157    0.046514
  C      0.384652   -0.041366    1.558875
  C     -1.078671    0.724702    1.234596
  C      2.487232    1.568268    1.649090
  C     -0.691986    3.067668    0.192367
  C      2.248573   -0.047135   -0.298741
  C     -0.968595    1.000462   -1.266075
  C      0.729223   -1.969646    0.004148
  C     -2.277469   -0.836681   -0.236876
  H      0.480806    0.013531    2.646059
  H     -1.327593    1.313604    2.111390
  H      3.463510    1.740016    1.201522
  H      1.928035    2.506034    1.592984
  H      2.580361    1.346599    2.718931
  H     -1.573798    3.508150    0.675722
  H      0.152742    3.293688    0.844983
  H     -0.528939    3.532920   -0.772107
  H     -0.279694   -2.048130    1.708579
  H     -2.694330   -0.579746    1.722781
  H      1.897458   -1.594970   -1.605044
  H     -1.589052   -0.749127   -2.148491

 Total Charge           Charge          ....    0
 Multiplicity           Mult            ....    3
 Number of Electrons    NEL             ....  132
 Basis Dimension        Dim             ....  882

ORBITAL ENERGIES
----------------
                 SPIN UP ORBITALS
  NO   OCC          E(Eh)            E(eV)
   0   1.0000     -19.332702      -526.0696
   1   1.0000     -19.331839      -526.0461
   2   1.0000     -19.318887      -525.6936
   3   1.0000     -19.314067      -525.5625
   4   1.0000     -14.564465      -396.3192
   5   1.0000     -14.558276      -396.1508
   6   1.0000     -14.557180      -396.1210
   7   1.0000     -14.556073      -396.0909
   8   1.0000     -10.502859      -285.7973
   9   1.0000     -10.498901      -285.6896
  10   1.0000     -10.478597      -285.1371
  11   1.0000     -10.477754      -285.1142
  12   1.0000     -10.451417      -284.3975
  13   1.0000     -10.447236      -284.2837
  14   1.0000     -10.424628      -283.6686
  15   1.0000     -10.412415      -283.3362
  16   1.0000     -10.373994      -282.2907
  17   1.0000     -10.372698      -282.2554
  18   1.0000      -1.220343       -33.2072
  19   1.0000      -1.215472       -33.0747
  20   1.0000      -1.195823       -32.5400
  21   1.0000      -1.194196       -32.4957
  22   1.0000      -1.115769       -30.3616
  23   1.0000      -1.095542       -29.8112
  24   1.0000      -1.063400       -28.9366
  25   1.0000      -1.053384       -28.6640
  26   1.0000      -0.973376       -26.4869
  27   1.0000      -0.951911       -25.9028
  28   1.0000      -0.882400       -24.0113
  29   1.0000      -0.838068       -22.8050
  30   1.0000      -0.828115       -22.5342
  31   1.0000      -0.803861       -21.8742
  32   1.0000      -0.783246       -21.3132
  33   1.0000      -0.775170       -21.0935
  34   1.0000      -0.697730       -18.9862
  35   1.0000      -0.691519       -18.8172
  36   1.0000      -0.682870       -18.5818
  37   1.0000      -0.659716       -17.9518
  38   1.0000      -0.650174       -17.6921
  39   1.0000      -0.645379       -17.5617
  40   1.0000      -0.615637       -16.7523
  41   1.0000      -0.602755       -16.4018
  42   1.0000      -0.590052       -16.0561
  43   1.0000      -0.584069       -15.8933
  44   1.0000      -0.581614       -15.8265
  45   1.0000      -0.569765       -15.5041
  46   1.0000      -0.563907       -15.3447
  47   1.0000      -0.557855       -15.1800
  48   1.0000      -0.556736       -15.1495
  49   1.0000      -0.550610       -14.9829
  50   1.0000      -0.544434       -14.8148
  51   1.0000      -0.541515       -14.7354
  52   1.0000      -0.534202       -14.5364
  53   1.0000      -0.525874       -14.3098
  54   1.0000      -0.514428       -13.9983
  55   1.0000      -0.506471       -13.7818
  56   1.0000      -0.487180       -13.2568
  57   1.0000      -0.420752       -11.4492
  58   1.0000      -0.417014       -11.3475
  59   1.0000      -0.408465       -11.1149
  60   1.0000      -0.406195       -11.0531
  61   1.0000      -0.394934       -10.7467
  62   1.0000      -0.391881       -10.6636
  63   1.0000      -0.387845       -10.5538
  64   1.0000      -0.381119       -10.3708
  65   1.0000      -0.339953        -9.2506
  66   1.0000      -0.326078        -8.8730
  67   0.0000       0.006182         0.1682
  68   0.0000       0.028599         0.7782
  69   0.0000       0.031643         0.8610
  70   0.0000       0.039518         1.0753
  71   0.0000       0.056154         1.5280

                 SPIN DOWN ORBITALS
  NO   OCC          E(Eh)            E(eV)
   0   1.0000     -19.328074      -525.9436
   1   1.0000     -19.327302      -525.9226
   2   1.0000     -19.318681      -525.6880
   3   1.0000     -19.313834      -525.5561
   4   1.0000     -14.563962      -396.3055
   5   1.0000     -14.557911      -396.1409
   6   1.0000     -14.556813      -396.1110
   7   1.0000     -14.555659      -396.0796
   8   1.0000     -10.502884      -285.7980
   9   1.0000     -10.498922      -285.6902
  10   1.0000     -10.479676      -285.1665
  11   1.0000     -10.478763      -285.1416
  12   1.0000     -10.451058      -284.3878
  13   1.0000     -10.447205      -284.2829
  14   1.0000     -10.413051      -283.3535
  15   1.0000     -10.400996      -283.0255
  16   1.0000     -10.374586      -282.3068
  17   1.0000     -10.373274      -282.2711
  18   1.0000      -1.218844       -33.1664
  19   1.0000      -1.213472       -33.0203
  20   1.0000      -1.190640       -32.3990
  21   1.0000      -1.188617       -32.3439
  22   1.0000      -1.113437       -30.2982
  23   1.0000      -1.093344       -29.7514
  24   1.0000      -1.061695       -28.8902
  25   1.0000      -1.051929       -28.6244
  26   1.0000      -0.958742       -26.0887
  27   1.0000      -0.935195       -25.4479
  28   1.0000      -0.878451       -23.9039
  29   1.0000      -0.832987       -22.6667
  30   1.0000      -0.819136       -22.2898
  31   1.0000      -0.798494       -21.7281
  32   1.0000      -0.781954       -21.2781
  33   1.0000      -0.773587       -21.0504
  34   1.0000      -0.691813       -18.8252
  35   1.0000      -0.685216       -18.6457
  36   1.0000      -0.677479       -18.4351
  37   1.0000      -0.653070       -17.7709
  38   1.0000      -0.642490       -17.4831
  39   1.0000      -0.638842       -17.3838
  40   1.0000      -0.613228       -16.6868
  41   1.0000      -0.598055       -16.2739
  42   1.0000      -0.583185       -15.8693
  43   1.0000      -0.575096       -15.6492
  44   1.0000      -0.570300       -15.5187
  45   1.0000      -0.564503       -15.3609
  46   1.0000      -0.559284       -15.2189
  47   1.0000      -0.554375       -15.0853
  48   1.0000      -0.549069       -14.9409
  49   1.0000      -0.540864       -14.7177
  50   1.0000      -0.537856       -14.6358
  51   1.0000      -0.533861       -14.5271
  52   1.0000      -0.527734       -14.3604
  53   1.0000      -0.515020       -14.0144
  54   1.0000      -0.503123       -13.6907
  55   1.0000      -0.501358       -13.6426
  56   1.0000      -0.481496       -13.1022
  57   1.0000      -0.416427       -11.3316
  58   1.0000      -0.413241       -11.2449
  59   1.0000      -0.402131       -10.9425
  60   1.0000      -0.393238       -10.7006
  61   1.0000      -0.386330       -10.5126
  62   1.0000      -0.383834       -10.4446
  63   1.0000      -0.381172       -10.3722
  64   1.0000      -0.371133       -10.0990
  65   0.0000      -0.063113        -1.7174
  66   0.0000      -0.042652        -1.1606
  67   0.0000       0.005817         0.1583
  68   0.0000       0.028457         0.7744
  69   0.0000       0.031296         0.8516

----------------------------------------------------------------------------------------------------
          SPIN FLIP ABSORPTION SPECTRUM VIA TRANSITION ELECTRIC DIPOLE MOMENTS
----------------------------------------------------------------------------------------------------
     Transition      Energy     Energy  Wavelength fosc(D2)      D2        DX        DY        DZ
                      (eV)      (cm-1)    (nm)                 (au**2)    (au)      (au)      (au)
----------------------------------------------------------------------------------------------------
  1-3A  ->  2-3A    0.070129     565.6  17679.5   0.000000339   0.00020  -0.00314   0.00289  -0.01338
  1-3A  ->  3-3A    2.220642   17910.7   558.3   0.000824947   0.01516   0.06558  -0.05068   0.09107

Dispersion correction             ... done (  0.1 sec)

MULLIKEN ATOMIC CHARGES AND SPIN DENSITIES
------------------------------------------
   0 O :   -0.675511   -0.042832
   1 O :   -0.684818    0.038711
   2 O :   -0.652672   -0.001731
   3 O :   -0.636779    0.000636
   4 N :   -0.274277    0.003073
   5 N :   -0.301348    0.002345
   6 N :    0.077347   -0.007611
   7 N :    0.058516    0.009220
   8 C :    0.845188    0.430052
   9 C :    0.396410    0.403933
  10 C :   -0.186135   -0.283752
  11 C :    0.495296   -0.106546
  12 C :   -1.193446    0.016629
  13 C :   -1.166063    0.002648
  14 C :   -0.005145   -0.376599
  15 C :    0.054080   -0.187016
  16 C :    0.421257    0.023222
  17 C :    0.364589    0.008368
  18 H :    0.602384    0.000169
  19 H :    0.519937    0.004294
  20 H :    0.312586   -0.006717
  21 H :    0.228660    0.019669
  22 H :    0.318201    0.008242
  23 H :    0.327806    0.014988
  24 H :    0.236546    0.020959
  25 H :    0.312445   -0.000448
  26 H :    0.056694    0.001038
  27 H :    0.068678    0.000123
  28 H :    0.044517    0.003846
  29 H :    0.035056    0.001083
Sum of atomic charges       :    0.0000000

LOEWDIN ATOMIC CHARGES AND SPIN DENSITIES
-----------------------------------------
   0 O :    0.093332   -0.038934
   1 O :    0.090790    0.033544
   2 O :    0.095797   -0.001434
   3 O :    0.103130    0.000859
   4 N :    0.258190   -0.000430
   5 N :    0.266033    0.001539
   6 N :    0.321816   -0.006075
   7 N :    0.324621    0.002737
   8 C :    0.020853   -0.112670
   9 C :   -0.037392    0.131039
  10 C :   -0.025707   -0.003269
  11 C :   -0.076552    0.004430
  12 C :    0.178756   -0.020123
  13 C :    0.193506    0.018939
  14 C :   -0.420941   -0.025917
  15 C :   -0.405293    0.016333
  16 C :   -0.501539   -0.000196
  17 C :   -0.493621   -0.000121
  18 H :    0.032212   -0.000729
  19 H :    0.043895   -0.000325
  20 H :    0.003143    0.000119
  21 H :   -0.011584   -0.005986
  22 H :    0.011318   -0.003835
  23 H :    0.016916    0.006248
  24 H :   -0.016734    0.004706
  25 H :    0.000321   -0.000313
  26 H :   -0.034471   -0.000083
  27 H :   -0.021508    0.000182
  28 H :   -0.004519   -0.000473
  29 H :   -0.004770    0.000238

  Mayer bond orders larger than 0.100000
B(  0-O , 14-C ) :   1.3354 B(  1-O , 15-C ) :   1.3973 B(  2-O , 16-C ) :   1.5100
B(  3-O , 17-C ) :   1.5431 B(  4-N ,  5-N ) :   0.1228 B(  4-N ,  8-C ) :   0.2108
B(  4-N , 10-C ) :   0.3484 B(  4-N , 16-C ) :   1.0305 B(  4-N , 26-H ) :   1.1013
B(  5-N ,  9-C ) :   0.3344 B(  5-N , 11-C ) :   0.1345 B(  5-N , 17-C ) :   1.1401
B(  5-N , 27-H ) :   1.0702 B(  6-N ,  8-C ) :  -0.1239 B(  6-N , 10-C ) :   0.1147
B(  6-N , 14-C ) :   1.0675 B(  6-N , 16-C ) :   0.9692 B(  6-N , 28-H ) :   1.0854
B(  7-N ,  9-C ) :  -0.1000 B(  7-N , 11-C ) :   0.1366 B(  7-N , 15-C ) :   1.0040
B(  7-N , 17-C ) :   0.9526 B(  7-N , 29-H ) :   1.0879 B(  8-C ,  9-C ) :   0.1149
B(  8-C , 10-C ) :   0.2217 B(  8-C , 12-C ) :   0.5293 B(  8-C , 14-C ) :   0.6451
B(  8-C , 18-H ) :  -0.1235 B(  8-C , 20-H ) :  -0.1046 B(  9-C , 10-C ) :   0.2035
B(  9-C , 11-C ) :   0.2663 B(  9-C , 13-C ) :   0.5794 B(  9-C , 15-C ) :   0.8216
B( 10-C , 11-C ) :   0.6217 B( 10-C , 18-H ) :   0.6830 B( 11-C , 15-C ) :  -0.2288
B( 11-C , 17-C ) :  -0.1936 B( 11-C , 19-H ) :   0.8206 B( 12-C , 20-H ) :   0.9947
B( 12-C , 21-H ) :   0.8885 B( 12-C , 22-H ) :   0.9663 B( 13-C , 23-H ) :   0.9359
B( 13-C , 24-H ) :   0.8544 B( 13-C , 25-H ) :   1.0027

Dispersion correction           -0.058266558
FINAL SINGLE POINT ENERGY      -908.790772243286

DIPOLE MOMENT
-------------

Method             : TDA/CIS
Type of density    : Electron Density
Level              : Relaxed density
State              :   2
Multiplicity       :   3
Irrep              :   0
Energy             :     0.0000000000000000 Eh
Relativity type    :
Basis              : AO
                                X                 Y                 Z
Electronic contribution:     -2.689548879     -10.280586375      -7.281887593
Nuclear contribution   :      2.429411015      11.927004132      10.195195313
                        -----------------------------------------
Total Dipole Moment    :     -0.260137864       1.646417756       2.913307720
                        -----------------------------------------
Magnitude (a.u.)       :      3.356445294
Magnitude (Debye)      :      8.531405935

Rotational constants in cm-1:             0.018888             0.015247             0.012221
Rotational constants in MHz :           566.262194           457.084027           366.385728

                             ****ORCA TERMINATED NORMALLY****
TOTAL RUN TIME: 0 days 0 hours 5 minutes 21 seconds 419 msec
