                         Program Version 6.0.0  -   RELEASE  -
|  1> ! Engrad def2-TZVPPD wB97M-D3BJ
|  2> %pal nprocs 8 end%pal nprocs 64 end
|  3> %tddft
|  4>  Iroot 1 Nroots 3
|  5> sf true
|  6> end
|  7> *xyz 0 3
|  8> O   1.33314267 0.10777025 -0.83695536
|  9> C   0.69778886 0.07035611 0.38600973
| 10> C   -0.86579505 -0.00309003 0.69520551
| 11> H   1.02317595 0.88235733 1.14838515
| 12> H   1.25699909 -0.66157181 0.87547783
| 13> H   -1.62876682 -0.63478245 0.11473243
| 14> H   -1.11123245 0.58653104 1.50724043
| 15> *
| 16>
| 17>                          ****END OF INPUT****

CARTESIAN COORDINATES (ANGSTROEM)
---------------------------------
  O      1.333143    0.107770   -0.836955
  C      0.697789    0.070356    0.386010
  C     -0.865795   -0.003090    0.695206
  H      1.023176    0.882357    1.148385
  H      1.256999   -0.661572    0.875478
  H     -1.628767   -0.634782    0.114732
  H     -1.111232    0.586531    1.507240

 Total Charge           Charge          ....    0
 Multiplicity           Mult            ....    3
 Number of Electrons    NEL             ....   24
 Basis Dimension        Dim             ....  182

ORBITAL ENERGIES
----------------
                 SPIN UP ORBITALS
  NO   OCC          E(Eh)            E(eV)
   0   1.0000     -19.395067      -527.7666
   1   1.0000     -10.423148      -283.6283
   2   1.0000     -10.383332      -282.5448
   3   1.0000      -1.164431       -31.6858
   4   1.0000      -0.869164       -23.6512
   5   1.0000      -0.745004       -20.2726
   6   1.0000      -0.599994       -16.3267
   7   1.0000      -0.584234       -15.8978
   8   1.0000      -0.545784       -14.8515
   9   1.0000      -0.525289       -14.2938
  10   1.0000      -0.437193       -11.8966
  11   1.0000      -0.408837       -11.1250
  12   1.0000      -0.330242        -8.9863
  13   0.0000       0.038553         1.0491
  14   0.0000       0.057818         1.5733
  15   0.0000       0.078815         2.1447
  16   0.0000       0.087512         2.3813
  17   0.0000       0.108318         2.9475

                 SPIN DOWN ORBITALS
  NO   OCC          E(Eh)            E(eV)
   0   1.0000     -19.371934      -527.1371
   1   1.0000     -10.424367      -283.6614
   2   1.0000     -10.369957      -282.1809
   3   1.0000      -1.111949       -30.2577
   4   1.0000      -0.837834       -22.7986
   5   1.0000      -0.714394       -19.4396
   6   1.0000      -0.571374       -15.5479
   7   1.0000      -0.545406       -14.8413
   8   1.0000      -0.523717       -14.2511
   9   1.0000      -0.496558       -13.5120
  10   1.0000      -0.382935       -10.4202
  11   0.0000      -0.055225        -1.5027
  12   0.0000      -0.003877        -0.1055
  13   0.0000       0.037600         1.0231
  14   0.0000       0.058082         1.5805
  15   0.0000       0.079194         2.1550

----------------------------------------------------------------------------------------------------
          SPIN FLIP ABSORPTION SPECTRUM VIA TRANSITION ELECTRIC DIPOLE MOMENTS
----------------------------------------------------------------------------------------------------
     Transition      Energy     Energy  Wavelength fosc(D2)      D2        DX        DY        DZ
                      (eV)      (cm-1)    (nm)                 (au**2)    (au)      (au)      (au)
----------------------------------------------------------------------------------------------------
  1-3A  ->  2-3A    0.414856    3346.0  2988.6   0.000614274   0.06044  -0.17758   0.05373   0.16130
  1-3A  ->  3-3A    0.713361    5753.6  1738.0   0.004668499   0.26712   0.36791   0.01959  -0.36247

Dispersion correction             ... done (  0.1 sec)

MULLIKEN ATOMIC CHARGES AND SPIN DENSITIES
------------------------------------------
   0 O :   -0.395851    0.653802
   1 C :   -0.013909    0.106821
   2 C :   -0.299663   -0.730364
   3 H :    0.187027    0.026299
   4 H :    0.192286    0.010155
   5 H :    0.156383   -0.049609
   6 H :    0.173726   -0.017106
Sum of atomic charges       :    0.0000000

LOEWDIN ATOMIC CHARGES AND SPIN DENSITIES
-----------------------------------------
   0 O :    0.002035    0.608699
   1 C :   -0.230780    0.000762
   2 C :    0.344041   -0.521713
   3 H :    0.067292    0.027318
   4 H :   -0.023537    0.022873
   5 H :   -0.022508   -0.056289
   6 H :   -0.136544   -0.081650

  Mayer bond orders larger than 0.100000
B(  0-O ,  1-C ) :   1.0205 B(  0-O ,  2-C ) :   0.1767 B(  1-C ,  2-C ) :   0.8814
B(  1-C ,  3-H ) :   0.9313 B(  1-C ,  4-H ) :   0.9173 B(  2-C ,  5-H ) :   1.0329
B(  2-C ,  6-H ) :   1.0278

Dispersion correction           -0.005322050
FINAL SINGLE POINT ENERGY      -153.731861728175

DIPOLE MOMENT
-------------

Method             : TDA/CIS
Type of density    : Electron Density
Level              : Relaxed density
State              :   1
Multiplicity       :   3
Irrep              :   0
Energy             :     0.0000000000000000 Eh
Relativity type    :
Basis              : AO
                                X                 Y                 Z
Electronic contribution:      1.579682308       0.041192633      -2.165993936
Nuclear contribution   :     -2.023555547      -0.067966333       3.128314619
                        -----------------------------------------
Total Dipole Moment    :     -0.443873239      -0.026773700       0.962320684
                        -----------------------------------------
Magnitude (a.u.)       :      1.060094987
Magnitude (Debye)      :      2.694547317

Rotational constants in cm-1:             1.741996             0.286209             0.259164
Rotational constants in MHz :         52223.721331          8580.323339          7769.543809

                             ****ORCA TERMINATED NORMALLY****
TOTAL RUN TIME: 0 days 0 hours 0 minutes 27 seconds 321 msec
