                         Program Version 6.0.0  -   RELEASE  -
|  1> ! Engrad def2-TZVPPD wB97M-D3BJ
|  2> %pal nprocs 8 end%pal nprocs 64 end
|  3> %tddft Nroots 2 Iroot 1
|  4> sf true
|  5> end
|  6> *xyz 0 3
|  7> O   2.86446701 1.06992513 -0.72218645
|  8> O   -0.41877177 0.84012794 -2.04806362
|  9> O   0.52551594 -2.75913624 -1.47142175
| 10> O   -2.61195068 -1.74544267 0.96742244
| 11> N   0.71704312 -2.00547757 0.66143227
| 12> N   -2.46913934 0.49970777 1.33541357
| 13> N   1.82686129 -0.93711727 -1.04883707
| 14> N   -1.61203042 -0.41005217 -0.59153278
| 15> C   1.78253597 0.10013699 1.11761529
| 16> C   -1.11219238 1.8866403 -0.02729627
| 17> C   1.03009542 -1.00553946 1.54031155
| 18> C   -1.89959434 1.71189287 1.0385214
| 19> C   2.13437446 1.20780067 2.04363994
| 20> C   -0.41389355 3.15907684 -0.37773912
| 21> C   2.20818601 0.16057177 -0.23884251
| 22> C   -0.99662017 0.77244998 -0.98521668
| 23> C   0.98498809 -1.96007144 -0.68690544
| 24> C   -2.25826806 -0.65074335 0.59586386
| 25> H   0.68705295 -1.10629866 2.54588304
| 26> H   -2.06906845 2.4996463 1.74439345
| 27> H   1.70481912 2.14017804 1.68002614
| 28> H   1.78277001 1.0174777 3.05516284
| 29> H   3.22332762 1.31089354 2.08245237
| 30> H   -0.76278392 3.5530872 -1.32143531
| 31> H   -0.57079519 3.90182647 0.39057216
| 32> H   0.66209293 2.97892028 -0.46883442
| 33> H   0.03836987 -2.69722112 0.95087488
| 34> H   -2.9520257 0.33810731 2.18782512
| 35> H   1.98957401 -0.84081 -2.04562737
| 36> H   -1.46795282 -1.21440011 -1.19141644
| 37> *
| 38>
| 39>                          ****END OF INPUT****

CARTESIAN COORDINATES (ANGSTROEM)
---------------------------------
  O      2.864467    1.069925   -0.722186
  O     -0.418772    0.840128   -2.048064
  O      0.525516   -2.759136   -1.471422
  O     -2.611951   -1.745443    0.967422
  N      0.717043   -2.005478    0.661432
  N     -2.469139    0.499708    1.335414
  N      1.826861   -0.937117   -1.048837
  N     -1.612030   -0.410052   -0.591533
  C      1.782536    0.100137    1.117615
  C     -1.112192    1.886640   -0.027296
  C      1.030095   -1.005539    1.540312
  C     -1.899594    1.711893    1.038521
  C      2.134374    1.207801    2.043640
  C     -0.413894    3.159077   -0.377739
  C      2.208186    0.160572   -0.238843
  C     -0.996620    0.772450   -0.985217
  C      0.984988   -1.960071   -0.686905
  C     -2.258268   -0.650743    0.595864
  H      0.687053   -1.106299    2.545883
  H     -2.069068    2.499646    1.744393
  H      1.704819    2.140178    1.680026
  H      1.782770    1.017478    3.055163
  H      3.223328    1.310894    2.082452
  H     -0.762784    3.553087   -1.321435
  H     -0.570795    3.901826    0.390572
  H      0.662093    2.978920   -0.468834
  H      0.038370   -2.697221    0.950875
  H     -2.952026    0.338107    2.187825
  H      1.989574   -0.840810   -2.045627
  H     -1.467953   -1.214400   -1.191416

 Total Charge           Charge          ....    0
 Multiplicity           Mult            ....    3
 Number of Electrons    NEL             ....  132
 Basis Dimension        Dim             ....  882

ORBITAL ENERGIES
----------------
                 SPIN UP ORBITALS
  NO   OCC          E(Eh)            E(eV)
   0   1.0000     -19.330143      -525.9999
   1   1.0000     -19.326997      -525.9143
   2   1.0000     -19.322168      -525.7829
   3   1.0000     -19.320775      -525.7450
   4   1.0000     -14.587278      -396.9400
   5   1.0000     -14.582049      -396.7977
   6   1.0000     -14.569991      -396.4696
   7   1.0000     -14.545659      -395.8075
   8   1.0000     -10.514805      -286.1224
   9   1.0000     -10.504699      -285.8474
  10   1.0000     -10.478242      -285.1275
  11   1.0000     -10.455569      -284.5105
  12   1.0000     -10.431960      -283.8681
  13   1.0000     -10.409129      -283.2468
  14   1.0000     -10.399312      -282.9797
  15   1.0000     -10.380848      -282.4772
  16   1.0000     -10.369378      -282.1651
  17   1.0000     -10.353389      -281.7300
  18   1.0000      -1.229424       -33.4543
  19   1.0000      -1.221623       -33.2420
  20   1.0000      -1.193808       -32.4852
  21   1.0000      -1.185118       -32.2487
  22   1.0000      -1.124649       -30.6033
  23   1.0000      -1.120455       -30.4891
  24   1.0000      -1.071741       -29.1635
  25   1.0000      -1.053746       -28.6739
  26   1.0000      -0.968429       -26.3523
  27   1.0000      -0.956755       -26.0346
  28   1.0000      -0.853713       -23.2307
  29   1.0000      -0.849366       -23.1124
  30   1.0000      -0.812728       -22.1155
  31   1.0000      -0.809826       -22.0365
  32   1.0000      -0.795948       -21.6589
  33   1.0000      -0.780486       -21.2381
  34   1.0000      -0.698209       -18.9992
  35   1.0000      -0.691398       -18.8139
  36   1.0000      -0.690512       -18.7898
  37   1.0000      -0.689524       -18.7629
  38   1.0000      -0.645772       -17.5723
  39   1.0000      -0.634555       -17.2671
  40   1.0000      -0.626549       -17.0493
  41   1.0000      -0.603335       -16.4176
  42   1.0000      -0.597423       -16.2567
  43   1.0000      -0.591198       -16.0873
  44   1.0000      -0.572944       -15.5906
  45   1.0000      -0.569586       -15.4992
  46   1.0000      -0.565314       -15.3830
  47   1.0000      -0.551668       -15.0117
  48   1.0000      -0.549831       -14.9617
  49   1.0000      -0.547721       -14.9042
  50   1.0000      -0.527982       -14.3671
  51   1.0000      -0.526060       -14.3148
  52   1.0000      -0.518214       -14.1013
  53   1.0000      -0.516301       -14.0493
  54   1.0000      -0.506600       -13.7853
  55   1.0000      -0.499904       -13.6031
  56   1.0000      -0.490484       -13.3467
  57   1.0000      -0.480779       -13.0827
  58   1.0000      -0.421873       -11.4798
  59   1.0000      -0.418310       -11.3828
  60   1.0000      -0.406876       -11.0717
  61   1.0000      -0.397743       -10.8231
  62   1.0000      -0.386916       -10.5285
  63   1.0000      -0.384962       -10.4753
  64   1.0000      -0.380612       -10.3570
  65   1.0000      -0.346766        -9.4360
  66   1.0000      -0.220251        -5.9933
  67   0.0000       0.012123         0.3299
  68   0.0000       0.021957         0.5975
  69   0.0000       0.033171         0.9026
  70   0.0000       0.037300         1.0150
  71   0.0000       0.044939         1.2228

                 SPIN DOWN ORBITALS
  NO   OCC          E(Eh)            E(eV)
   0   1.0000     -19.330130      -525.9996
   1   1.0000     -19.325164      -525.8644
   2   1.0000     -19.322191      -525.7836
   3   1.0000     -19.313738      -525.5535
   4   1.0000     -14.582377      -396.8067
   5   1.0000     -14.581928      -396.7944
   6   1.0000     -14.570008      -396.4701
   7   1.0000     -14.544755      -395.7829
   8   1.0000     -10.514808      -286.1225
   9   1.0000     -10.505003      -285.8557
  10   1.0000     -10.478231      -285.1272
  11   1.0000     -10.455548      -284.5099
  12   1.0000     -10.431836      -283.8647
  13   1.0000     -10.399651      -282.9889
  14   1.0000     -10.388961      -282.6980
  15   1.0000     -10.380856      -282.4775
  16   1.0000     -10.369831      -282.1775
  17   1.0000     -10.353381      -281.7298
  18   1.0000      -1.229209       -33.4485
  19   1.0000      -1.217553       -33.1313
  20   1.0000      -1.193784       -32.4845
  21   1.0000      -1.174645       -31.9637
  22   1.0000      -1.124504       -30.5993
  23   1.0000      -1.109748       -30.1978
  24   1.0000      -1.071677       -29.1618
  25   1.0000      -1.048390       -28.5281
  26   1.0000      -0.957005       -26.0414
  27   1.0000      -0.945561       -25.7300
  28   1.0000      -0.849293       -23.1104
  29   1.0000      -0.841653       -22.9025
  30   1.0000      -0.809782       -22.0353
  31   1.0000      -0.800531       -21.7836
  32   1.0000      -0.795622       -21.6500
  33   1.0000      -0.773889       -21.0586
  34   1.0000      -0.698048       -18.9948
  35   1.0000      -0.691062       -18.8048
  36   1.0000      -0.683398       -18.5962
  37   1.0000      -0.677836       -18.4449
  38   1.0000      -0.644727       -17.5439
  39   1.0000      -0.627351       -17.0711
  40   1.0000      -0.620061       -16.8727
  41   1.0000      -0.597428       -16.2568
  42   1.0000      -0.590680       -16.0732
  43   1.0000      -0.582534       -15.8516
  44   1.0000      -0.569477       -15.4963
  45   1.0000      -0.560194       -15.2437
  46   1.0000      -0.557726       -15.1765
  47   1.0000      -0.550440       -14.9782
  48   1.0000      -0.542346       -14.7580
  49   1.0000      -0.542034       -14.7495
  50   1.0000      -0.520729       -14.1698
  51   1.0000      -0.519527       -14.1371
  52   1.0000      -0.516988       -14.0680
  53   1.0000      -0.502082       -13.6624
  54   1.0000      -0.500121       -13.6090
  55   1.0000      -0.496267       -13.5041
  56   1.0000      -0.480105       -13.0643
  57   1.0000      -0.445403       -12.1200
  58   1.0000      -0.421276       -11.4635
  59   1.0000      -0.412854       -11.2343
  60   1.0000      -0.403502       -10.9799
  61   1.0000      -0.387484       -10.5440
  62   1.0000      -0.377122       -10.2620
  63   1.0000      -0.374115       -10.1802
  64   1.0000      -0.346694        -9.4340
  65   0.0000      -0.098849        -2.6898
  66   0.0000       0.011091         0.3018
  67   0.0000       0.022271         0.6060
  68   0.0000       0.030056         0.8179
  69   0.0000       0.036225         0.9857

----------------------------------------------------------------------------------------------------
          SPIN FLIP ABSORPTION SPECTRUM VIA TRANSITION ELECTRIC DIPOLE MOMENTS
----------------------------------------------------------------------------------------------------
     Transition      Energy     Energy  Wavelength fosc(D2)      D2        DX        DY        DZ
                      (eV)      (cm-1)    (nm)                 (au**2)    (au)      (au)      (au)
----------------------------------------------------------------------------------------------------
  1-3A  ->  2-3A    3.716526   29975.8   333.6   0.001253989   0.01377   0.05814   0.06035  -0.08215

Dispersion correction             ... done (  0.1 sec)

MULLIKEN ATOMIC CHARGES AND SPIN DENSITIES
------------------------------------------
   0 O :   -0.692814    0.035662
   1 O :   -0.651593    0.000621
   2 O :   -0.640936    0.008299
   3 O :   -0.655857    0.000481
   4 N :   -0.030995    0.045934
   5 N :   -0.044582    0.002909
   6 N :    0.016055   -0.000507
   7 N :   -0.000342   -0.001800
   8 C :    1.097855    0.531470
   9 C :    0.493711    0.008623
  10 C :   -0.213782   -0.380630
  11 C :    0.067378   -0.006044
  12 C :   -1.344594   -0.055463
  13 C :   -1.394047    0.005293
  14 C :    0.208277   -0.272973
  15 C :    0.640673   -0.007722
  16 C :    0.383742    0.020008
  17 C :    0.451320   -0.002069
  18 H :    0.185530    0.034816
  19 H :    0.143487   -0.001261
  20 H :    0.222328    0.019315
  21 H :    0.335875    0.013085
  22 H :    0.327906    0.002978
  23 H :    0.353050    0.000269
  24 H :    0.327675    0.000805
  25 H :    0.212494   -0.004231
  26 H :    0.080334    0.001566
  27 H :    0.004040   -0.000138
  28 H :    0.049340    0.003077
  29 H :    0.068473   -0.002373
Sum of atomic charges       :    0.0000000

LOEWDIN ATOMIC CHARGES AND SPIN DENSITIES
-----------------------------------------
   0 O :    0.074232    0.029305
   1 O :    0.101973    0.000331
   2 O :    0.086241    0.006724
   3 O :    0.080537   -0.000069
   4 N :    0.277229    0.019214
   5 N :    0.283374    0.000130
   6 N :    0.339426   -0.001367
   7 N :    0.339638   -0.000294
   8 C :   -0.132885   -0.027709
   9 C :   -0.129455   -0.000397
  10 C :    0.102231   -0.029043
  11 C :    0.057804   -0.001449
  12 C :    0.167056   -0.003529
  13 C :    0.181547    0.000160
  14 C :   -0.420787    0.008353
  15 C :   -0.389038    0.000094
  16 C :   -0.497280    0.000534
  17 C :   -0.479935   -0.000349
  18 H :    0.024720   -0.002338
  19 H :    0.029910   -0.000065
  20 H :   -0.011901   -0.000232
  21 H :   -0.007695    0.000263
  22 H :    0.007317   -0.000224
  23 H :   -0.003168    0.000008
  24 H :   -0.011836    0.000012
  25 H :   -0.004726    0.000078
  26 H :   -0.013748    0.001791
  27 H :   -0.036201    0.000011
  28 H :    0.000928    0.000069
  29 H :   -0.015508   -0.000013

  Mayer bond orders larger than 0.100000
B(  0-O , 14-C ) :   1.4203 B(  1-O , 15-C ) :   1.4360 B(  2-O , 16-C ) :   1.5747
B(  3-O , 17-C ) :   1.5549 B(  4-N , 10-C ) :   0.9394 B(  4-N , 16-C ) :   0.9457
B(  4-N , 26-H ) :   1.1092 B(  5-N , 11-C ) :   0.9657 B(  5-N , 17-C ) :   1.0361
B(  5-N , 27-H ) :   1.1487 B(  6-N , 14-C ) :   0.9448 B(  6-N , 16-C ) :   0.9694
B(  6-N , 28-H ) :   1.0825 B(  7-N , 15-C ) :   0.9664 B(  7-N , 17-C ) :   0.9632
B(  7-N , 29-H ) :   1.1015 B(  8-C , 10-C ) :   1.0726 B(  8-C , 12-C ) :   0.3361
B(  8-C , 14-C ) :   0.7047 B(  9-C , 11-C ) :   1.2650 B(  9-C , 13-C ) :   0.3449
B(  9-C , 15-C ) :   0.8501 B(  9-C , 25-H ) :  -0.1178 B( 10-C , 16-C ) :  -0.1045
B( 10-C , 18-H ) :   1.0993 B( 11-C , 13-C ) :  -0.1508 B( 11-C , 19-H ) :   1.0969
B( 12-C , 20-H ) :   1.0192 B( 12-C , 21-H ) :   0.9752 B( 12-C , 22-H ) :   0.9296
B( 13-C , 23-H ) :   0.9176 B( 13-C , 24-H ) :   1.0223 B( 13-C , 25-H ) :   1.0190

Dispersion correction           -0.056741392
FINAL SINGLE POINT ENERGY      -908.919483479680

DIPOLE MOMENT
-------------

Method             : TDA/CIS
Type of density    : Electron Density
Level              : Relaxed density
State              :   1
Multiplicity       :   3
Irrep              :   0
Energy             :     0.0000000000000000 Eh
Relativity type    :
Basis              : AO
                                X                 Y                 Z
Electronic contribution:     -2.917964274     -10.497214567      -5.910852864
Nuclear contribution   :      1.940990734      11.310753269       8.493714102
                        -----------------------------------------
Total Dipole Moment    :     -0.976973541       0.813538702       2.582861238
                        -----------------------------------------
Magnitude (a.u.)       :      2.878800912
Magnitude (Debye)      :      7.317330401

Rotational constants in cm-1:             0.017708             0.015044             0.011992
Rotational constants in MHz :           530.870408           450.993077           359.510786

                             ****ORCA TERMINATED NORMALLY****
TOTAL RUN TIME: 0 days 0 hours 5 minutes 1 seconds 900 msec
