                         Program Version 6.0.0  -   RELEASE  -
|  1> ! Engrad wB97M-D3BJ def2-TZVPPD
|  2> %pal nprocs 8 end%pal nprocs 16 end
|  3> %tddft nroots 2 Iroot 2
|  4>  sf true
|  5> end
|  6> *xyz 0 3
|  7> O   0.89168756069482 1.01262791574738 0.00011968156309
|  8> C   0.78191453490484 -0.32321474207383 -0.00013151668085
|  9> C   -0.63811012377694 -0.60091121637882 3.315370361e-05
| 10> H   1.25667012128189 -0.78944147073652 0.87867960570654
| 11> H   1.25667772743952 -0.78892347577534 -0.87916508407119
| 12> H   -1.20374565924993 -0.53556540285494 -0.9215350557237
| 13> H   -1.20290392941524 -0.5337455508537 0.9219992155025
| 14> *
| 15>
| 16>                          ****END OF INPUT****

CARTESIAN COORDINATES (ANGSTROEM)
---------------------------------
  O      0.891688    1.012628    0.000120
  C      0.781915   -0.323215   -0.000132
  C     -0.638110   -0.600911    0.000033
  H      1.256670   -0.789441    0.878680
  H      1.256678   -0.788923   -0.879165
  H     -1.203746   -0.535565   -0.921535
  H     -1.202904   -0.533746    0.921999

 Total Charge           Charge          ....    0
 Multiplicity           Mult            ....    3
 Number of Electrons    NEL             ....   24
 Basis Dimension        Dim             ....  182

ORBITAL ENERGIES
----------------
                 SPIN UP ORBITALS
  NO   OCC          E(Eh)            E(eV)
   0   1.0000     -19.393226      -527.7165
   1   1.0000     -10.407630      -283.2060
   2   1.0000     -10.354982      -281.7734
   3   1.0000      -1.188246       -32.3338
   4   1.0000      -0.877541       -23.8791
   5   1.0000      -0.734297       -19.9812
   6   1.0000      -0.632273       -17.2050
   7   1.0000      -0.590288       -16.0626
   8   1.0000      -0.557181       -15.1617
   9   1.0000      -0.517106       -14.0712
  10   1.0000      -0.436096       -11.8668
  11   1.0000      -0.419798       -11.4233
  12   1.0000      -0.318892        -8.6775
  13   0.0000       0.041046         1.1169
  14   0.0000       0.063113         1.7174
  15   0.0000       0.074078         2.0158
  16   0.0000       0.087300         2.3756
  17   0.0000       0.116922         3.1816

                 SPIN DOWN ORBITALS
  NO   OCC          E(Eh)            E(eV)
   0   1.0000     -19.367953      -527.0288
   1   1.0000     -10.408970      -283.2425
   2   1.0000     -10.342107      -281.4230
   3   1.0000      -1.132776       -30.8244
   4   1.0000      -0.844018       -22.9669
   5   1.0000      -0.709956       -19.3189
   6   1.0000      -0.594338       -16.1727
   7   1.0000      -0.558274       -15.1914
   8   1.0000      -0.535159       -14.5624
   9   1.0000      -0.478753       -13.0275
  10   1.0000      -0.383153       -10.4261
  11   0.0000      -0.063396        -1.7251
  12   0.0000       0.004519         0.1230
  13   0.0000       0.039995         1.0883
  14   0.0000       0.063725         1.7341
  15   0.0000       0.073710         2.0058

----------------------------------------------------------------------------------------------------
          SPIN FLIP ABSORPTION SPECTRUM VIA TRANSITION ELECTRIC DIPOLE MOMENTS
----------------------------------------------------------------------------------------------------
     Transition      Energy     Energy  Wavelength fosc(D2)      D2        DX        DY        DZ
                      (eV)      (cm-1)    (nm)                 (au**2)    (au)      (au)      (au)
----------------------------------------------------------------------------------------------------
  1-3A  ->  2-3A    0.773067    6235.2  1603.8   0.000093829   0.00495   0.00006  -0.00004  -0.07039

Dispersion correction             ... done (  0.0 sec)

MULLIKEN ATOMIC CHARGES AND SPIN DENSITIES
------------------------------------------
   0 O :   -0.335466    0.785554
   1 C :    0.108346    0.349472
   2 C :   -0.409634   -0.936581
   3 H :    0.198192    0.015550
   4 H :    0.198305    0.015581
   5 H :    0.120070   -0.114875
   6 H :    0.120187   -0.114701
Sum of atomic charges       :    0.0000000

LOEWDIN ATOMIC CHARGES AND SPIN DENSITIES
-----------------------------------------
   0 O :    0.089438    0.724714
   1 C :   -0.302622    0.025913
   2 C :    0.266090   -0.637246
   3 H :    0.039111    0.029561
   4 H :    0.039051    0.029546
   5 H :   -0.065550   -0.086269
   6 H :   -0.065518   -0.086219

  Mayer bond orders larger than 0.100000
B(  0-O ,  1-C ) :   0.9506 B(  1-C ,  2-C ) :   0.5972 B(  1-C ,  3-H ) :   0.9627
B(  1-C ,  4-H ) :   0.9630 B(  2-C ,  5-H ) :   1.1241 B(  2-C ,  6-H ) :   1.1239

Dispersion correction           -0.005619719
FINAL SINGLE POINT ENERGY      -153.744462769983

DIPOLE MOMENT
-------------

Method             : TDA/CIS
Type of density    : Electron Density
Level              : Relaxed density
State              :   2
Multiplicity       :   3
Irrep              :   0
Energy             :     0.0000000000000000 Eh
Relativity type    :
Basis              : AO
                                X                 Y                 Z
Electronic contribution:      1.346853446       2.183539228      -0.000057576
Nuclear contribution   :     -1.263689512      -2.677042967      -0.000079110
                        -----------------------------------------
Total Dipole Moment    :      0.083163935      -0.493503739      -0.000136686
                        -----------------------------------------
Magnitude (a.u.)       :      0.500461986
Magnitude (Debye)      :      1.272073274

Rotational constants in cm-1:             1.271268             0.399961             0.344961
Rotational constants in MHz :         38111.645851         11990.514672         10341.677983

                             ****ORCA TERMINATED NORMALLY****
TOTAL RUN TIME: 0 days 0 hours 0 minutes 16 seconds 255 msec
