                         Program Version 6.0.0  -   RELEASE  -
|  1> ! Engrad wB97M-D3BJ def2-TZVPPD
|  2> %pal nprocs 8 end%pal nprocs 16 end
|  3> %tddft nroots 2 Iroot 2
|  4>  sf true
|  5> end
|  6> *xyz 0 3
|  7> O   1.68980018673932 0.92651620460589 0.03453870748625
|  8> C   0.97269106430694 -0.01975908023354 0.20126745722167
|  9> C   -0.30213799702798 -0.6701195482967 -0.25155575370317
| 10> H   1.35569976754475 -0.72332365775621 0.98961403560017
| 11> H   -0.02717912989727 -1.66968703786582 -0.58468277648387
| 12> H   -0.86198448240563 -0.15544329864305 -1.03043245517306
| 13> H   -0.91552391352969 -0.78171977827174 0.64125078505201
| 14> *
| 15>
| 16>                          ****END OF INPUT****

CARTESIAN COORDINATES (ANGSTROEM)
---------------------------------
  O      1.689800    0.926516    0.034539
  C      0.972691   -0.019759    0.201267
  C     -0.302138   -0.670120   -0.251556
  H      1.355700   -0.723324    0.989614
  H     -0.027179   -1.669687   -0.584683
  H     -0.861984   -0.155443   -1.030432
  H     -0.915524   -0.781720    0.641251

 Total Charge           Charge          ....    0
 Multiplicity           Mult            ....    3
 Number of Electrons    NEL             ....   24
 Basis Dimension        Dim             ....  182

ORBITAL ENERGIES
----------------
                 SPIN UP ORBITALS
  NO   OCC          E(Eh)            E(eV)
   0   1.0000     -19.403441      -527.9945
   1   1.0000     -10.382325      -282.5174
   2   1.0000     -10.373377      -282.2739
   3   1.0000      -1.240118       -33.7453
   4   1.0000      -0.891570       -24.2608
   5   1.0000      -0.714452       -19.4412
   6   1.0000      -0.626244       -17.0410
   7   1.0000      -0.589413       -16.0387
   8   1.0000      -0.579588       -15.7714
   9   1.0000      -0.518531       -14.1099
  10   1.0000      -0.518000       -14.0955
  11   1.0000      -0.418314       -11.3829
  12   1.0000      -0.216324        -5.8865
  13   0.0000       0.036335         0.9887
  14   0.0000       0.059489         1.6188
  15   0.0000       0.077302         2.1035
  16   0.0000       0.087193         2.3726
  17   0.0000       0.105331         2.8662

                 SPIN DOWN ORBITALS
  NO   OCC          E(Eh)            E(eV)
   0   1.0000     -19.376696      -527.2667
   1   1.0000     -10.372050      -282.2378
   2   1.0000     -10.371532      -282.2237
   3   1.0000      -1.185200       -32.2509
   4   1.0000      -0.872564       -23.7437
   5   1.0000      -0.668186       -18.1823
   6   1.0000      -0.584321       -15.9002
   7   1.0000      -0.542768       -14.7695
   8   1.0000      -0.535317       -14.5667
   9   1.0000      -0.496326       -13.5057
  10   1.0000      -0.471048       -12.8179
  11   0.0000      -0.079351        -2.1593
  12   0.0000       0.037788         1.0283
  13   0.0000       0.059158         1.6098
  14   0.0000       0.076791         2.0896
  15   0.0000       0.084978         2.3124

----------------------------------------------------------------------------------------------------
          SPIN FLIP ABSORPTION SPECTRUM VIA TRANSITION ELECTRIC DIPOLE MOMENTS
----------------------------------------------------------------------------------------------------
     Transition      Energy     Energy  Wavelength fosc(D2)      D2        DX        DY        DZ
                      (eV)      (cm-1)    (nm)                 (au**2)    (au)      (au)      (au)
----------------------------------------------------------------------------------------------------
  1-3A  ->  2-3A    4.566015   36827.4   271.5   0.000445403   0.00398   0.03198  -0.03194  -0.04403

Dispersion correction             ... done (  0.0 sec)

MULLIKEN ATOMIC CHARGES AND SPIN DENSITIES
------------------------------------------
   0 O :   -0.284376    0.525482
   1 C :    0.244568   -0.593218
   2 C :   -0.700974    0.113522
   3 H :    0.068078    0.055926
   4 H :    0.213019   -0.053217
   5 H :    0.246379    0.002411
   6 H :    0.213306   -0.050905
Sum of atomic charges       :   -0.0000000

LOEWDIN ATOMIC CHARGES AND SPIN DENSITIES
-----------------------------------------
   0 O :    0.147638    0.344737
   1 C :   -0.255210   -0.323597
   2 C :    0.129947   -0.023661
   3 H :    0.027389    0.041690
   4 H :   -0.022495   -0.025554
   5 H :   -0.004846    0.011864
   6 H :   -0.022423   -0.025479

  Mayer bond orders larger than 0.100000
B(  0-O ,  1-C ) :   1.3246 B(  1-C ,  2-C ) :   0.5780 B(  1-C ,  3-H ) :   0.9750
B(  2-C ,  4-H ) :   1.0166 B(  2-C ,  5-H ) :   0.9292 B(  2-C ,  6-H ) :   1.0168

Dispersion correction           -0.005493709
FINAL SINGLE POINT ENERGY      -153.743330497675

DIPOLE MOMENT
-------------

Method             : TDA/CIS
Type of density    : Electron Density
Level              : Relaxed density
State              :   2
Multiplicity       :   3
Irrep              :   0
Energy             :     0.0000000000000000 Eh
Relativity type    :
Basis              : AO
                                X                 Y                 Z
Electronic contribution:      2.848647290       2.850653818      -0.003160992
Nuclear contribution   :     -3.358421007      -3.382580479       0.018327201
                        -----------------------------------------
Total Dipole Moment    :     -0.509773717      -0.531926661       0.015166208
                        -----------------------------------------
Magnitude (a.u.)       :      0.736916026
Magnitude (Debye)      :      1.873091680

Rotational constants in cm-1:             2.538907             0.299775             0.282047
Rotational constants in MHz :         76114.521059          8987.013429          8455.552960

                             ****ORCA TERMINATED NORMALLY****
TOTAL RUN TIME: 0 days 0 hours 0 minutes 16 seconds 215 msec
