                         Program Version 6.0.0  -   RELEASE  -
|  1> ! Engrad def2-TZVPPD wB97M-D3BJ
|  2> %pal nprocs 8 end%pal nprocs 64 end
|  3>  %tddft nroots 2 Iroot 1
|  4> sf true
|  5> end
|  6> *xyz 0 3
|  7> O   3.65855124204126 0.57032315990593 -0.11754079812611
|  8> O   -1.11852448866609 1.03858650598035 -2.50213596917233
|  9> O   0.86692878326938 -2.82031846974015 -1.25161657744812
| 10> O   -3.57079128717477 -1.19671943882355 0.54813933426323
| 11> N   0.26736936412485 -1.49703341883368 0.48446452427036
| 12> N   -1.99524257404084 0.25158115874247 1.32966295391614
| 13> N   2.25710448730905 -1.12677290495897 -0.6568670894422
| 14> N   -2.11684416459359 -0.28251164046261 -0.94130996037596
| 15> C   1.66467980306029 0.3874934726407 1.12404578416028
| 16> C   -0.6707358667006 1.46930494707095 -0.21218684349313
| 17> C   0.40964770545783 -0.35618906324895 1.34896452398127
| 18> C   -0.61530864081278 0.73046052791686 1.14131609031302
| 19> C   2.06572533245635 1.48499224386058 2.02573624200833
| 20> C   -0.57543177448704 2.93759681988131 -0.24861085471204
| 21> C   2.61314510711426 -0.01795863334223 0.08816884839976
| 22> C   -1.26991474364211 0.7475455110507 -1.33563338254235
| 23> C   1.09938159331155 -1.88039116506438 -0.52615441008178
| 24> C   -2.62912980680738 -0.46493797489558 0.34234808334176
| 25> H   0.34801280023283 -0.6913632658588 2.39450865024934
| 26> H   -0.44692879651178 1.48456687971427 1.90610220043407
| 27> H   3.14956087961938 1.55672854445507 2.05874426088137
| 28> H   1.7085491165541 2.45756355403759 1.66063642734899
| 29> H   1.66117476126688 1.34886147965148 3.02862860692614
| 30> H   -1.41360758315912 3.39182777098651 0.29450390744295
| 31> H   0.33455512192696 3.28679172090591 0.24965364104192
| 32> H   -0.59529426337514 3.29591459283581 -1.27336437333907
| 33> H   -0.54769824133071 -2.07658829611626 0.57779992121959
| 34> H   -2.3650985357252 0.06806496635828 2.24741294344118
| 35> H   2.87000481781174 -1.3921881311301 -1.40980869935725
| 36> H   -2.59124014852961 -0.79023145351956 -1.67100798554939
| 37> *
| 38>
| 39>                          ****END OF INPUT****

CARTESIAN COORDINATES (ANGSTROEM)
---------------------------------
  O      3.658551    0.570323   -0.117541
  O     -1.118524    1.038587   -2.502136
  O      0.866929   -2.820318   -1.251617
  O     -3.570791   -1.196719    0.548139
  N      0.267369   -1.497033    0.484465
  N     -1.995243    0.251581    1.329663
  N      2.257104   -1.126773   -0.656867
  N     -2.116844   -0.282512   -0.941310
  C      1.664680    0.387493    1.124046
  C     -0.670736    1.469305   -0.212187
  C      0.409648   -0.356189    1.348965
  C     -0.615309    0.730461    1.141316
  C      2.065725    1.484992    2.025736
  C     -0.575432    2.937597   -0.248611
  C      2.613145   -0.017959    0.088169
  C     -1.269915    0.747546   -1.335633
  C      1.099382   -1.880391   -0.526154
  C     -2.629130   -0.464938    0.342348
  H      0.348013   -0.691363    2.394509
  H     -0.446929    1.484567    1.906102
  H      3.149561    1.556729    2.058744
  H      1.708549    2.457564    1.660636
  H      1.661175    1.348861    3.028629
  H     -1.413608    3.391828    0.294504
  H      0.334555    3.286792    0.249654
  H     -0.595294    3.295915   -1.273364
  H     -0.547698   -2.076588    0.577800
  H     -2.365099    0.068065    2.247413
  H      2.870005   -1.392188   -1.409809
  H     -2.591240   -0.790231   -1.671008

 Total Charge           Charge          ....    0
 Multiplicity           Mult            ....    3
 Number of Electrons    NEL             ....  132
 Basis Dimension        Dim             ....  882

ORBITAL ENERGIES
----------------
                 SPIN UP ORBITALS
  NO   OCC          E(Eh)            E(eV)
   0   1.0000     -19.336351      -526.1689
   1   1.0000     -19.331800      -526.0450
   2   1.0000     -19.325117      -525.8632
   3   1.0000     -19.315754      -525.6084
   4   1.0000     -14.564945      -396.3323
   5   1.0000     -14.562971      -396.2786
   6   1.0000     -14.562372      -396.2623
   7   1.0000     -14.559526      -396.1849
   8   1.0000     -10.508734      -285.9572
   9   1.0000     -10.504236      -285.8348
  10   1.0000     -10.483225      -285.2631
  11   1.0000     -10.481495      -285.2160
  12   1.0000     -10.446668      -284.2683
  13   1.0000     -10.444238      -284.2022
  14   1.0000     -10.419684      -283.5340
  15   1.0000     -10.418516      -283.5022
  16   1.0000     -10.378548      -282.4146
  17   1.0000     -10.376436      -282.3572
  18   1.0000      -1.223687       -33.2982
  19   1.0000      -1.218129       -33.1470
  20   1.0000      -1.200739       -32.6738
  21   1.0000      -1.195906       -32.5423
  22   1.0000      -1.122284       -30.5389
  23   1.0000      -1.099010       -29.9056
  24   1.0000      -1.068201       -29.0672
  25   1.0000      -1.058972       -28.8161
  26   1.0000      -0.992342       -27.0030
  27   1.0000      -0.956091       -26.0166
  28   1.0000      -0.897637       -24.4259
  29   1.0000      -0.843242       -22.9458
  30   1.0000      -0.830548       -22.6004
  31   1.0000      -0.802670       -21.8418
  32   1.0000      -0.786931       -21.4135
  33   1.0000      -0.785286       -21.3687
  34   1.0000      -0.706502       -19.2249
  35   1.0000      -0.698255       -19.0005
  36   1.0000      -0.695191       -18.9171
  37   1.0000      -0.678270       -18.4567
  38   1.0000      -0.657383       -17.8883
  39   1.0000      -0.639083       -17.3903
  40   1.0000      -0.626954       -17.0603
  41   1.0000      -0.603383       -16.4189
  42   1.0000      -0.597284       -16.2529
  43   1.0000      -0.589154       -16.0317
  44   1.0000      -0.581075       -15.8119
  45   1.0000      -0.575988       -15.6734
  46   1.0000      -0.567745       -15.4491
  47   1.0000      -0.563625       -15.3370
  48   1.0000      -0.559148       -15.2152
  49   1.0000      -0.557288       -15.1646
  50   1.0000      -0.550749       -14.9866
  51   1.0000      -0.548754       -14.9324
  52   1.0000      -0.534082       -14.5331
  53   1.0000      -0.526384       -14.3236
  54   1.0000      -0.515806       -14.0358
  55   1.0000      -0.511272       -13.9124
  56   1.0000      -0.494549       -13.4574
  57   1.0000      -0.424027       -11.5384
  58   1.0000      -0.422757       -11.5038
  59   1.0000      -0.412180       -11.2160
  60   1.0000      -0.404552       -11.0084
  61   1.0000      -0.401052       -10.9132
  62   1.0000      -0.393790       -10.7156
  63   1.0000      -0.390065       -10.6142
  64   1.0000      -0.382896       -10.4191
  65   1.0000      -0.348988        -9.4964
  66   1.0000      -0.329459        -8.9650
  67   0.0000       0.007241         0.1970
  68   0.0000       0.027850         0.7578
  69   0.0000       0.032605         0.8872
  70   0.0000       0.034810         0.9472
  71   0.0000       0.054189         1.4746

                 SPIN DOWN ORBITALS
  NO   OCC          E(Eh)            E(eV)
   0   1.0000     -19.332701      -526.0695
   1   1.0000     -19.327904      -525.9390
   2   1.0000     -19.324830      -525.8554
   3   1.0000     -19.315744      -525.6081
   4   1.0000     -14.563950      -396.3052
   5   1.0000     -14.562719      -396.2717
   6   1.0000     -14.561618      -396.2418
   7   1.0000     -14.559530      -396.1849
   8   1.0000     -10.508746      -285.9575
   9   1.0000     -10.504284      -285.8361
  10   1.0000     -10.484222      -285.2902
  11   1.0000     -10.482433      -285.2415
  12   1.0000     -10.446105      -284.2530
  13   1.0000     -10.444515      -284.2097
  14   1.0000     -10.407473      -283.2017
  15   1.0000     -10.407023      -283.1895
  16   1.0000     -10.379168      -282.4315
  17   1.0000     -10.377035      -282.3735
  18   1.0000      -1.222037       -33.2533
  19   1.0000      -1.216398       -33.0999
  20   1.0000      -1.196273       -32.5522
  21   1.0000      -1.191637       -32.4261
  22   1.0000      -1.119432       -30.4613
  23   1.0000      -1.096826       -29.8461
  24   1.0000      -1.066332       -29.0164
  25   1.0000      -1.057387       -28.7730
  26   1.0000      -0.980228       -26.6734
  27   1.0000      -0.938899       -25.5488
  28   1.0000      -0.891591       -24.2614
  29   1.0000      -0.837730       -22.7958
  30   1.0000      -0.821619       -22.3574
  31   1.0000      -0.797923       -21.7126
  32   1.0000      -0.785457       -21.3734
  33   1.0000      -0.783445       -21.3186
  34   1.0000      -0.702427       -19.1140
  35   1.0000      -0.690137       -18.7796
  36   1.0000      -0.688352       -18.7310
  37   1.0000      -0.669790       -18.2259
  38   1.0000      -0.646532       -17.5930
  39   1.0000      -0.635483       -17.2924
  40   1.0000      -0.622983       -16.9522
  41   1.0000      -0.598653       -16.2902
  42   1.0000      -0.590329       -16.0637
  43   1.0000      -0.583851       -15.8874
  44   1.0000      -0.574562       -15.6346
  45   1.0000      -0.566583       -15.4175
  46   1.0000      -0.563255       -15.3269
  47   1.0000      -0.561039       -15.2667
  48   1.0000      -0.552768       -15.0416
  49   1.0000      -0.546509       -14.8713
  50   1.0000      -0.544958       -14.8291
  51   1.0000      -0.539004       -14.6670
  52   1.0000      -0.528868       -14.3912
  53   1.0000      -0.516694       -14.0600
  54   1.0000      -0.510108       -13.8807
  55   1.0000      -0.504109       -13.7175
  56   1.0000      -0.488270       -13.2865
  57   1.0000      -0.420089       -11.4312
  58   1.0000      -0.418703       -11.3935
  59   1.0000      -0.406849       -11.0709
  60   1.0000      -0.393752       -10.7145
  61   1.0000      -0.390674       -10.6308
  62   1.0000      -0.389255       -10.5922
  63   1.0000      -0.386125       -10.5070
  64   1.0000      -0.376156       -10.2357
  65   0.0000      -0.065673        -1.7870
  66   0.0000      -0.040658        -1.1064
  67   0.0000       0.006593         0.1794
  68   0.0000       0.027678         0.7532
  69   0.0000       0.032345         0.8801

----------------------------------------------------------------------------------------------------
          SPIN FLIP ABSORPTION SPECTRUM VIA TRANSITION ELECTRIC DIPOLE MOMENTS
----------------------------------------------------------------------------------------------------
     Transition      Energy     Energy  Wavelength fosc(D2)      D2        DX        DY        DZ
                      (eV)      (cm-1)    (nm)                 (au**2)    (au)      (au)      (au)
----------------------------------------------------------------------------------------------------
  1-3A  ->  2-3A    0.156429    1261.7  7925.9   0.000006295   0.00164  -0.00647   0.03479  -0.01975

Dispersion correction             ... done (  0.1 sec)

MULLIKEN ATOMIC CHARGES AND SPIN DENSITIES
------------------------------------------
   0 O :   -0.689869   -0.082621
   1 O :   -0.644806    0.069730
   2 O :   -0.665872   -0.000668
   3 O :   -0.640895    0.002258
   4 N :   -0.189863    0.003919
   5 N :   -0.318390    0.009676
   6 N :   -0.038332   -0.012672
   7 N :    0.069248    0.008637
   8 C :    1.116290    0.527003
   9 C :    0.391853    0.420870
  10 C :   -0.065560   -0.484935
  11 C :    0.456985   -0.024416
  12 C :   -1.488974    0.064204
  13 C :   -1.491974    0.024823
  14 C :    0.003689   -0.587833
  15 C :    0.069824   -0.071906
  16 C :    0.557046    0.049526
  17 C :    0.346990    0.008282
  18 H :    0.384018   -0.038628
  19 H :    0.666928    0.052823
  20 H :    0.376703   -0.005401
  21 H :    0.285075    0.010862
  22 H :    0.358563    0.008696
  23 H :    0.353750    0.017146
  24 H :    0.225711    0.018889
  25 H :    0.381696   -0.001190
  26 H :    0.026194    0.004154
  27 H :    0.098319    0.002358
  28 H :    0.035512    0.006028
  29 H :    0.030139    0.000386
Sum of atomic charges       :   -0.0000000

LOEWDIN ATOMIC CHARGES AND SPIN DENSITIES
-----------------------------------------
   0 O :    0.081583   -0.070374
   1 O :    0.107989    0.061218
   2 O :    0.090007   -0.000488
   3 O :    0.088672    0.002216
   4 N :    0.296790    0.000744
   5 N :    0.289008    0.010090
   6 N :    0.329256   -0.017517
   7 N :    0.323074    0.006388
   8 C :   -0.002609   -0.250125
   9 C :    0.009110    0.293415
  10 C :   -0.148015   -0.031238
  11 C :   -0.128268    0.007982
  12 C :    0.186800   -0.040607
  13 C :    0.189321    0.043905
  14 C :   -0.402443   -0.048086
  15 C :   -0.401974    0.038569
  16 C :   -0.476599   -0.000252
  17 C :   -0.494544    0.000407
  18 H :    0.072008   -0.009320
  19 H :    0.040903   -0.000674
  20 H :    0.006177   -0.003614
  21 H :    0.001415   -0.013620
  22 H :    0.009072   -0.003378
  23 H :    0.019055    0.015807
  24 H :   -0.010703    0.007717
  25 H :    0.002933    0.000260
  26 H :   -0.029167    0.000129
  27 H :   -0.030827    0.001184
  28 H :   -0.009946   -0.001469
  29 H :   -0.008080    0.000730

  Mayer bond orders larger than 0.100000
B(  0-O , 12-C ) :   0.1161 B(  0-O , 14-C ) :   1.2308 B(  1-O , 15-C ) :   1.4403
B(  2-O , 16-C ) :   1.5470 B(  3-O , 17-C ) :   1.5947 B(  4-N , 10-C ) :   0.6081
B(  4-N , 16-C ) :   1.0418 B(  4-N , 26-H ) :   1.1213 B(  5-N ,  9-C ) :   0.2376
B(  5-N , 10-C ) :   0.1691 B(  5-N , 17-C ) :   1.2134 B(  5-N , 27-H ) :   1.0378
B(  6-N , 14-C ) :   1.0007 B(  6-N , 16-C ) :   0.9143 B(  6-N , 28-H ) :   1.1245
B(  7-N , 10-C ) :  -0.1088 B(  7-N , 11-C ) :   0.1081 B(  7-N , 15-C ) :   0.9971
B(  7-N , 17-C ) :   0.9785 B(  7-N , 29-H ) :   1.0959 B(  8-C ,  9-C ) :   0.1250
B(  8-C , 10-C ) :   0.5735 B(  8-C , 11-C ) :   0.2651 B(  8-C , 12-C ) :   0.2180
B(  8-C , 18-H ) :  -0.1903 B(  8-C , 22-H ) :  -0.1574 B(  9-C , 10-C ) :   0.3024
B(  9-C , 11-C ) :   0.2384 B(  9-C , 13-C ) :   0.2699 B(  9-C , 15-C ) :   0.6946
B(  9-C , 24-H ) :  -0.1097 B(  9-C , 25-H ) :  -0.1035 B( 10-C , 11-C ) :   0.6115
B( 10-C , 12-C ) :  -0.3064 B( 10-C , 14-C ) :   0.5297 B( 10-C , 18-H ) :   1.0160
B( 10-C , 19-H ) :  -0.1688 B( 11-C , 12-C ) :   0.2099 B( 11-C , 13-C ) :  -0.1489
B( 11-C , 15-C ) :  -0.1681 B( 11-C , 17-C ) :  -0.1999 B( 11-C , 18-H ) :  -0.1013
B( 11-C , 19-H ) :   0.7000 B( 12-C , 20-H ) :   0.9389 B( 12-C , 21-H ) :   0.8513
B( 12-C , 22-H ) :   1.0536 B( 13-C , 23-H ) :   0.8581 B( 13-C , 24-H ) :   1.1030
B( 13-C , 25-H ) :   0.9293 B( 14-C , 16-C ) :  -0.1274

Dispersion correction           -0.058069151
FINAL SINGLE POINT ENERGY      -908.800808884210

DIPOLE MOMENT
-------------

Method             : TDA/CIS
Type of density    : Electron Density
Level              : Relaxed density
State              :   1
Multiplicity       :   3
Irrep              :   0
Energy             :     0.0000000000000000 Eh
Relativity type    :
Basis              : AO
                                X                 Y                 Z
Electronic contribution:     -1.998237256      -9.854864943      -6.684728561
Nuclear contribution   :      1.862462177      11.293905567       9.168028742
                        -----------------------------------------
Total Dipole Moment    :     -0.135775079       1.439040624       2.483300181
                        -----------------------------------------
Magnitude (a.u.)       :      2.873334749
Magnitude (Debye)      :      7.303436519

Rotational constants in cm-1:             0.020195             0.012910             0.011262
Rotational constants in MHz :           605.425218           387.029537           337.612975

                             ****ORCA TERMINATED NORMALLY****
TOTAL RUN TIME: 0 days 0 hours 4 minutes 27 seconds 945 msec
