                         Program Version 6.0.0  -   RELEASE  -
|  1> ! Engrad def2-TZVPPD wB97M-D3BJ
|  2> %pal nprocs 8 end%pal nprocs 64 end
|  3> %tddft Nroots 2 Iroot 1
|  4> sf true
|  5> end
|  6> *xyz 0 3
|  7> O   2.33771827 1.14112592 -0.55915765
|  8> O   -1.10696487 1.18863376 -2.24371061
|  9> O   1.45472005 -3.06357697 -1.85377175
| 10> O   -2.59883043 -1.28831695 1.30812854
| 11> N   0.89608061 -2.49739593 0.27888443
| 12> N   -1.91168685 0.84666631 1.72874374
| 13> N   2.17183939 -1.07754413 -0.96372661
| 14> N   -1.78557565 -0.02045413 -0.5112095
| 15> C   1.33789131 -0.19628192 1.16066342
| 16> C   -1.07812953 2.22850828 -0.06565557
| 17> C   0.73579075 -1.49360174 1.25126887
| 18> C   -1.47335886 2.08028505 1.30116551
| 19> C   1.31302343 0.72519738 2.28908082
| 20> C   -0.54983591 3.46435162 -0.54179732
| 21> C   2.0002304 0.04791425 -0.1791939
| 22> C   -1.25464843 1.17213347 -1.02981706
| 23> C   1.48745046 -2.26226266 -0.94006328
| 24> C   -2.11486865 -0.2541953 0.84087425
| 25> H   0.0277552 -1.74529808 1.96483848
| 26> H   -1.50182593 2.78883204 2.07104761
| 27> H   1.2614452 0.03199115 3.23430648
| 28> H   2.22736696 1.35100936 2.4182552
| 29> H   0.40947338 1.38238197 2.31579676
| 30> H   -1.31373993 4.05224914 -1.1253552
| 31> H   -0.40572861 4.01953481 0.37063345
| 32> H   0.34614054 3.43101043 -1.12828755
| 33> H   0.41300886 -3.38037846 0.34653953
| 34> H   -2.28295734 0.69247308 2.64395059
| 35> H   2.62497719 -0.93950432 -1.84008628
| 36> H   -1.55794838 -0.84486661 -1.0504596
| 37> *
| 38>
| 39>                          ****END OF INPUT****

CARTESIAN COORDINATES (ANGSTROEM)
---------------------------------
  O      2.337718    1.141126   -0.559158
  O     -1.106965    1.188634   -2.243711
  O      1.454720   -3.063577   -1.853772
  O     -2.598830   -1.288317    1.308129
  N      0.896081   -2.497396    0.278884
  N     -1.911687    0.846666    1.728744
  N      2.171839   -1.077544   -0.963727
  N     -1.785576   -0.020454   -0.511209
  C      1.337891   -0.196282    1.160663
  C     -1.078130    2.228508   -0.065656
  C      0.735791   -1.493602    1.251269
  C     -1.473359    2.080285    1.301166
  C      1.313023    0.725197    2.289081
  C     -0.549836    3.464352   -0.541797
  C      2.000230    0.047914   -0.179194
  C     -1.254648    1.172133   -1.029817
  C      1.487450   -2.262263   -0.940063
  C     -2.114869   -0.254195    0.840874
  H      0.027755   -1.745298    1.964838
  H     -1.501826    2.788832    2.071048
  H      1.261445    0.031991    3.234306
  H      2.227367    1.351009    2.418255
  H      0.409473    1.382382    2.315797
  H     -1.313740    4.052249   -1.125355
  H     -0.405729    4.019535    0.370633
  H      0.346141    3.431010   -1.128288
  H      0.413009   -3.380378    0.346540
  H     -2.282957    0.692473    2.643951
  H      2.624977   -0.939504   -1.840086
  H     -1.557948   -0.844867   -1.050460

 Total Charge           Charge          ....    0
 Multiplicity           Mult            ....    3
 Number of Electrons    NEL             ....  132
 Basis Dimension        Dim             ....  882

ORBITAL ENERGIES
----------------
                 SPIN UP ORBITALS
  NO   OCC          E(Eh)            E(eV)
   0   1.0000     -19.342893      -526.3469
   1   1.0000     -19.325510      -525.8739
   2   1.0000     -19.324467      -525.8455
   3   1.0000     -19.323006      -525.8057
   4   1.0000     -14.594189      -397.1281
   5   1.0000     -14.580441      -396.7540
   6   1.0000     -14.566528      -396.3754
   7   1.0000     -14.559781      -396.1918
   8   1.0000     -10.525304      -286.4081
   9   1.0000     -10.507982      -285.9367
  10   1.0000     -10.482452      -285.2420
  11   1.0000     -10.464204      -284.7455
  12   1.0000     -10.436460      -283.9905
  13   1.0000     -10.415135      -283.4102
  14   1.0000     -10.410079      -283.2726
  15   1.0000     -10.394174      -282.8399
  16   1.0000     -10.372247      -282.2432
  17   1.0000     -10.359632      -281.8999
  18   1.0000      -1.222127       -33.2558
  19   1.0000      -1.217899       -33.1407
  20   1.0000      -1.194502       -32.5041
  21   1.0000      -1.190209       -32.3872
  22   1.0000      -1.115773       -30.3617
  23   1.0000      -1.112900       -30.2835
  24   1.0000      -1.069417       -29.1003
  25   1.0000      -1.060690       -28.8628
  26   1.0000      -0.975512       -26.5450
  27   1.0000      -0.945873       -25.7385
  28   1.0000      -0.853492       -23.2247
  29   1.0000      -0.843777       -22.9603
  30   1.0000      -0.815932       -22.2026
  31   1.0000      -0.805712       -21.9245
  32   1.0000      -0.791584       -21.5401
  33   1.0000      -0.786096       -21.3908
  34   1.0000      -0.693309       -18.8659
  35   1.0000      -0.690646       -18.7934
  36   1.0000      -0.690168       -18.7804
  37   1.0000      -0.675977       -18.3943
  38   1.0000      -0.650036       -17.6884
  39   1.0000      -0.636252       -17.3133
  40   1.0000      -0.619978       -16.8705
  41   1.0000      -0.606587       -16.5061
  42   1.0000      -0.601158       -16.3583
  43   1.0000      -0.595808       -16.2128
  44   1.0000      -0.571163       -15.5421
  45   1.0000      -0.566144       -15.4056
  46   1.0000      -0.560678       -15.2568
  47   1.0000      -0.560333       -15.2474
  48   1.0000      -0.554925       -15.1003
  49   1.0000      -0.549353       -14.9486
  50   1.0000      -0.536893       -14.6096
  51   1.0000      -0.532992       -14.5035
  52   1.0000      -0.527284       -14.3481
  53   1.0000      -0.517031       -14.0691
  54   1.0000      -0.500573       -13.6213
  55   1.0000      -0.487951       -13.2778
  56   1.0000      -0.486670       -13.2430
  57   1.0000      -0.460321       -12.5260
  58   1.0000      -0.425445       -11.5770
  59   1.0000      -0.417125       -11.3505
  60   1.0000      -0.409136       -11.1332
  61   1.0000      -0.400130       -10.8881
  62   1.0000      -0.390481       -10.6255
  63   1.0000      -0.385316       -10.4850
  64   1.0000      -0.379399       -10.3240
  65   1.0000      -0.334990        -9.1155
  66   1.0000      -0.231534        -6.3004
  67   0.0000       0.010997         0.2992
  68   0.0000       0.015554         0.4232
  69   0.0000       0.029458         0.8016
  70   0.0000       0.039112         1.0643
  71   0.0000       0.043703         1.1892

                 SPIN DOWN ORBITALS
  NO   OCC          E(Eh)            E(eV)
   0   1.0000     -19.341132      -526.2990
   1   1.0000     -19.324439      -525.8447
   2   1.0000     -19.322970      -525.8047
   3   1.0000     -19.319430      -525.7084
   4   1.0000     -14.589816      -397.0091
   5   1.0000     -14.580382      -396.7524
   6   1.0000     -14.566540      -396.3757
   7   1.0000     -14.559011      -396.1708
   8   1.0000     -10.525543      -286.4146
   9   1.0000     -10.507970      -285.9364
  10   1.0000     -10.482435      -285.2416
  11   1.0000     -10.464240      -284.7464
  12   1.0000     -10.436260      -283.9851
  13   1.0000     -10.405569      -283.1499
  14   1.0000     -10.399393      -282.9819
  15   1.0000     -10.394305      -282.8434
  16   1.0000     -10.371963      -282.2354
  17   1.0000     -10.360107      -281.9129
  18   1.0000      -1.222044       -33.2535
  19   1.0000      -1.213815       -33.0296
  20   1.0000      -1.194423       -32.5019
  21   1.0000      -1.181667       -32.1548
  22   1.0000      -1.112797       -30.2807
  23   1.0000      -1.105104       -30.0714
  24   1.0000      -1.069352       -29.0986
  25   1.0000      -1.055633       -28.7252
  26   1.0000      -0.954438       -25.9716
  27   1.0000      -0.945696       -25.7337
  28   1.0000      -0.844657       -22.9843
  29   1.0000      -0.837505       -22.7897
  30   1.0000      -0.806205       -21.9379
  31   1.0000      -0.802730       -21.8434
  32   1.0000      -0.791384       -21.5347
  33   1.0000      -0.780876       -21.2487
  34   1.0000      -0.690497       -18.7894
  35   1.0000      -0.686680       -18.6855
  36   1.0000      -0.678246       -18.4560
  37   1.0000      -0.675748       -18.3880
  38   1.0000      -0.641972       -17.4689
  39   1.0000      -0.634985       -17.2788
  40   1.0000      -0.612740       -16.6735
  41   1.0000      -0.599759       -16.3203
  42   1.0000      -0.595734       -16.2108
  43   1.0000      -0.588797       -16.0220
  44   1.0000      -0.564642       -15.3647
  45   1.0000      -0.561605       -15.2820
  46   1.0000      -0.554818       -15.0974
  47   1.0000      -0.551286       -15.0012
  48   1.0000      -0.546353       -14.8670
  49   1.0000      -0.540830       -14.7167
  50   1.0000      -0.531102       -14.4520
  51   1.0000      -0.527038       -14.3414
  52   1.0000      -0.521715       -14.1966
  53   1.0000      -0.505022       -13.7423
  54   1.0000      -0.493286       -13.4230
  55   1.0000      -0.486856       -13.2480
  56   1.0000      -0.466896       -12.7049
  57   1.0000      -0.440528       -11.9874
  58   1.0000      -0.421600       -11.4723
  59   1.0000      -0.416937       -11.3454
  60   1.0000      -0.400223       -10.8906
  61   1.0000      -0.387119       -10.5340
  62   1.0000      -0.384647       -10.4668
  63   1.0000      -0.382592       -10.4109
  64   1.0000      -0.334032        -9.0895
  65   0.0000      -0.097628        -2.6566
  66   0.0000       0.010917         0.2971
  67   0.0000       0.015278         0.4157
  68   0.0000       0.027020         0.7352
  69   0.0000       0.035490         0.9657

----------------------------------------------------------------------------------------------------
          SPIN FLIP ABSORPTION SPECTRUM VIA TRANSITION ELECTRIC DIPOLE MOMENTS
----------------------------------------------------------------------------------------------------
     Transition      Energy     Energy  Wavelength fosc(D2)      D2        DX        DY        DZ
                      (eV)      (cm-1)    (nm)                 (au**2)    (au)      (au)      (au)
----------------------------------------------------------------------------------------------------
  1-3A  ->  2-3A    3.334118   26891.5   371.9   0.000689168   0.00844   0.01418  -0.04957  -0.07602

Dispersion correction             ... done (  0.1 sec)

MULLIKEN ATOMIC CHARGES AND SPIN DENSITIES
------------------------------------------
   0 O :   -0.642644   -0.001905
   1 O :   -0.684041    0.029143
   2 O :   -0.638472    0.000079
   3 O :   -0.655624    0.007286
   4 N :   -0.060434   -0.000053
   5 N :    0.118937    0.035107
   6 N :   -0.035089   -0.000898
   7 N :    0.015491   -0.004574
   8 C :    0.946209   -0.011931
   9 C :    1.349438    0.531403
  10 C :   -0.453706    0.005612
  11 C :   -0.569602   -0.374163
  12 C :   -0.992854    0.000489
  13 C :   -1.530836   -0.066202
  14 C :    0.341925    0.000367
  15 C :    0.295859   -0.259643
  16 C :    0.454536   -0.001807
  17 C :    0.372636    0.023414
  18 H :    0.328683    0.001119
  19 H :    0.269992    0.043091
  20 H :    0.310514   -0.001264
  21 H :    0.301667   -0.001392
  22 H :    0.067252    0.002001
  23 H :    0.324309    0.011780
  24 H :    0.337884    0.021428
  25 H :    0.277602    0.006751
  26 H :    0.057068   -0.000060
  27 H :   -0.000012    0.003446
  28 H :    0.036216    0.000022
  29 H :    0.057098    0.001354
Sum of atomic charges       :    0.0000000

LOEWDIN ATOMIC CHARGES AND SPIN DENSITIES
-----------------------------------------
   0 O :    0.095134   -0.000210
   1 O :    0.084312    0.024251
   2 O :    0.086873    0.000095
   3 O :    0.048822    0.006149
   4 N :    0.278488    0.000347
   5 N :    0.268848    0.020335
   6 N :    0.338727   -0.000036
   7 N :    0.329794   -0.000805
   8 C :   -0.113095   -0.000432
   9 C :   -0.137222   -0.027548
  10 C :    0.104521    0.000758
  11 C :    0.093728   -0.025810
  12 C :    0.126338   -0.001653
  13 C :    0.141769   -0.003341
  14 C :   -0.392264    0.000022
  15 C :   -0.412690    0.008369
  16 C :   -0.483659    0.000101
  17 C :   -0.408778   -0.000185
  18 H :   -0.018014    0.000113
  19 H :    0.007525   -0.001694
  20 H :    0.048053   -0.000252
  21 H :    0.017287   -0.000060
  22 H :   -0.040284   -0.001165
  23 H :    0.038119    0.000064
  24 H :   -0.018033    0.000264
  25 H :   -0.003152    0.000087
  26 H :   -0.016080    0.000008
  27 H :   -0.028845    0.002061
  28 H :   -0.019230    0.000001
  29 H :   -0.016991    0.000167

  Mayer bond orders larger than 0.100000
B(  0-O , 14-C ) :   1.4866 B(  1-O , 15-C ) :   1.3323 B(  2-O , 16-C ) :   1.5645
B(  3-O , 17-C ) :   1.5386 B(  4-N , 10-C ) :   0.9585 B(  4-N , 16-C ) :   1.0443
B(  4-N , 26-H ) :   1.1185 B(  5-N , 11-C ) :   0.9524 B(  5-N , 17-C ) :   0.9943
B(  5-N , 27-H ) :   1.1386 B(  6-N , 14-C ) :   0.9677 B(  6-N , 16-C ) :   0.9855
B(  6-N , 28-H ) :   1.0942 B(  7-N , 15-C ) :   0.9091 B(  7-N , 17-C ) :   0.9079
B(  7-N , 29-H ) :   1.0659 B(  8-C , 10-C ) :   1.1528 B(  8-C , 12-C ) :   0.3018
B(  8-C , 14-C ) :   0.6553 B(  8-C , 20-H ) :  -0.1226 B(  9-C , 11-C ) :   0.9446
B(  9-C , 13-C ) :   0.1269 B(  9-C , 15-C ) :   0.6942 B(  9-C , 24-H ) :  -0.1731
B( 10-C , 14-C ) :  -0.1251 B( 10-C , 18-H ) :   0.9558 B( 11-C , 13-C ) :  -0.1213
B( 11-C , 17-C ) :  -0.1140 B( 11-C , 19-H ) :   1.0592 B( 12-C , 20-H ) :   0.9803
B( 12-C , 21-H ) :   0.9821 B( 12-C , 22-H ) :   1.0074 B( 13-C , 15-C ) :  -0.1296
B( 13-C , 23-H ) :   0.9210 B( 13-C , 24-H ) :   1.0190 B( 13-C , 25-H ) :   0.9630
B( 15-C , 17-C ) :  -0.1545

Dispersion correction           -0.055000563
FINAL SINGLE POINT ENERGY      -908.857860210127

DIPOLE MOMENT
-------------

Method             : TDA/CIS
Type of density    : Electron Density
Level              : Relaxed density
State              :   1
Multiplicity       :   3
Irrep              :   0
Energy             :     0.0000000000000000 Eh
Relativity type    :
Basis              : AO
                                X                 Y                 Z
Electronic contribution:     -0.664107219      -9.236969457      -6.152085518
Nuclear contribution   :      0.335293697       9.842033297       8.945896608
                        -----------------------------------------
Total Dipole Moment    :     -0.328813522       0.605063840       2.793811090
                        -----------------------------------------
Magnitude (a.u.)       :      2.877429580
Magnitude (Debye)      :      7.313844751

Rotational constants in cm-1:             0.018905             0.012301             0.011139
Rotational constants in MHz :           566.755152           368.764269           333.953741

                             ****ORCA TERMINATED NORMALLY****
TOTAL RUN TIME: 0 days 0 hours 6 minutes 30 seconds 412 msec
