                         Program Version 6.0.0  -   RELEASE  -
|  1> ! EnGrad wB97M-D3BJ def2-TZVPPD
|  2> %pal nprocs 8 end%pal nprocs 16 end
|  3> %tddft
|  4>  sf true
|  5>  nroots 2 Iroot 2 end
|  6> *xyz 0 3
|  7> O   0.71919416720855 1.36374765129728 -0.01279424463019
|  8> C   0.52710424946092 0.21288890849235 0.26552858702325
|  9> C   -0.43652191054224 -0.80978948741232 -0.2507356466475
| 10> H   1.16799981043401 -0.23052013221937 1.06091743846701
| 11> H   0.1409616801607 -1.65547223136946 -0.62440113843099
| 12> H   -1.09058600259246 -0.42815569514733 -1.03042248712349
| 13> H   -1.02595199412948 -1.17109901364114 0.59190749134191
| 14> *
| 15>
| 16>                          ****END OF INPUT****

CARTESIAN COORDINATES (ANGSTROEM)
---------------------------------
  O      0.719194    1.363748   -0.012794
  C      0.527104    0.212889    0.265529
  C     -0.436522   -0.809789   -0.250736
  H      1.168000   -0.230520    1.060917
  H      0.140962   -1.655472   -0.624401
  H     -1.090586   -0.428156   -1.030422
  H     -1.025952   -1.171099    0.591907

 Total Charge           Charge          ....    0
 Multiplicity           Mult            ....    3
 Number of Electrons    NEL             ....   24
 Basis Dimension        Dim             ....  182

ORBITAL ENERGIES
----------------
                 SPIN UP ORBITALS
  NO   OCC          E(Eh)            E(eV)
   0   1.0000     -19.407495      -528.1048
   1   1.0000     -10.379879      -282.4509
   2   1.0000     -10.368883      -282.1517
   3   1.0000      -1.244264       -33.8582
   4   1.0000      -0.886264       -24.1165
   5   1.0000      -0.716461       -19.4959
   6   1.0000      -0.631658       -17.1883
   7   1.0000      -0.588882       -16.0243
   8   1.0000      -0.581153       -15.8140
   9   1.0000      -0.516399       -14.0519
  10   1.0000      -0.515600       -14.0302
  11   1.0000      -0.428525       -11.6608
  12   1.0000      -0.218325        -5.9409
  13   0.0000       0.039201         1.0667
  14   0.0000       0.059976         1.6320
  15   0.0000       0.077903         2.1199
  16   0.0000       0.087617         2.3842
  17   0.0000       0.106933         2.9098

                 SPIN DOWN ORBITALS
  NO   OCC          E(Eh)            E(eV)
   0   1.0000     -19.380201      -527.3621
   1   1.0000     -10.369634      -282.1721
   2   1.0000     -10.366853      -282.0964
   3   1.0000      -1.187565       -32.3153
   4   1.0000      -0.867221       -23.5983
   5   1.0000      -0.670965       -18.2579
   6   1.0000      -0.585574       -15.9343
   7   1.0000      -0.541443       -14.7334
   8   1.0000      -0.535805       -14.5800
   9   1.0000      -0.498255       -13.5582
  10   1.0000      -0.471575       -12.8322
  11   0.0000      -0.082921        -2.2564
  12   0.0000       0.040011         1.0887
  13   0.0000       0.059640         1.6229
  14   0.0000       0.077579         2.1110
  15   0.0000       0.084711         2.3051

----------------------------------------------------------------------------------------------------
          SPIN FLIP ABSORPTION SPECTRUM VIA TRANSITION ELECTRIC DIPOLE MOMENTS
----------------------------------------------------------------------------------------------------
     Transition      Energy     Energy  Wavelength fosc(D2)      D2        DX        DY        DZ
                      (eV)      (cm-1)    (nm)                 (au**2)    (au)      (au)      (au)
----------------------------------------------------------------------------------------------------
  1-3A  ->  2-3A    4.624238   37297.0   268.1   0.000227705   0.00201  -0.02985   0.01238   0.03108

Dispersion correction             ... done (  0.0 sec)

MULLIKEN ATOMIC CHARGES AND SPIN DENSITIES
------------------------------------------
   0 O :   -0.269831    0.568022
   1 C :    0.230456   -0.605423
   2 C :   -0.710854    0.126548
   3 H :    0.089287    0.013988
   4 H :    0.206487   -0.049643
   5 H :    0.248947   -0.002649
   6 H :    0.205508   -0.050844
Sum of atomic charges       :   -0.0000000

LOEWDIN ATOMIC CHARGES AND SPIN DENSITIES
-----------------------------------------
   0 O :    0.157683    0.379958
   1 C :   -0.259288   -0.336455
   2 C :    0.133112   -0.018461
   3 H :    0.015910    0.012691
   4 H :   -0.020157   -0.022631
   5 H :   -0.007091    0.007332
   6 H :   -0.020169   -0.022434

  Mayer bond orders larger than 0.100000
B(  0-O ,  1-C ) :   1.2926 B(  1-C ,  2-C ) :   0.6164 B(  1-C ,  3-H ) :   0.9979
B(  2-C ,  4-H ) :   1.0135 B(  2-C ,  5-H ) :   0.9281 B(  2-C ,  6-H ) :   1.0143

Dispersion correction           -0.005517026
FINAL SINGLE POINT ENERGY      -153.752580814642

DIPOLE MOMENT
-------------

Method             : TDA/CIS
Type of density    : Electron Density
Level              : Relaxed density
State              :   2
Multiplicity       :   3
Irrep              :   0
Energy             :     0.0000000000000000 Eh
Relativity type    :
Basis              : AO
                                X                 Y                 Z
Electronic contribution:      1.525637366       3.586527178       0.026205287
Nuclear contribution   :     -1.754489126      -4.201987565       0.000418507
                        -----------------------------------------
Total Dipole Moment    :     -0.228851761      -0.615460386       0.026623793
                        -----------------------------------------
Magnitude (a.u.)       :      0.657170786
Magnitude (Debye)      :      1.670395389

Rotational constants in cm-1:             2.155975             0.321486             0.294944
Rotational constants in MHz :         64634.515065          9637.910433          8842.209282

                             ****ORCA TERMINATED NORMALLY****
TOTAL RUN TIME: 0 days 0 hours 0 minutes 16 seconds 432 msec
