                         Program Version 6.0.0  -   RELEASE  -
|  1> ! opt def2-TZVPPD wB97M-D3BJ
|  2> %pal nprocs 8 end%pal nprocs 32 end
|  3> %geom Constraints
|  4> {B 9 8 3.4 C}
|  5> {A 8 9 11 98.0 C}
|  6>  end
|  7>  end
|  8> *xyz 0 1
|  9> O   2.98579685529314 0.88758230159078 -0.86184571092411
| 10> O   -0.03983205397054 0.68929041702508 -2.10362336723772
| 11> O   0.93431434349854 -3.13274393337945 -0.68767288184107
| 12> O   -3.75829998830163 -0.84727300865116 -0.0472717177755
| 13> N   0.21184538946282 -1.54604804365365 0.7617588924445
| 14> N   -2.13631993928911 0.03188773433438 1.27350571071531
| 15> N   2.02598672506387 -1.14318467211666 -0.64531219127023
| 16> N   -1.91814233924584 0.03137116037665 -1.04498946748291
| 17> C   1.18097737274226 0.71693507080484 0.70173889017321
| 18> C   -0.20686880480777 1.27024627933494 0.21345042231937
| 19> C   0.41441080275909 -0.34173258966541 1.52336266615173
| 20> C   -0.82922175114212 0.58960593673968 1.44434972027296
| 21> C   1.92822011286806 1.69488653817281 1.5963734975385
| 22> C   -0.37809776891576 2.77134929626422 0.04819649358288
| 23> C   2.1403947470937 0.1972384729179 -0.35038567829864
| 24> C   -0.67361678962426 0.6214190571346 -1.0793014500539
| 25> C   1.04142578622994 -2.02697492875068 -0.21027082435993
| 26> C   -2.68467002550422 -0.30396816036989 0.07167054343891
| 27> H   0.80817443950001 -0.54572267081061 2.51895215321335
| 28> H   -0.83785272399001 1.27240685039143 2.28901317073582
| 29> H   2.31167340578204 2.52284411740894 1.00913016264629
| 30> H   1.28982602448342 2.08257620823614 2.38710022492991
| 31> H   2.77390820759972 1.19140411795486 2.06045858523949
| 32> H   -1.41857211141493 3.00964947214868 -0.16882755561625
| 33> H   -0.09065531563179 3.29799318042223 0.95389844358819
| 34> H   0.23426221611057 3.12492645074476 -0.77764887675592
| 35> H   -0.46772570547622 -2.21560145172536 1.0787081584806
| 36> H   -2.71769301149571 -0.17090724573546 2.06627440900372
| 37> H   2.60065167263658 -1.49057255715425 -1.3966820077142
| 38> H   -2.27169977231386 -0.32388339999036 -1.91951041514436
| 39> *
| 40>
| 41>                          ****END OF INPUT****
 Total Charge           Charge          ....    0
 Multiplicity           Mult            ....    1
 Number of Electrons    NEL             ....  132
Dispersion correction           -0.051824899
FINAL SINGLE POINT ENERGY      -908.520323453662
Dispersion correction             ... done (  0.0 sec)
Dispersion correction           -0.052013233
FINAL SINGLE POINT ENERGY      -908.584680954887
Dispersion correction             ... done (  0.0 sec)
Dispersion correction           -0.052378827
FINAL SINGLE POINT ENERGY      -908.641396173474
Dispersion correction             ... done (  0.0 sec)
FINAL SINGLE POINT ENERGY      -908.716493921229
FINAL SINGLE POINT ENERGY      -908.794631646053
FINAL SINGLE POINT ENERGY      -908.845002001959
FINAL SINGLE POINT ENERGY      -908.869884200511
FINAL SINGLE POINT ENERGY      -908.884522917310
FINAL SINGLE POINT ENERGY      -908.900937104541
FINAL SINGLE POINT ENERGY      -908.915737090780
FINAL SINGLE POINT ENERGY      -908.932196974691
FINAL SINGLE POINT ENERGY      -908.932307774418
FINAL SINGLE POINT ENERGY      -908.932383466879
FINAL SINGLE POINT ENERGY      -908.932418780197
FINAL SINGLE POINT ENERGY      -908.932452724612
FINAL SINGLE POINT ENERGY      -908.932472421755
FINAL SINGLE POINT ENERGY      -908.932479089027
Dispersion correction             ... done (  0.0 sec)
Dispersion correction           -0.057681770
FINAL SINGLE POINT ENERGY      -908.932481576210
Dispersion correction             ... done (  0.0 sec)
Dispersion correction           -0.057695884
FINAL SINGLE POINT ENERGY      -908.932482392452
Dispersion correction             ... done (  0.0 sec)
                    ***********************HURRAY********************

CARTESIAN COORDINATES (ANGSTROEM)
---------------------------------
  O      2.824139    1.084479   -0.709166
  O     -0.403538    0.812074   -2.040612
  O      0.646181   -2.819828   -1.498923
  O     -2.662080   -1.713569    0.980614
  N      0.698393   -2.017410    0.630083
  N     -2.418789    0.517014    1.376582
  N      1.859677   -0.940740   -1.044396
  N     -1.624495   -0.405231   -0.574447
  C      1.663343    0.109394    1.112510
  C     -1.026431    1.862984   -0.005542
  C      0.963762   -0.971045    1.482016
  C     -1.805004    1.715162    1.070191
  C      1.967722    1.252307    2.026060
  C     -0.299169    3.120443   -0.358830
  C      2.177372    0.164951   -0.257052
  C     -0.967918    0.761583   -0.970670
  C      1.040514   -1.993755   -0.705436
  C     -2.266975   -0.624202    0.621674
  H      0.560286   -1.080706    2.477621
  H     -1.954864    2.506319    1.788959
  H      1.554011    2.179451    1.634310
  H      1.554428    1.074898    3.016487
  H      3.042421    1.398698    2.114169
  H     -0.679752    3.535755   -1.290061
  H     -0.402143    3.863458    0.428779
  H      0.757960    2.912558   -0.517188
  H      0.028345   -2.722496    0.886927
  H     -2.914315    0.397173    2.241212
  H      2.073284   -0.859280   -2.026456
  H     -1.533769   -1.205443   -1.184813

 Multiplicity           Mult            ....    1
 Number of Electrons    NEL             ....  132
 Basis Dimension        Dim             ....  882

ORBITAL ENERGIES
----------------

  NO   OCC          E(Eh)            E(eV)
   0   2.0000     -19.329824      -525.9913
   1   2.0000     -19.324307      -525.8411
   2   2.0000     -19.318633      -525.6867
   3   2.0000     -19.317176      -525.6471
   4   2.0000     -14.585914      -396.9029
   5   2.0000     -14.574198      -396.5841
   6   2.0000     -14.571181      -396.5020
   7   2.0000     -14.560733      -396.2177
   8   2.0000     -10.515887      -286.1518
   9   2.0000     -10.504766      -285.8492
  10   2.0000     -10.479857      -285.1714
  11   2.0000     -10.472303      -284.9659
  12   2.0000     -10.432879      -283.8931
  13   2.0000     -10.427557      -283.7483
  14   2.0000     -10.381564      -282.4967
  15   2.0000     -10.376908      -282.3700
  16   2.0000     -10.357347      -281.8377
  17   2.0000     -10.353503      -281.7332
  18   2.0000      -1.228652       -33.4333
  19   2.0000      -1.218036       -33.1444
  20   2.0000      -1.195501       -32.5312
  21   2.0000      -1.186499       -32.2863
  22   2.0000      -1.124136       -30.5893
  23   2.0000      -1.115067       -30.3425
  24   2.0000      -1.071529       -29.1578
  25   2.0000      -1.061744       -28.8915
  26   2.0000      -0.958524       -26.0828
  27   2.0000      -0.952308       -25.9136
  28   2.0000      -0.848639       -23.0926
  29   2.0000      -0.844759       -22.9871
  30   2.0000      -0.811240       -22.0750
  31   2.0000      -0.805288       -21.9130
  32   2.0000      -0.795433       -21.6448
  33   2.0000      -0.785653       -21.3787
  34   2.0000      -0.696621       -18.9560
  35   2.0000      -0.693412       -18.8687
  36   2.0000      -0.689169       -18.7532
  37   2.0000      -0.685070       -18.6417
  38   2.0000      -0.644258       -17.5311
  39   2.0000      -0.634370       -17.2621
  40   2.0000      -0.631490       -17.1837
  41   2.0000      -0.599157       -16.3039
  42   2.0000      -0.598959       -16.2985
  43   2.0000      -0.590036       -16.0557
  44   2.0000      -0.569234       -15.4896
  45   2.0000      -0.561544       -15.2804
  46   2.0000      -0.558642       -15.2014
  47   2.0000      -0.552265       -15.0279
  48   2.0000      -0.546311       -14.8659
  49   2.0000      -0.539711       -14.6863
  50   2.0000      -0.521308       -14.1855
  51   2.0000      -0.517544       -14.0831
  52   2.0000      -0.515536       -14.0285
  53   2.0000      -0.511707       -13.9243
  54   2.0000      -0.501053       -13.6343
  55   2.0000      -0.500362       -13.6155
  56   2.0000      -0.479859       -13.0576
  57   2.0000      -0.472296       -12.8518
  58   2.0000      -0.421513       -11.4700
  59   2.0000      -0.411604       -11.2003
  60   2.0000      -0.405321       -11.0293
  61   2.0000      -0.393581       -10.7099
  62   2.0000      -0.387396       -10.5416
  63   2.0000      -0.380842       -10.3632
  64   2.0000      -0.351646        -9.5688
  65   2.0000      -0.339095        -9.2272
  66   0.0000       0.010442         0.2841
  67   0.0000       0.016739         0.4555
  68   0.0000       0.025225         0.6864
  69   0.0000       0.034630         0.9423
  70   0.0000       0.039661         1.0792

MULLIKEN ATOMIC CHARGES
-----------------------
   0 O :   -0.669045
   1 O :   -0.655681
   2 O :   -0.645188
   3 O :   -0.663816
   4 N :   -0.066191
   5 N :   -0.046852
   6 N :    0.015068
   7 N :    0.010941
   8 C :    0.735223
   9 C :    0.489649
  10 C :    0.060211
  11 C :    0.107251
  12 C :   -1.370113
  13 C :   -1.434974
  14 C :    0.427899
  15 C :    0.628565
  16 C :    0.399457
  17 C :    0.464005
  18 H :    0.146330
  19 H :    0.146599
  20 H :    0.179269
  21 H :    0.335892
  22 H :    0.341675
  23 H :    0.360187
  24 H :    0.330451
  25 H :    0.226253
  26 H :    0.062906
  27 H :    0.022421
  28 H :    0.029025
  29 H :    0.032583
Sum of atomic charges:    0.0000000

LOEWDIN ATOMIC CHARGES
----------------------
   0 O :    0.094301
   1 O :    0.103824
   2 O :    0.083587
   3 O :    0.074939
   4 N :    0.276717
   5 N :    0.278730
   6 N :    0.341706
   7 N :    0.341772
   8 C :   -0.136242
   9 C :   -0.138665
  10 C :    0.050612
  11 C :    0.060805
  12 C :    0.180097
  13 C :    0.177655
  14 C :   -0.401795
  15 C :   -0.391421
  16 C :   -0.487677
  17 C :   -0.485491
  18 H :    0.039266
  19 H :    0.036128
  20 H :   -0.018283
  21 H :   -0.006038
  22 H :    0.002219
  23 H :    0.002819
  24 H :   -0.004859
  25 H :   -0.014102
  26 H :   -0.022377
  27 H :   -0.022728
  28 H :   -0.003121
  29 H :   -0.012377

  Mayer bond orders larger than 0.100000
B(  0-O , 14-C ) :   1.4570 B(  1-O , 15-C ) :   1.4281 B(  2-O , 16-C ) :   1.5743
B(  3-O , 17-C ) :   1.5448 B(  4-N , 10-C ) :   0.8992 B(  4-N , 16-C ) :   0.9829
B(  4-N , 26-H ) :   1.1161 B(  5-N , 11-C ) :   0.9611 B(  5-N , 17-C ) :   1.0419
B(  5-N , 27-H ) :   1.1363 B(  6-N , 14-C ) :   1.0050 B(  6-N , 16-C ) :   0.9313
B(  6-N , 28-H ) :   1.0988 B(  7-N , 15-C ) :   0.9791 B(  7-N , 17-C ) :   0.9494
B(  7-N , 29-H ) :   1.1216 B(  8-C , 10-C ) :   1.1430 B(  8-C , 12-C ) :   0.3901
B(  8-C , 14-C ) :   0.7495 B(  9-C , 11-C ) :   1.2385 B(  9-C , 13-C ) :   0.3065
B(  9-C , 15-C ) :   0.8510 B(  9-C , 24-H ) :  -0.1002 B(  9-C , 25-H ) :  -0.1231
B( 10-C , 12-C ) :  -0.1130 B( 10-C , 14-C ) :  -0.1235 B( 10-C , 18-H ) :   1.1136
B( 11-C , 13-C ) :  -0.1653 B( 11-C , 19-H ) :   1.0903 B( 12-C , 20-H ) :   1.0508
B( 12-C , 21-H ) :   0.9858 B( 12-C , 22-H ) :   0.9222 B( 13-C , 23-H ) :   0.9025
B( 13-C , 24-H ) :   1.0305 B( 13-C , 25-H ) :   1.0178

Dispersion correction           -0.057709771
FINAL SINGLE POINT ENERGY      -908.932482521818

DIPOLE MOMENT
-------------

Method             : SCF
Type of density    : Electron Density
Multiplicity       :   1
Irrep              :   0
Energy             :  -908.8747727503902070 Eh
Relativity type    :
Basis              : AO
                                X                 Y                 Z
Electronic contribution:     -2.594864244     -10.375719025      -5.980857808
Nuclear contribution   :      1.722923591      11.434267167       8.436872345
                        -----------------------------------------
Total Dipole Moment    :     -0.871940653       1.058548143       2.456014537
                        -----------------------------------------
Magnitude (a.u.)       :      2.812972108
Magnitude (Debye)      :      7.150006879

Rotational constants in cm-1:             0.017856             0.015397             0.012107
Rotational constants in MHz :           535.309113           461.585582           362.958172

                             ****ORCA TERMINATED NORMALLY****
TOTAL RUN TIME: 0 days 1 hours 52 minutes 59 seconds 695 msec
