                         Program Version 6.0.0  -   RELEASE  -
|  1> ! Engrad def2-TZVPPD wB97M-D3BJ
|  2> %pal nprocs 8 end%pal nprocs 64 end
|  3> %tddft
|  4>  Iroot 2 Nroots 3
|  5> sf true
|  6> end
|  7> *xyz 0 3
|  8> O   1.30702743 0.51200762 0.65130414
|  9> C   0.65152815 -0.11045723 -0.4107595
| 10> C   -0.85267508 -0.26577298 -0.04471932
| 11> H   1.06458631 -1.06275474 -0.64625341
| 12> H   0.57709298 0.65278497 -1.18461267
| 13> H   -1.49007803 -0.40273934 -0.98905044
| 14> H   -1.33945759 -0.23044127 0.92215173
| 15> *
| 16>
| 17>                          ****END OF INPUT****

CARTESIAN COORDINATES (ANGSTROEM)
---------------------------------
  O      1.307027    0.512008    0.651304
  C      0.651528   -0.110457   -0.410759
  C     -0.852675   -0.265773   -0.044719
  H      1.064586   -1.062755   -0.646253
  H      0.577093    0.652785   -1.184613
  H     -1.490078   -0.402739   -0.989050
  H     -1.339458   -0.230441    0.922152

 Total Charge           Charge          ....    0
 Multiplicity           Mult            ....    3
 Number of Electrons    NEL             ....   24
 Basis Dimension        Dim             ....  182

ORBITAL ENERGIES
----------------
                 SPIN UP ORBITALS
  NO   OCC          E(Eh)            E(eV)
   0   1.0000     -19.383853      -527.4615
   1   1.0000     -10.414716      -283.3988
   2   1.0000     -10.389744      -282.7193
   3   1.0000      -1.155213       -31.4349
   4   1.0000      -0.870749       -23.6943
   5   1.0000      -0.734044       -19.9744
   6   1.0000      -0.609498       -16.5853
   7   1.0000      -0.581575       -15.8255
   8   1.0000      -0.559584       -15.2271
   9   1.0000      -0.507865       -13.8197
  10   1.0000      -0.437321       -11.9001
  11   1.0000      -0.412326       -11.2200
  12   1.0000      -0.327602        -8.9145
  13   0.0000       0.040124         1.0918
  14   0.0000       0.061161         1.6643
  15   0.0000       0.081623         2.2211
  16   0.0000       0.084656         2.3036
  17   0.0000       0.111655         3.0383

                 SPIN DOWN ORBITALS
  NO   OCC          E(Eh)            E(eV)
   0   1.0000     -19.360934      -526.8378
   1   1.0000     -10.415939      -283.4321
   2   1.0000     -10.373861      -282.2871
   3   1.0000      -1.102712       -30.0063
   4   1.0000      -0.835550       -22.7365
   5   1.0000      -0.705651       -19.2017
   6   1.0000      -0.593525       -16.1506
   7   1.0000      -0.551446       -15.0056
   8   1.0000      -0.510940       -13.9034
   9   1.0000      -0.488354       -13.2888
  10   1.0000      -0.383012       -10.4223
  11   0.0000      -0.053954        -1.4682
  12   0.0000       0.005173         0.1408
  13   0.0000       0.040789         1.1099
  14   0.0000       0.062351         1.6967
  15   0.0000       0.082229         2.2376

----------------------------------------------------------------------------------------------------
          SPIN FLIP ABSORPTION SPECTRUM VIA TRANSITION ELECTRIC DIPOLE MOMENTS
----------------------------------------------------------------------------------------------------
     Transition      Energy     Energy  Wavelength fosc(D2)      D2        DX        DY        DZ
                      (eV)      (cm-1)    (nm)                 (au**2)    (au)      (au)      (au)
----------------------------------------------------------------------------------------------------
  1-3A  ->  2-3A    0.238720    1925.4  5193.7   0.000107257   0.01834   0.13378  -0.01474  -0.01498
  1-3A  ->  3-3A    0.822650    6635.1  1507.1   0.016866204   0.83684  -0.82446  -0.23180  -0.32153

Dispersion correction             ... done (  0.2 sec)

MULLIKEN ATOMIC CHARGES AND SPIN DENSITIES
------------------------------------------
   0 O :   -0.318897   -0.188797
   1 C :   -0.079352   -0.022513
   2 C :   -0.465944    0.276152
   3 H :    0.242241   -0.030904
   4 H :    0.208776   -0.002430
   5 H :    0.188614   -0.016617
   6 H :    0.224561   -0.014891
Sum of atomic charges       :    0.0000000

LOEWDIN ATOMIC CHARGES AND SPIN DENSITIES
-----------------------------------------
   0 O :    0.024907   -0.192042
   1 C :   -0.193355   -0.001927
   2 C :    0.261074    0.173823
   3 H :   -0.002106   -0.011708
   4 H :    0.012390    0.003629
   5 H :   -0.028416    0.012644
   6 H :   -0.074494    0.015582

  Mayer bond orders larger than 0.100000
B(  0-O ,  1-C ) :   0.8692 B(  1-C ,  2-C ) :   0.8068 B(  1-C ,  3-H ) :   0.9649
B(  1-C ,  4-H ) :   0.9466 B(  2-C ,  5-H ) :   1.0145 B(  2-C ,  6-H ) :   0.9432

Dispersion correction           -0.005479931
FINAL SINGLE POINT ENERGY      -153.737261359431

DIPOLE MOMENT
-------------

Method             : TDA/CIS
Type of density    : Electron Density
Level              : Relaxed density
State              :   2
Multiplicity       :   3
Irrep              :   0
Energy             :     0.0000000000000000 Eh
Relativity type    :
Basis              : AO
                                X                 Y                 Z
Electronic contribution:      2.204697716       0.858349758       1.400922386
Nuclear contribution   :     -2.574428724      -1.195257915      -2.030494018
                        -----------------------------------------
Total Dipole Moment    :     -0.369731007      -0.336908157      -0.629571632
                        -----------------------------------------
Magnitude (a.u.)       :      0.804094872
Magnitude (Debye)      :      2.043846738

Rotational constants in cm-1:             1.347507             0.348080             0.295233
Rotational constants in MHz :         40397.230964         10435.162017          8850.856868

                             ****ORCA TERMINATED NORMALLY****
TOTAL RUN TIME: 0 days 0 hours 0 minutes 26 seconds 811 msec
