                         Program Version 6.0.0  -   RELEASE  -
|  1> ! Opt wB97M-D3BJ def2-TZVPPD
|  2> %pal nprocs 8 end %pal nprocs 64 end
|  3> %geom
|  4> Constraints
|  5>     {A 2 1 0 64.57627118644068 C }
|  6> end
|  7> MaxIter 200
|  8> end
|  9> *xyz 0 1
| 10> O   0.1345599760959365 0.8876761452499188 0.0
| 11> C   0.7509 -0.4065 0.0
| 12> C   -0.7502 -0.4076 0.0
| 13> H   1.2625 -0.6786 0.9136
| 14> H   1.2625 -0.6787 -0.9136
| 15> H   -1.2614 -0.6806 -0.9136
| 16> H   -1.2614 -0.6805 0.9136
| 17> *
| 18>
| 19>                          ****END OF INPUT****
 Total Charge           Charge          ....    0
 Multiplicity           Mult            ....    1
 Number of Electrons    NEL             ....   24
Dispersion correction           -0.005182479
FINAL SINGLE POINT ENERGY      -153.878081592443
Dispersion correction             ... done (  0.1 sec)
Dispersion correction           -0.005222181
FINAL SINGLE POINT ENERGY      -153.884785239619
Dispersion correction             ... done (  0.1 sec)
Dispersion correction           -0.005240252
FINAL SINGLE POINT ENERGY      -153.885594795506
Dispersion correction             ... done (  0.1 sec)
FINAL SINGLE POINT ENERGY      -153.885644634374
Dispersion correction             ... done (  0.1 sec)
Dispersion correction           -0.005234105
FINAL SINGLE POINT ENERGY      -153.885666898584
Dispersion correction             ... done (  0.1 sec)
Dispersion correction           -0.005234405
FINAL SINGLE POINT ENERGY      -153.885669980364
Dispersion correction             ... done (  0.1 sec)
                    ***********************HURRAY********************

CARTESIAN COORDINATES (ANGSTROEM)
---------------------------------
  O      0.087037    0.821191   -0.000049
  C      0.725459   -0.413357    0.000074
  C     -0.710148   -0.461511   -0.000100
  H      1.263130   -0.665702    0.909472
  H      1.263001   -0.665992   -0.909349
  H     -1.245617   -0.629734   -0.921974
  H     -1.245403   -0.629719    0.921926

 Multiplicity           Mult            ....    1
 Number of Electrons    NEL             ....   24
 Basis Dimension        Dim             ....  182

ORBITAL ENERGIES
----------------

  NO   OCC          E(Eh)            E(eV)
   0   2.0000     -19.350572      -526.5558
   1   2.0000     -10.401516      -283.0396
   2   2.0000     -10.397660      -282.9347
   3   2.0000      -1.198121       -32.6025
   4   2.0000      -0.814541       -22.1648
   5   2.0000      -0.751753       -20.4562
   6   2.0000      -0.630729       -17.1630
   7   2.0000      -0.594223       -16.1696
   8   2.0000      -0.498208       -13.5569
   9   2.0000      -0.490289       -13.3415
  10   2.0000      -0.427762       -11.6400
  11   2.0000      -0.383833       -10.4446
  12   0.0000       0.042105         1.1457
  13   0.0000       0.058629         1.5954
  14   0.0000       0.073396         1.9972
  15   0.0000       0.077695         2.1142
  16   0.0000       0.114288         3.1099

MULLIKEN ATOMIC CHARGES
-----------------------
   0 O :   -0.389178
   1 C :   -0.141663
   2 C :   -0.203100
   3 H :    0.185346
   4 H :    0.185310
   5 H :    0.181667
   6 H :    0.181619
Sum of atomic charges:    0.0000000

LOEWDIN ATOMIC CHARGES
----------------------
   0 O :   -0.031032
   1 C :   -0.090542
   2 C :    0.072498
   3 H :    0.017651
   4 H :    0.017652
   5 H :    0.006887
   6 H :    0.006886

  Mayer bond orders larger than 0.100000
B(  0-O ,  1-C ) :   0.7896 B(  0-O ,  2-C ) :   0.8567 B(  1-C ,  2-C ) :   0.8191
B(  1-C ,  3-H ) :   1.0292 B(  1-C ,  4-H ) :   1.0292 B(  2-C ,  5-H ) :   1.0039
B(  2-C ,  6-H ) :   1.0039

Dispersion correction           -0.005234820
FINAL SINGLE POINT ENERGY      -153.885670485741

DIPOLE MOMENT
-------------

Method             : SCF
Type of density    : Electron Density
Multiplicity       :   1
Irrep              :   0
Energy             :  -153.8804356660405119 Eh
Relativity type    :
Basis              : AO
                                X                 Y                 Z
Electronic contribution:      0.034439962       1.609105383      -0.000132427
Nuclear contribution   :     -0.103616870      -2.420375462       0.000158089
                        -----------------------------------------
Total Dipole Moment    :     -0.069176908      -0.811270079       0.000025662
                        -----------------------------------------
Magnitude (a.u.)       :      0.814214092
Magnitude (Debye)      :      2.069567750

Rotational constants in cm-1:             0.855063             0.735378             0.469872
Rotational constants in MHz :         25634.156161         22046.066952         14086.393672

                             ****ORCA TERMINATED NORMALLY****
TOTAL RUN TIME: 0 days 0 hours 1 minutes 29 seconds 184 msec
