                         Program Version 6.0.0  -   RELEASE  -
|  1> ! EnGrad wB97M-D3BJ def2-TZVPPD
|  2> %pal nprocs 8 end%pal nprocs 16 end
|  3> %tddft
|  4>  sf true
|  5>  nroots 2 Iroot 2 end
|  6> *xyz 0 3
|  7> O   0.04643326693884 0.81168126767156 -7.002104475e-05
|  8> C   0.70672495374402 -0.4119276128527 0.00021152004148
|  9> C   -0.72783919045086 -0.48454762891474 -0.00025942929463
| 10> H   1.24906555918401 -0.65405022073712 0.90952509355972
| 11> H   1.24860291391632 -0.65483835678225 -0.90924530796468
| 12> H   -1.26071084865358 -0.66213913829117 -0.92189713946473
| 13> H   -1.26007665467875 -0.66257831009358 0.92173528416759
| 14> *
| 15>
| 16>                          ****END OF INPUT****

CARTESIAN COORDINATES (ANGSTROEM)
---------------------------------
  O      0.046433    0.811681   -0.000070
  C      0.706725   -0.411928    0.000212
  C     -0.727839   -0.484548   -0.000259
  H      1.249066   -0.654050    0.909525
  H      1.248603   -0.654838   -0.909245
  H     -1.260711   -0.662139   -0.921897
  H     -1.260077   -0.662578    0.921735

 Total Charge           Charge          ....    0
 Multiplicity           Mult            ....    3
 Number of Electrons    NEL             ....   24
 Basis Dimension        Dim             ....  182

ORBITAL ENERGIES
----------------
                 SPIN UP ORBITALS
  NO   OCC          E(Eh)            E(eV)
   0   1.0000     -19.481915      -530.1299
   1   1.0000     -10.429629      -283.8046
   2   1.0000     -10.381191      -282.4866
   3   1.0000      -1.307463       -35.5779
   4   1.0000      -0.869099       -23.6494
   5   1.0000      -0.789229       -21.4760
   6   1.0000      -0.696576       -18.9548
   7   1.0000      -0.658963       -17.9313
   8   1.0000      -0.581529       -15.8242
   9   1.0000      -0.515065       -14.0156
  10   1.0000      -0.505981       -13.7685
  11   1.0000      -0.478572       -13.0226
  12   1.0000      -0.136444        -3.7128
  13   0.0000       0.035244         0.9590
  14   0.0000       0.059330         1.6145
  15   0.0000       0.069492         1.8910
  16   0.0000       0.086851         2.3633
  17   0.0000       0.107343         2.9210

                 SPIN DOWN ORBITALS
  NO   OCC          E(Eh)            E(eV)
   0   1.0000     -19.449404      -529.2452
   1   1.0000     -10.429605      -283.8040
   2   1.0000     -10.374127      -282.2943
   3   1.0000      -1.241488       -33.7826
   4   1.0000      -0.836156       -22.7529
   5   1.0000      -0.771369       -20.9900
   6   1.0000      -0.639590       -17.4041
   7   1.0000      -0.627805       -17.0834
   8   1.0000      -0.543503       -14.7895
   9   1.0000      -0.491838       -13.3836
  10   1.0000      -0.451831       -12.2949
  11   0.0000      -0.126185        -3.4337
  12   0.0000       0.032901         0.8953
  13   0.0000       0.056340         1.5331
  14   0.0000       0.064220         1.7475
  15   0.0000       0.067156         1.8274

----------------------------------------------------------------------------------------------------
          SPIN FLIP ABSORPTION SPECTRUM VIA TRANSITION ELECTRIC DIPOLE MOMENTS
----------------------------------------------------------------------------------------------------
     Transition      Energy     Energy  Wavelength fosc(D2)      D2        DX        DY        DZ
                      (eV)      (cm-1)    (nm)                 (au**2)    (au)      (au)      (au)
----------------------------------------------------------------------------------------------------
  1-3A  ->  2-3A    6.648842   53626.5   186.5   0.000351392   0.00216   0.00011   0.00008  -0.04645

Dispersion correction             ... done (  0.0 sec)

MULLIKEN ATOMIC CHARGES AND SPIN DENSITIES
------------------------------------------
   0 O :    0.328785    1.061068
   1 C :   -0.858109   -1.203853
   2 C :   -1.599655   -1.082383
   3 H :    0.464784    0.261986
   4 H :    0.480286    0.245968
   5 H :    0.594437    0.356235
   6 H :    0.589472    0.360980
Sum of atomic charges       :    0.0000000

LOEWDIN ATOMIC CHARGES AND SPIN DENSITIES
-----------------------------------------
   0 O :    0.265507    0.477379
   1 C :   -0.140214   -0.137534
   2 C :   -0.070287   -0.183962
   3 H :    0.012272   -0.021069
   4 H :    0.013540   -0.022329
   5 H :   -0.040554   -0.056150
   6 H :   -0.040264   -0.056335

  Mayer bond orders larger than 0.100000
B(  0-O ,  1-C ) :   0.7778 B(  0-O ,  2-C ) :   0.4802 B(  1-C ,  2-C ) :   3.2269
B(  1-C ,  3-H ) :   0.6426 B(  1-C ,  4-H ) :   0.5764 B(  1-C ,  5-H ) :  -0.7858
B(  1-C ,  6-H ) :  -0.8207 B(  2-C ,  3-H ) :  -0.7073 B(  2-C ,  4-H ) :  -0.6485
B(  2-C ,  5-H ) :   0.1649 B(  2-C ,  6-H ) :   0.2053 B(  3-H ,  4-H ) :   0.1413
B(  3-H ,  5-H ) :   0.1458 B(  3-H ,  6-H ) :   0.2264 B(  4-H ,  5-H ) :   0.2301
B(  4-H ,  6-H ) :   0.1441 B(  5-H ,  6-H ) :   0.2371

Dispersion correction           -0.005234615
FINAL SINGLE POINT ENERGY      -153.627617908715

DIPOLE MOMENT
-------------

Method             : TDA/CIS
Type of density    : Electron Density
Level              : Relaxed density
State              :   2
Multiplicity       :   3
Irrep              :   0
Energy             :     0.0000000000000000 Eh
Relativity type    :
Basis              : AO
                                X                 Y                 Z
Electronic contribution:      0.511152394       1.821541738      -0.001405092
Nuclear contribution   :     -0.060854389      -2.421482469       0.000244457
                        -----------------------------------------
Total Dipole Moment    :      0.450298006      -0.599940731      -0.001160635
                        -----------------------------------------
Magnitude (a.u.)       :      0.750132336
Magnitude (Debye)      :      1.906684872

Rotational constants in cm-1:             0.854659             0.735611             0.469829
Rotational constants in MHz :         25622.025203         22053.050019         14085.116667

                             ****ORCA TERMINATED NORMALLY****
TOTAL RUN TIME: 0 days 0 hours 0 minutes 20 seconds 802 msec
