                         Program Version 6.0.0  -   RELEASE  -
|  1> ! opt def2-TZVPPD wB97M-D3BJ
|  2> %pal nprocs 8 end%pal nprocs 32 end
|  3> %geom Constraints
|  4> {B 9 8 3.3 C}
|  5> {A 8 9 11 34.0 C}
|  6> end
|  7> MaxIter 300
|  8> end
|  9> *xyz 0 1
| 10> O   2.98579685529314 0.88758230159078 -0.86184571092411
| 11> O   -0.03983205397054 0.68929041702508 -2.10362336723772
| 12> O   0.93431434349854 -3.13274393337945 -0.68767288184107
| 13> O   -3.75829998830163 -0.84727300865116 -0.0472717177755
| 14> N   0.21184538946282 -1.54604804365365 0.7617588924445
| 15> N   -2.13631993928911 0.03188773433438 1.27350571071531
| 16> N   2.02598672506387 -1.14318467211666 -0.64531219127023
| 17> N   -1.91814233924584 0.03137116037665 -1.04498946748291
| 18> C   1.18097737274226 0.71693507080484 0.70173889017321
| 19> C   -0.20686880480777 1.27024627933494 0.21345042231937
| 20> C   0.41441080275909 -0.34173258966541 1.52336266615173
| 21> C   -0.82922175114212 0.58960593673968 1.44434972027296
| 22> C   1.92822011286806 1.69488653817281 1.5963734975385
| 23> C   -0.37809776891576 2.77134929626422 0.04819649358288
| 24> C   2.1403947470937 0.1972384729179 -0.35038567829864
| 25> C   -0.67361678962426 0.6214190571346 -1.0793014500539
| 26> C   1.04142578622994 -2.02697492875068 -0.21027082435993
| 27> C   -2.68467002550422 -0.30396816036989 0.07167054343891
| 28> H   0.80817443950001 -0.54572267081061 2.51895215321335
| 29> H   -0.83785272399001 1.27240685039143 2.28901317073582
| 30> H   2.31167340578204 2.52284411740894 1.00913016264629
| 31> H   1.28982602448342 2.08257620823614 2.38710022492991
| 32> H   2.77390820759972 1.19140411795486 2.06045858523949
| 33> H   -1.41857211141493 3.00964947214868 -0.16882755561625
| 34> H   -0.09065531563179 3.29799318042223 0.95389844358819
| 35> H   0.23426221611057 3.12492645074476 -0.77764887675592
| 36> H   -0.46772570547622 -2.21560145172536 1.0787081584806
| 37> H   -2.71769301149571 -0.17090724573546 2.06627440900372
| 38> H   2.60065167263658 -1.49057255715425 -1.3966820077142
| 39> H   -2.27169977231386 -0.32388339999036 -1.91951041514436
| 40> *
| 41>
| 42>                          ****END OF INPUT****
 Total Charge           Charge          ....    0
 Multiplicity           Mult            ....    1
 Number of Electrons    NEL             ....  132
Dispersion correction           -0.052488468
FINAL SINGLE POINT ENERGY      -908.470331399835
Dispersion correction             ... done (  0.0 sec)
Dispersion correction           -0.052555015
FINAL SINGLE POINT ENERGY      -908.544927127220
Dispersion correction             ... done (  0.1 sec)
Dispersion correction           -0.052598488
FINAL SINGLE POINT ENERGY      -908.590098579984
Dispersion correction             ... done (  0.0 sec)
FINAL SINGLE POINT ENERGY      -908.629812197161
FINAL SINGLE POINT ENERGY      -908.661702152258
FINAL SINGLE POINT ENERGY      -908.679947756374
FINAL SINGLE POINT ENERGY      -908.689317187995
FINAL SINGLE POINT ENERGY      -908.695589800821
FINAL SINGLE POINT ENERGY      -908.703412961680
FINAL SINGLE POINT ENERGY      -908.708626043478
FINAL SINGLE POINT ENERGY      -908.734648969211
FINAL SINGLE POINT ENERGY      -908.734858321939
FINAL SINGLE POINT ENERGY      -908.734819844491
FINAL SINGLE POINT ENERGY      -908.735076576515
FINAL SINGLE POINT ENERGY      -908.735015817214
FINAL SINGLE POINT ENERGY      -908.735109753733
FINAL SINGLE POINT ENERGY      -908.735069897993
Dispersion correction             ... done (  0.0 sec)
Dispersion correction           -0.056966090
FINAL SINGLE POINT ENERGY      -908.735079414836
Dispersion correction             ... done (  0.0 sec)
Dispersion correction           -0.056953110
FINAL SINGLE POINT ENERGY      -908.735075883206
Dispersion correction             ... done (  0.0 sec)
                    ***********************HURRAY********************

CARTESIAN COORDINATES (ANGSTROEM)
---------------------------------
  O      2.335544   -0.321007   -1.149896
  O     -0.165725    2.830650   -2.246967
  O      0.206156   -3.793974    0.790241
  O     -2.111680   -1.068802   -1.429406
  N      0.395775   -1.886184    2.005800
  N     -1.375923   -0.191227    0.515074
  N      1.071758   -1.948330   -0.218291
  N     -0.771219    0.738858   -1.599126
  C      1.399847    0.138555    0.973454
  C     -0.348790    2.728039   -0.088072
  C      0.589767   -0.474143    2.069443
  C     -0.394048    0.407618    1.313177
  C      2.287980    1.311336    1.227303
  C     -1.603176    3.386858    0.318218
  C      1.653288   -0.689331   -0.222659
  C     -0.443346    2.050147   -1.342532
  C      0.524996   -2.631066    0.865059
  C     -1.466264   -0.220521   -0.861391
  H      0.833331   -0.147418    3.071544
  H     -0.529658    1.404832    1.698560
  H      2.419374    1.894069    0.322715
  H      1.863388    1.957591    1.991380
  H      3.264532    0.963928    1.567269
  H     -2.507110    2.782662    0.195506
  H     -1.558070    3.840156    1.304103
  H     -1.682363    4.201827   -0.415363
  H     -0.031555   -2.370032    2.774611
  H     -1.838195   -1.001314    0.901002
  H      1.226676   -2.514666   -1.037443
  H     -0.792688    0.535888   -2.588711

 Multiplicity           Mult            ....    1
 Number of Electrons    NEL             ....  132
 Basis Dimension        Dim             ....  882

ORBITAL ENERGIES
----------------

  NO   OCC          E(Eh)            E(eV)
   0   2.0000     -19.338097      -526.2164
   1   2.0000     -19.331042      -526.0244
   2   2.0000     -19.328894      -525.9659
   3   2.0000     -19.322642      -525.7958
   4   2.0000     -14.573396      -396.5623
   5   2.0000     -14.571279      -396.5047
   6   2.0000     -14.568302      -396.4236
   7   2.0000     -14.566251      -396.3678
   8   2.0000     -10.516295      -286.1629
   9   2.0000     -10.509720      -285.9840
  10   2.0000     -10.486851      -285.3617
  11   2.0000     -10.482493      -285.2431
  12   2.0000     -10.448842      -284.3274
  13   2.0000     -10.445547      -284.2378
  14   2.0000     -10.419851      -283.5386
  15   2.0000     -10.419619      -283.5322
  16   2.0000     -10.381279      -282.4890
  17   2.0000     -10.359200      -281.8882
  18   2.0000      -1.228167       -33.4201
  19   2.0000      -1.222383       -33.2627
  20   2.0000      -1.203029       -32.7361
  21   2.0000      -1.199220       -32.6324
  22   2.0000      -1.125763       -30.6336
  23   2.0000      -1.096209       -29.8294
  24   2.0000      -1.074358       -29.2348
  25   2.0000      -1.064902       -28.9774
  26   2.0000      -0.988770       -26.9058
  27   2.0000      -0.939054       -25.5530
  28   2.0000      -0.879605       -23.9353
  29   2.0000      -0.826026       -22.4773
  30   2.0000      -0.814897       -22.1745
  31   2.0000      -0.807499       -21.9732
  32   2.0000      -0.790942       -21.5226
  33   2.0000      -0.780619       -21.2417
  34   2.0000      -0.721300       -19.6276
  35   2.0000      -0.699968       -19.0471
  36   2.0000      -0.692297       -18.8384
  37   2.0000      -0.662393       -18.0246
  38   2.0000      -0.639882       -17.4121
  39   2.0000      -0.634076       -17.2541
  40   2.0000      -0.616365       -16.7721
  41   2.0000      -0.603389       -16.4191
  42   2.0000      -0.596830       -16.2406
  43   2.0000      -0.590788       -16.0762
  44   2.0000      -0.578329       -15.7371
  45   2.0000      -0.568543       -15.4708
  46   2.0000      -0.563963       -15.3462
  47   2.0000      -0.561173       -15.2703
  48   2.0000      -0.556196       -15.1349
  49   2.0000      -0.552682       -15.0392
  50   2.0000      -0.544858       -14.8264
  51   2.0000      -0.543350       -14.7853
  52   2.0000      -0.530032       -14.4229
  53   2.0000      -0.511221       -13.9110
  54   2.0000      -0.508310       -13.8318
  55   2.0000      -0.490871       -13.3573
  56   2.0000      -0.433447       -11.7947
  57   2.0000      -0.426377       -11.6023
  58   2.0000      -0.418777       -11.3955
  59   2.0000      -0.406693       -11.0667
  60   2.0000      -0.398243       -10.8367
  61   2.0000      -0.395250       -10.7553
  62   2.0000      -0.392456       -10.6793
  63   2.0000      -0.383609       -10.4385
  64   2.0000      -0.362126        -9.8540
  65   2.0000      -0.342937        -9.3318
  66   0.0000      -0.025121        -0.6836
  67   0.0000       0.008959         0.2438
  68   0.0000       0.020573         0.5598
  69   0.0000       0.030262         0.8235
  70   0.0000       0.036104         0.9824

MULLIKEN ATOMIC CHARGES
-----------------------
   0 O :   -0.660529
   1 O :   -0.634066
   2 O :   -0.644649
   3 O :   -0.647035
   4 N :   -0.217507
   5 N :   -0.129685
   6 N :    0.017396
   7 N :    0.049270
   8 C :    1.340018
   9 C :   -0.080952
  10 C :    0.286458
  11 C :   -0.808524
  12 C :   -1.647565
  13 C :   -1.068693
  14 C :    0.195254
  15 C :    0.842354
  16 C :    0.440081
  17 C :    0.479142
  18 H :    0.303571
  19 H :    0.432762
  20 H :    0.291519
  21 H :    0.321577
  22 H :    0.417995
  23 H :    0.288706
  24 H :    0.288516
  25 H :    0.357381
  26 H :    0.035724
  27 H :    0.101744
  28 H :    0.032794
  29 H :    0.016945
Sum of atomic charges:   -0.0000000

LOEWDIN ATOMIC CHARGES
----------------------
   0 O :    0.110435
   1 O :    0.095767
   2 O :    0.094589
   3 O :    0.099742
   4 N :    0.284345
   5 N :    0.263116
   6 N :    0.339304
   7 N :    0.339032
   8 C :   -0.112431
   9 C :    0.140723
  10 C :   -0.106921
  11 C :    0.027925
  12 C :    0.180376
  13 C :    0.106641
  14 C :   -0.394525
  15 C :   -0.512864
  16 C :   -0.481141
  17 C :   -0.469592
  18 H :    0.055566
  19 H :   -0.005002
  20 H :   -0.006797
  21 H :   -0.001504
  22 H :    0.008967
  23 H :    0.002988
  24 H :   -0.016649
  25 H :    0.020796
  26 H :   -0.026401
  27 H :   -0.025982
  28 H :   -0.005098
  29 H :   -0.005405

  Mayer bond orders larger than 0.100000
B(  0-O ,  8-C ) :  -0.1287 B(  0-O , 14-C ) :   1.5547 B(  1-O ,  9-C ) :   0.2306
B(  1-O , 15-C ) :   1.2281 B(  2-O , 16-C ) :   1.5749 B(  3-O , 17-C ) :   1.4948
B(  4-N ,  8-C ) :   0.1564 B(  4-N , 10-C ) :   0.4936 B(  4-N , 16-C ) :   1.0976
B(  4-N , 26-H ) :   1.1200 B(  5-N , 11-C ) :   0.6402 B(  5-N , 17-C ) :   0.9714
B(  5-N , 19-H ) :  -0.1401 B(  5-N , 27-H ) :   1.0319 B(  6-N , 10-C ) :   0.1493
B(  6-N , 14-C ) :   1.0569 B(  6-N , 16-C ) :   0.9421 B(  6-N , 28-H ) :   1.1088
B(  7-N , 15-C ) :   0.9707 B(  7-N , 17-C ) :   0.9612 B(  7-N , 29-H ) :   1.1126
B(  8-C , 10-C ) :   0.6225 B(  8-C , 11-C ) :   0.4892 B(  8-C , 12-C ) :   0.1647
B(  8-C , 14-C ) :   0.4785 B(  8-C , 18-H ) :  -0.1119 B(  8-C , 19-H ) :  -0.1213
B(  8-C , 20-H ) :  -0.1177 B(  8-C , 21-H ) :  -0.1208 B(  9-C , 13-C ) :   0.6165
B(  9-C , 15-C ) :   0.7217 B( 10-C , 11-C ) :   0.7503 B( 10-C , 12-C ) :  -0.1559
B( 10-C , 14-C ) :  -0.1209 B( 10-C , 16-C ) :  -0.1099 B( 10-C , 18-H ) :   1.0629
B( 11-C , 14-C ) :   0.1389 B( 11-C , 17-C ) :  -0.1029 B( 11-C , 19-H ) :   0.9945
B( 12-C , 20-H ) :   1.0697 B( 12-C , 21-H ) :   1.0435 B( 12-C , 22-H ) :   0.7389
B( 13-C , 23-H ) :   0.9573 B( 13-C , 24-H ) :   1.0468 B( 13-C , 25-H ) :   0.8626

Dispersion correction           -0.056945894
FINAL SINGLE POINT ENERGY      -908.735077043556

DIPOLE MOMENT
-------------

Method             : SCF
Type of density    : Electron Density
Multiplicity       :   1
Irrep              :   0
Energy             :  -908.6781311492446775 Eh
Relativity type    :
Basis              : AO
                                X                 Y                 Z
Electronic contribution:     -0.192733689      -9.859431783      -6.304720648
Nuclear contribution   :     -0.353917501      10.775822112       8.844990686
                        -----------------------------------------
Total Dipole Moment    :     -0.546651190       0.916390328       2.540270038
                        -----------------------------------------
Magnitude (a.u.)       :      2.755280498
Magnitude (Debye)      :      7.003366459

Rotational constants in cm-1:             0.022655             0.012319             0.011238
Rotational constants in MHz :           679.182562           369.317797           336.895383

                             ****ORCA TERMINATED NORMALLY****
TOTAL RUN TIME: 0 days 1 hours 53 minutes 6 seconds 84 msec
