                         Program Version 6.0.0  -   RELEASE  -
|  1> ! opt def2-TZVPPD wB97M-D3BJ
|  2> %pal nprocs 8 end%pal nprocs 32 end
|  3> %geom Constraints
|  4> {B 9 8 3.2 C}
|  5> {A 8 9 11 34.0 C}
|  6> end
|  7> MaxIter 300
|  8> end
|  9> *xyz 0 1
| 10> O   2.98579685529314 0.88758230159078 -0.86184571092411
| 11> O   -0.03983205397054 0.68929041702508 -2.10362336723772
| 12> O   0.93431434349854 -3.13274393337945 -0.68767288184107
| 13> O   -3.75829998830163 -0.84727300865116 -0.0472717177755
| 14> N   0.21184538946282 -1.54604804365365 0.7617588924445
| 15> N   -2.13631993928911 0.03188773433438 1.27350571071531
| 16> N   2.02598672506387 -1.14318467211666 -0.64531219127023
| 17> N   -1.91814233924584 0.03137116037665 -1.04498946748291
| 18> C   1.18097737274226 0.71693507080484 0.70173889017321
| 19> C   -0.20686880480777 1.27024627933494 0.21345042231937
| 20> C   0.41441080275909 -0.34173258966541 1.52336266615173
| 21> C   -0.82922175114212 0.58960593673968 1.44434972027296
| 22> C   1.92822011286806 1.69488653817281 1.5963734975385
| 23> C   -0.37809776891576 2.77134929626422 0.04819649358288
| 24> C   2.1403947470937 0.1972384729179 -0.35038567829864
| 25> C   -0.67361678962426 0.6214190571346 -1.0793014500539
| 26> C   1.04142578622994 -2.02697492875068 -0.21027082435993
| 27> C   -2.68467002550422 -0.30396816036989 0.07167054343891
| 28> H   0.80817443950001 -0.54572267081061 2.51895215321335
| 29> H   -0.83785272399001 1.27240685039143 2.28901317073582
| 30> H   2.31167340578204 2.52284411740894 1.00913016264629
| 31> H   1.28982602448342 2.08257620823614 2.38710022492991
| 32> H   2.77390820759972 1.19140411795486 2.06045858523949
| 33> H   -1.41857211141493 3.00964947214868 -0.16882755561625
| 34> H   -0.09065531563179 3.29799318042223 0.95389844358819
| 35> H   0.23426221611057 3.12492645074476 -0.77764887675592
| 36> H   -0.46772570547622 -2.21560145172536 1.0787081584806
| 37> H   -2.71769301149571 -0.17090724573546 2.06627440900372
| 38> H   2.60065167263658 -1.49057255715425 -1.3966820077142
| 39> H   -2.27169977231386 -0.32388339999036 -1.91951041514436
| 40> *
| 41>
| 42>                          ****END OF INPUT****
 Total Charge           Charge          ....    0
 Multiplicity           Mult            ....    1
 Number of Electrons    NEL             ....  132
Dispersion correction           -0.052918575
FINAL SINGLE POINT ENERGY      -908.467760563805
Dispersion correction             ... done (  0.0 sec)
Dispersion correction           -0.052919059
FINAL SINGLE POINT ENERGY      -908.545923704912
Dispersion correction             ... done (  0.0 sec)
Dispersion correction           -0.052908525
FINAL SINGLE POINT ENERGY      -908.592883502416
Dispersion correction             ... done (  0.0 sec)
FINAL SINGLE POINT ENERGY      -908.634299480714
FINAL SINGLE POINT ENERGY      -908.667653722376
FINAL SINGLE POINT ENERGY      -908.686049426520
FINAL SINGLE POINT ENERGY      -908.695435629931
FINAL SINGLE POINT ENERGY      -908.701733199066
FINAL SINGLE POINT ENERGY      -908.709237723385
FINAL SINGLE POINT ENERGY      -908.713782929606
FINAL SINGLE POINT ENERGY      -908.739651350728
FINAL SINGLE POINT ENERGY      -908.740030927644
FINAL SINGLE POINT ENERGY      -908.740354880669
FINAL SINGLE POINT ENERGY      -908.740416825252
FINAL SINGLE POINT ENERGY      -908.740466735658
FINAL SINGLE POINT ENERGY      -908.740484826041
FINAL SINGLE POINT ENERGY      -908.740497253910
Dispersion correction             ... done (  0.0 sec)
Dispersion correction           -0.057312308
FINAL SINGLE POINT ENERGY      -908.740501317622
Dispersion correction             ... done (  0.0 sec)
Dispersion correction           -0.057325932
FINAL SINGLE POINT ENERGY      -908.740499486015
Dispersion correction             ... done (  0.0 sec)
                    ***********************HURRAY********************

CARTESIAN COORDINATES (ANGSTROEM)
---------------------------------
  O      2.305092   -0.287209   -1.162090
  O     -0.194645    2.799711   -2.274489
  O      0.215223   -3.786298    0.774925
  O     -2.141873   -1.087033   -1.395274
  N      0.387417   -1.879196    1.993848
  N     -1.381642   -0.173270    0.523140
  N      1.066829   -1.932432   -0.229879
  N     -0.794610    0.711110   -1.611021
  C      1.356835    0.166190    0.958983
  C     -0.306634    2.684177   -0.105258
  C      0.584471   -0.469405    2.067372
  C     -0.379765    0.426654    1.303180
  C      2.268376    1.320925    1.222609
  C     -1.534243    3.367637    0.341398
  C      1.626694   -0.665112   -0.236903
  C     -0.450217    2.020242   -1.363087
  C      0.523787   -2.621103    0.852359
  C     -1.484867   -0.232115   -0.850219
  H      0.837611   -0.145853    3.067614
  H     -0.533129    1.408545    1.720293
  H      2.410632    1.907401    0.322676
  H      1.854842    1.969017    1.991292
  H      3.236387    0.949954    1.561246
  H     -2.455572    2.786146    0.241833
  H     -1.450306    3.814003    1.328066
  H     -1.613920    4.188383   -0.385494
  H     -0.034168   -2.368250    2.762509
  H     -1.854766   -0.965111    0.932372
  H      1.229261   -2.497597   -1.048434
  H     -0.840501    0.504889   -2.598969

 Multiplicity           Mult            ....    1
 Number of Electrons    NEL             ....  132
 Basis Dimension        Dim             ....  882

ORBITAL ENERGIES
----------------

  NO   OCC          E(Eh)            E(eV)
   0   2.0000     -19.336676      -526.1777
   1   2.0000     -19.332503      -526.0641
   2   2.0000     -19.327497      -525.9279
   3   2.0000     -19.323047      -525.8068
   4   2.0000     -14.571772      -396.5181
   5   2.0000     -14.570118      -396.4731
   6   2.0000     -14.569059      -396.4443
   7   2.0000     -14.567212      -396.3940
   8   2.0000     -10.514948      -286.1263
   9   2.0000     -10.510275      -285.9991
  10   2.0000     -10.488157      -285.3973
  11   2.0000     -10.481330      -285.2115
  12   2.0000     -10.447731      -284.2972
  13   2.0000     -10.444879      -284.2196
  14   2.0000     -10.420584      -283.5585
  15   2.0000     -10.418775      -283.5093
  16   2.0000     -10.380716      -282.4737
  17   2.0000     -10.358944      -281.8812
  18   2.0000      -1.227622       -33.4053
  19   2.0000      -1.222574       -33.2679
  20   2.0000      -1.201662       -32.6989
  21   2.0000      -1.200529       -32.6681
  22   2.0000      -1.126663       -30.6581
  23   2.0000      -1.095647       -29.8141
  24   2.0000      -1.073906       -29.2225
  25   2.0000      -1.065312       -28.9886
  26   2.0000      -0.992974       -27.0202
  27   2.0000      -0.938463       -25.5369
  28   2.0000      -0.879280       -23.9264
  29   2.0000      -0.825473       -22.4622
  30   2.0000      -0.814872       -22.1738
  31   2.0000      -0.807826       -21.9821
  32   2.0000      -0.791221       -21.5302
  33   2.0000      -0.779851       -21.2208
  34   2.0000      -0.721607       -19.6359
  35   2.0000      -0.700511       -19.0619
  36   2.0000      -0.692964       -18.8565
  37   2.0000      -0.663933       -18.0665
  38   2.0000      -0.639414       -17.3993
  39   2.0000      -0.633229       -17.2310
  40   2.0000      -0.616418       -16.7736
  41   2.0000      -0.604535       -16.4502
  42   2.0000      -0.595911       -16.2156
  43   2.0000      -0.590356       -16.0644
  44   2.0000      -0.578470       -15.7410
  45   2.0000      -0.567957       -15.4549
  46   2.0000      -0.563452       -15.3323
  47   2.0000      -0.561079       -15.2677
  48   2.0000      -0.555949       -15.1281
  49   2.0000      -0.553259       -15.0549
  50   2.0000      -0.543940       -14.8014
  51   2.0000      -0.542962       -14.7748
  52   2.0000      -0.530768       -14.4429
  53   2.0000      -0.510403       -13.8888
  54   2.0000      -0.507211       -13.8019
  55   2.0000      -0.489527       -13.3207
  56   2.0000      -0.432591       -11.7714
  57   2.0000      -0.425599       -11.5811
  58   2.0000      -0.419458       -11.4140
  59   2.0000      -0.406872       -11.0715
  60   2.0000      -0.398534       -10.8447
  61   2.0000      -0.395166       -10.7530
  62   2.0000      -0.391903       -10.6642
  63   2.0000      -0.382796       -10.4164
  64   2.0000      -0.370014       -10.0686
  65   2.0000      -0.341809        -9.3011
  66   0.0000      -0.023878        -0.6498
  67   0.0000       0.009074         0.2469
  68   0.0000       0.024918         0.6781
  69   0.0000       0.031089         0.8460
  70   0.0000       0.036002         0.9797

MULLIKEN ATOMIC CHARGES
-----------------------
   0 O :   -0.655947
   1 O :   -0.637271
   2 O :   -0.644554
   3 O :   -0.651605
   4 N :   -0.201946
   5 N :   -0.122548
   6 N :    0.015918
   7 N :    0.053811
   8 C :    1.530568
   9 C :   -0.033769
  10 C :    0.167905
  11 C :   -0.841248
  12 C :   -1.659946
  13 C :   -1.098097
  14 C :    0.130968
  15 C :    0.805358
  16 C :    0.445168
  17 C :    0.495206
  18 H :    0.293125
  19 H :    0.427582
  20 H :    0.299538
  21 H :    0.323148
  22 H :    0.424091
  23 H :    0.293944
  24 H :    0.291206
  25 H :    0.362957
  26 H :    0.032845
  27 H :    0.102408
  28 H :    0.032380
  29 H :    0.018803
Sum of atomic charges:   -0.0000000

LOEWDIN ATOMIC CHARGES
----------------------
   0 O :    0.113472
   1 O :    0.095555
   2 O :    0.095585
   3 O :    0.098724
   4 N :    0.285574
   5 N :    0.266607
   6 N :    0.340667
   7 N :    0.338377
   8 C :   -0.127921
   9 C :    0.141677
  10 C :   -0.095599
  11 C :    0.009718
  12 C :    0.181335
  13 C :    0.106415
  14 C :   -0.389966
  15 C :   -0.510603
  16 C :   -0.479373
  17 C :   -0.471921
  18 H :    0.055964
  19 H :   -0.000722
  20 H :   -0.008098
  21 H :   -0.000440
  22 H :    0.009416
  23 H :    0.003092
  24 H :   -0.016225
  25 H :    0.020818
  26 H :   -0.026077
  27 H :   -0.026090
  28 H :   -0.004645
  29 H :   -0.005316

  Mayer bond orders larger than 0.100000
B(  0-O ,  8-C ) :  -0.1416 B(  0-O , 14-C ) :   1.5769 B(  1-O ,  9-C ) :   0.2252
B(  1-O , 15-C ) :   1.2317 B(  2-O , 16-C ) :   1.5749 B(  3-O , 17-C ) :   1.4926
B(  4-N ,  8-C ) :   0.1368 B(  4-N , 10-C ) :   0.5425 B(  4-N , 16-C ) :   1.0963
B(  4-N , 26-H ) :   1.1235 B(  5-N , 11-C ) :   0.6376 B(  5-N , 17-C ) :   0.9675
B(  5-N , 19-H ) :  -0.1393 B(  5-N , 27-H ) :   1.0335 B(  6-N , 10-C ) :   0.1405
B(  6-N , 14-C ) :   1.0607 B(  6-N , 16-C ) :   0.9408 B(  6-N , 28-H ) :   1.1094
B(  7-N , 15-C ) :   0.9655 B(  7-N , 17-C ) :   0.9638 B(  7-N , 29-H ) :   1.1094
B(  8-C , 10-C ) :   0.6348 B(  8-C , 11-C ) :   0.4115 B(  8-C , 14-C ) :   0.3790
B(  8-C , 18-H ) :  -0.1056 B(  8-C , 19-H ) :  -0.1138 B(  8-C , 20-H ) :  -0.1158
B(  8-C , 21-H ) :  -0.1263 B(  9-C , 13-C ) :   0.5858 B(  9-C , 15-C ) :   0.7420
B( 10-C , 11-C ) :   0.7516 B( 10-C , 12-C ) :  -0.1476 B( 10-C , 14-C ) :  -0.1178
B( 10-C , 16-C ) :  -0.1105 B( 10-C , 18-H ) :   1.0701 B( 11-C , 14-C ) :   0.1223
B( 11-C , 19-H ) :   1.0086 B( 12-C , 20-H ) :   1.0713 B( 12-C , 21-H ) :   1.0544
B( 12-C , 22-H ) :   0.7312 B( 13-C , 23-H ) :   0.9638 B( 13-C , 24-H ) :   1.0472
B( 13-C , 25-H ) :   0.8609

Dispersion correction           -0.057331493
FINAL SINGLE POINT ENERGY      -908.740504394156

DIPOLE MOMENT
-------------

Method             : SCF
Type of density    : Electron Density
Multiplicity       :   1
Irrep              :   0
Energy             :  -908.6831729009072660 Eh
Relativity type    :
Basis              : AO
                                X                 Y                 Z
Electronic contribution:     -0.310568806      -9.879442058      -6.429147405
Nuclear contribution   :     -0.167013337      10.781724383       9.008107277
                        -----------------------------------------
Total Dipole Moment    :     -0.477582143       0.902282325       2.578959872
                        -----------------------------------------
Magnitude (a.u.)       :      2.773667629
Magnitude (Debye)      :      7.050102833

Rotational constants in cm-1:             0.022699             0.012486             0.011357
Rotational constants in MHz :           680.506634           374.309780           340.464768

                             ****ORCA TERMINATED NORMALLY****
TOTAL RUN TIME: 0 days 2 hours 23 minutes 1 seconds 140 msec
