                         Program Version 6.0.0  -   RELEASE  -
|  1> ! Opt wB97M-D3BJ def2-TZVPPD
|  2> %pal nprocs 8 end %pal nprocs 64 end
|  3> %geom
|  4> Constraints
|  5>     {A 2 1 0 127.11864406779661 C }
|  6> end
|  7> MaxIter 200
|  8> end
|  9> *xyz 0 1
| 10> O   1.6151001246109684 0.7371455152810188 0.0
| 11> C   0.7509 -0.4065 0.0
| 12> C   -0.7502 -0.4076 0.0
| 13> H   1.2625 -0.6786 0.9136
| 14> H   1.2625 -0.6787 -0.9136
| 15> H   -1.2614 -0.6806 -0.9136
| 16> H   -1.2614 -0.6805 0.9136
| 17> *
| 18>
| 19>                          ****END OF INPUT****
 Total Charge           Charge          ....    0
 Multiplicity           Mult            ....    1
 Number of Electrons    NEL             ....   24
Dispersion correction           -0.005357442
FINAL SINGLE POINT ENERGY      -153.693908535910
Dispersion correction             ... done (  0.1 sec)
Dispersion correction           -0.005426644
FINAL SINGLE POINT ENERGY      -153.711124206005
Dispersion correction             ... done (  0.1 sec)
Dispersion correction           -0.005490982
FINAL SINGLE POINT ENERGY      -153.719995774869
Dispersion correction             ... done (  0.1 sec)
FINAL SINGLE POINT ENERGY      -153.727951737614
FINAL SINGLE POINT ENERGY      -153.738582995031
FINAL SINGLE POINT ENERGY      -153.755178745455
FINAL SINGLE POINT ENERGY      -153.787349692797
FINAL SINGLE POINT ENERGY      -153.816069741070
FINAL SINGLE POINT ENERGY      -153.850937727049
FINAL SINGLE POINT ENERGY      -153.871703648148
FINAL SINGLE POINT ENERGY      -153.931220215711
FINAL SINGLE POINT ENERGY      -153.931259147739
FINAL SINGLE POINT ENERGY      -153.931288399855
FINAL SINGLE POINT ENERGY      -153.931329210420
FINAL SINGLE POINT ENERGY      -153.931389723550
FINAL SINGLE POINT ENERGY      -153.931481798669
FINAL SINGLE POINT ENERGY      -153.931585647529
Dispersion correction             ... done (  0.1 sec)
Dispersion correction           -0.005532329
FINAL SINGLE POINT ENERGY      -153.931663866171
Dispersion correction             ... done (  0.1 sec)
Dispersion correction           -0.005530580
FINAL SINGLE POINT ENERGY      -153.931679643978
Dispersion correction             ... done (  0.1 sec)
                    ***********************HURRAY********************

CARTESIAN COORDINATES (ANGSTROEM)
---------------------------------
  O      1.366222    1.060128   -0.071106
  C      0.927471   -0.003210    0.274087
  C     -0.310693   -0.677823   -0.232248
  H      1.466531   -0.583535    1.050296
  H     -0.040131   -1.652304   -0.640039
  H     -0.809390   -0.079148   -0.988712
  H     -0.982010   -0.859463    0.607723

 Multiplicity           Mult            ....    1
 Number of Electrons    NEL             ....   24
 Basis Dimension        Dim             ....  182

ORBITAL ENERGIES
----------------

  NO   OCC          E(Eh)            E(eV)
   0   2.0000     -19.339793      -526.2625
   1   2.0000     -10.443126      -284.1719
   2   2.0000     -10.358460      -281.8680
   3   2.0000      -1.188551       -32.3421
   4   2.0000      -0.886066       -24.1111
   5   2.0000      -0.701583       -19.0911
   6   2.0000      -0.597981       -16.2719
   7   2.0000      -0.561727       -15.2854
   8   2.0000      -0.555249       -15.1091
   9   2.0000      -0.508697       -13.8423
  10   2.0000      -0.476920       -12.9776
  11   2.0000      -0.368138       -10.0175
  12   0.0000       0.037175         1.0116
  13   0.0000       0.055299         1.5048
  14   0.0000       0.059217         1.6114
  15   0.0000       0.083034         2.2595
  16   0.0000       0.086080         2.3424

MULLIKEN ATOMIC CHARGES
-----------------------
   0 O :   -0.475139
   1 C :    0.234439
   2 C :   -0.696147
   3 H :    0.238532
   4 H :    0.228257
   5 H :    0.241860
   6 H :    0.228198
Sum of atomic charges:    0.0000000

LOEWDIN ATOMIC CHARGES
----------------------
   0 O :    0.070603
   1 C :   -0.233605
   2 C :    0.169469
   3 H :    0.022924
   4 H :   -0.010403
   5 H :   -0.008595
   6 H :   -0.010394

  Mayer bond orders larger than 0.100000
B(  0-O ,  1-C ) :   1.7701 B(  1-C ,  2-C ) :   0.7544 B(  1-C ,  3-H ) :   0.9884
B(  2-C ,  4-H ) :   0.9927 B(  2-C ,  5-H ) :   0.9571 B(  2-C ,  6-H ) :   0.9925

Dispersion correction           -0.005530268
FINAL SINGLE POINT ENERGY      -153.931680024706

DIPOLE MOMENT
-------------

Method             : SCF
Type of density    : Electron Density
Multiplicity       :   1
Irrep              :   0
Energy             :  -153.9261497569834773 Eh
Relativity type    :
Basis              : AO
                                X                 Y                 Z
Electronic contribution:      2.234332682       2.461951220       0.121416640
Nuclear contribution   :     -2.793671320      -3.439835269       0.078198642
                        -----------------------------------------
Total Dipole Moment    :     -0.559338638      -0.977884049       0.199615282
                        -----------------------------------------
Magnitude (a.u.)       :      1.144099290
Magnitude (Debye)      :      2.908069287

Rotational constants in cm-1:             1.987184             0.334422             0.302139
Rotational constants in MHz :         59574.288230         10025.714453          9057.908454

                             ****ORCA TERMINATED NORMALLY****
TOTAL RUN TIME: 0 days 0 hours 6 minutes 21 seconds 732 msec
