                         Program Version 6.0.0  -   RELEASE  -
|  1> ! EnGrad wB97M-D3BJ def2-TZVPPD
|  2> %pal nprocs 8 end%pal nprocs 16 end
|  3> %tddft
|  4>  sf true
|  5>  nroots 2 Iroot 1 end
|  6> *xyz 0 3
|  7> O   0.53703281507079 1.35039874059435 0.09010782165612
|  8> C   0.55570301028334 0.20110720649977 -0.26228387039177
|  9> C   -0.42878675800533 -0.82826571637301 0.20803921737875
| 10> H   0.10449313691587 -1.64988589548246 0.68814100727754
| 11> H   1.32595593178614 -0.1547267799669 -0.97283964157228
| 12> H   -0.9527581560686 -1.25059618260523 -0.6505225718041
| 13> H   -1.1394399799822 -0.38643137266652 0.89935803745575
| 14> *
| 15>
| 16>                          ****END OF INPUT****

CARTESIAN COORDINATES (ANGSTROEM)
---------------------------------
  O      0.537033    1.350399    0.090108
  C      0.555703    0.201107   -0.262284
  C     -0.428787   -0.828266    0.208039
  H      0.104493   -1.649886    0.688141
  H      1.325956   -0.154727   -0.972840
  H     -0.952758   -1.250596   -0.650523
  H     -1.139440   -0.386431    0.899358

 Total Charge           Charge          ....    0
 Multiplicity           Mult            ....    3
 Number of Electrons    NEL             ....   24
 Basis Dimension        Dim             ....  182

ORBITAL ENERGIES
----------------
                 SPIN UP ORBITALS
  NO   OCC          E(Eh)            E(eV)
   0   1.0000     -19.409961      -528.1719
   1   1.0000     -10.379467      -282.4397
   2   1.0000     -10.366754      -282.0937
   3   1.0000      -1.246456       -33.9178
   4   1.0000      -0.881631       -23.9904
   5   1.0000      -0.718455       -19.5502
   6   1.0000      -0.635686       -17.2979
   7   1.0000      -0.586654       -15.9637
   8   1.0000      -0.582118       -15.8402
   9   1.0000      -0.514705       -14.0058
  10   1.0000      -0.513210       -13.9651
  11   1.0000      -0.434365       -11.8197
  12   1.0000      -0.220951        -6.0124
  13   0.0000       0.041214         1.1215
  14   0.0000       0.060294         1.6407
  15   0.0000       0.078648         2.1401
  16   0.0000       0.088018         2.3951
  17   0.0000       0.107945         2.9373

                 SPIN DOWN ORBITALS
  NO   OCC          E(Eh)            E(eV)
   0   1.0000     -19.382253      -527.4179
   1   1.0000     -10.369186      -282.1599
   2   1.0000     -10.364558      -282.0340
   3   1.0000      -1.188557       -32.3423
   4   1.0000      -0.862345       -23.4656
   5   1.0000      -0.673987       -18.3401
   6   1.0000      -0.585982       -15.9454
   7   1.0000      -0.540689       -14.7129
   8   1.0000      -0.535192       -14.5633
   9   1.0000      -0.499691       -13.5973
  10   1.0000      -0.471124       -12.8199
  11   0.0000      -0.082968        -2.2577
  12   0.0000       0.041505         1.1294
  13   0.0000       0.059956         1.6315
  14   0.0000       0.078602         2.1389
  15   0.0000       0.083868         2.2822

----------------------------------------------------------------------------------------------------
          SPIN FLIP ABSORPTION SPECTRUM VIA TRANSITION ELECTRIC DIPOLE MOMENTS
----------------------------------------------------------------------------------------------------
     Transition      Energy     Energy  Wavelength fosc(D2)      D2        DX        DY        DZ
                      (eV)      (cm-1)    (nm)                 (au**2)    (au)      (au)      (au)
----------------------------------------------------------------------------------------------------
  1-3A  ->  2-3A    4.564055   36811.6   271.7   0.000070191   0.00063   0.01498  -0.00558   0.01929

Dispersion correction             ... done (  0.0 sec)

MULLIKEN ATOMIC CHARGES AND SPIN DENSITIES
------------------------------------------
   0 O :   -0.511270    0.056636
   1 C :    0.205996   -0.175375
   2 C :   -0.685362    0.047680
   3 H :    0.228613   -0.005086
   4 H :    0.293857    0.076885
   5 H :    0.226919   -0.005101
   6 H :    0.241248    0.004361
Sum of atomic charges       :   -0.0000000

LOEWDIN ATOMIC CHARGES AND SPIN DENSITIES
-----------------------------------------
   0 O :    0.039819    0.022050
   1 C :   -0.220286   -0.014926
   2 C :    0.175735   -0.001786
   3 H :   -0.009645   -0.001304
   4 H :    0.030468   -0.003608
   5 H :   -0.009579   -0.001292
   6 H :   -0.006511    0.000866

  Mayer bond orders larger than 0.100000
B(  0-O ,  1-C ) :   1.7871 B(  1-C ,  2-C ) :   0.7423 B(  1-C ,  4-H ) :   0.9319
B(  2-C ,  3-H ) :   0.9927 B(  2-C ,  5-H ) :   0.9929 B(  2-C ,  6-H ) :   0.9594

Dispersion correction           -0.005537970
FINAL SINGLE POINT ENERGY      -153.924593679353

DIPOLE MOMENT
-------------

Method             : TDA/CIS
Type of density    : Electron Density
Level              : Relaxed density
State              :   1
Multiplicity       :   3
Irrep              :   0
Energy             :     0.0000000000000000 Eh
Relativity type    :
Basis              : AO
                                X                 Y                 Z
Electronic contribution:      1.272744866       2.897021326      -0.146057656
Nuclear contribution   :     -1.421019925      -4.115687366      -0.096792770
                        -----------------------------------------
Total Dipole Moment    :     -0.148275059      -1.218666041      -0.242850426
                        -----------------------------------------
Magnitude (a.u.)       :      1.251442664
Magnitude (Debye)      :      3.180914460

Rotational constants in cm-1:             1.890160             0.343191             0.306809
Rotational constants in MHz :         56665.566108         10288.620730          9197.899355

                             ****ORCA TERMINATED NORMALLY****
TOTAL RUN TIME: 0 days 0 hours 0 minutes 16 seconds 376 msec
