                         Program Version 6.0.0  -   RELEASE  -
|  1> ! Engrad def2-TZVPPD wB97M-D3BJ
|  2> %pal nprocs 8 end%pal nprocs 64 end
|  3> %tddft Nroots 2 Iroot 2
|  4> sf true
|  5> end
|  6> *xyz 0 3
|  7> O   2.87650763 1.33007983 0.06978899
|  8> O   -0.77020784 0.32777298 -2.26850222
|  9> O   1.64043179 -2.75463524 -1.55623223
| 10> O   -3.32785879 -1.12873282 1.17753669
| 11> N   0.65133591 -1.92697906 0.35151922
| 12> N   -2.08208654 0.7259793 1.49438367
| 13> N   2.11953407 -0.61739125 -0.91119059
| 14> N   -2.33030062 -0.12668627 -0.66840757
| 15> C   1.57137791 -0.03428196 1.39061547
| 16> C   -0.84816318 1.69967824 -0.3132995
| 17> C   0.67705162 -1.13020419 1.41288184
| 18> C   -1.15245875 1.70143789 1.01589882
| 19> C   1.6275447 0.91004542 2.46380801
| 20> C   0.13969112 2.64641201 -0.90568248
| 21> C   2.25885773 0.26457596 0.17398968
| 22> C   -1.21667306 0.63191543 -1.17222158
| 23> C   1.48815206 -1.88751661 -0.75334421
| 24> C   -2.54175769 -0.31578052 0.71698089
| 25> H   -0.06746265 -1.37205003 2.18049943
| 26> H   -0.87557229 2.44482529 1.74152661
| 27> H   1.79852776 1.98884358 2.11325065
| 28> H   0.64670394 0.90068204 3.06113267
| 29> H   2.48147476 0.68696584 3.10189598
| 30> H   0.6102913 2.15298854 -1.74952473
| 31> H   -0.32426031 3.62835271 -1.17260103
| 32> H   0.89832673 2.81645546 -0.17071948
| 33> H   0.21379272 -2.87233968 0.35747946
| 34> H   -2.35502079 0.81924835 2.45699801
| 35> H   2.50533996 -0.29966714 -1.75195744
| 36> H   -2.7890605 -0.80859202 -1.24182324
| 37> *
| 38>
| 39>                          ****END OF INPUT****

CARTESIAN COORDINATES (ANGSTROEM)
---------------------------------
  O      2.876508    1.330080    0.069789
  O     -0.770208    0.327773   -2.268502
  O      1.640432   -2.754635   -1.556232
  O     -3.327859   -1.128733    1.177537
  N      0.651336   -1.926979    0.351519
  N     -2.082087    0.725979    1.494384
  N      2.119534   -0.617391   -0.911191
  N     -2.330301   -0.126686   -0.668408
  C      1.571378   -0.034282    1.390615
  C     -0.848163    1.699678   -0.313300
  C      0.677052   -1.130204    1.412882
  C     -1.152459    1.701438    1.015899
  C      1.627545    0.910045    2.463808
  C      0.139691    2.646412   -0.905682
  C      2.258858    0.264576    0.173990
  C     -1.216673    0.631915   -1.172222
  C      1.488152   -1.887517   -0.753344
  C     -2.541758   -0.315781    0.716981
  H     -0.067463   -1.372050    2.180499
  H     -0.875572    2.444825    1.741527
  H      1.798528    1.988844    2.113251
  H      0.646704    0.900682    3.061133
  H      2.481475    0.686966    3.101896
  H      0.610291    2.152989   -1.749525
  H     -0.324260    3.628353   -1.172601
  H      0.898327    2.816455   -0.170719
  H      0.213793   -2.872340    0.357479
  H     -2.355021    0.819248    2.456998
  H      2.505340   -0.299667   -1.751957
  H     -2.789061   -0.808592   -1.241823

 Total Charge           Charge          ....    0
 Multiplicity           Mult            ....    3
 Number of Electrons    NEL             ....  132
 Basis Dimension        Dim             ....  882

ORBITAL ENERGIES
----------------
                 SPIN UP ORBITALS
  NO   OCC          E(Eh)            E(eV)
   0   1.0000     -19.337213      -526.1923
   1   1.0000     -19.333770      -526.0986
   2   1.0000     -19.326913      -525.9120
   3   1.0000     -19.312242      -525.5128
   4   1.0000     -14.595981      -397.1768
   5   1.0000     -14.591349      -397.0508
   6   1.0000     -14.562566      -396.2676
   7   1.0000     -14.551384      -395.9633
   8   1.0000     -10.516635      -286.1722
   9   1.0000     -10.516401      -286.1658
  10   1.0000     -10.471193      -284.9356
  11   1.0000     -10.461163      -284.6627
  12   1.0000     -10.446195      -284.2554
  13   1.0000     -10.413385      -283.3626
  14   1.0000     -10.411759      -283.3184
  15   1.0000     -10.380170      -282.4588
  16   1.0000     -10.362496      -281.9779
  17   1.0000     -10.357261      -281.8354
  18   1.0000      -1.230646       -33.4876
  19   1.0000      -1.221355       -33.2348
  20   1.0000      -1.189598       -32.3706
  21   1.0000      -1.178428       -32.0667
  22   1.0000      -1.133077       -30.8326
  23   1.0000      -1.115613       -30.3574
  24   1.0000      -1.060544       -28.8589
  25   1.0000      -1.050600       -28.5883
  26   1.0000      -0.977364       -26.5954
  27   1.0000      -0.954092       -25.9622
  28   1.0000      -0.857119       -23.3234
  29   1.0000      -0.850588       -23.1457
  30   1.0000      -0.815037       -22.1783
  31   1.0000      -0.809144       -22.0179
  32   1.0000      -0.783577       -21.3222
  33   1.0000      -0.774569       -21.0771
  34   1.0000      -0.695084       -18.9142
  35   1.0000      -0.689604       -18.7651
  36   1.0000      -0.686154       -18.6712
  37   1.0000      -0.680913       -18.5286
  38   1.0000      -0.654644       -17.8138
  39   1.0000      -0.635615       -17.2960
  40   1.0000      -0.628716       -17.1082
  41   1.0000      -0.607017       -16.5178
  42   1.0000      -0.602476       -16.3942
  43   1.0000      -0.590460       -16.0672
  44   1.0000      -0.576642       -15.6912
  45   1.0000      -0.570384       -15.5209
  46   1.0000      -0.565154       -15.3786
  47   1.0000      -0.561687       -15.2843
  48   1.0000      -0.549598       -14.9553
  49   1.0000      -0.548401       -14.9228
  50   1.0000      -0.525475       -14.2989
  51   1.0000      -0.523145       -14.2355
  52   1.0000      -0.514467       -13.9994
  53   1.0000      -0.513939       -13.9850
  54   1.0000      -0.500696       -13.6246
  55   1.0000      -0.485241       -13.2041
  56   1.0000      -0.483824       -13.1655
  57   1.0000      -0.478581       -13.0229
  58   1.0000      -0.427242       -11.6258
  59   1.0000      -0.422793       -11.5048
  60   1.0000      -0.407686       -11.0937
  61   1.0000      -0.394801       -10.7431
  62   1.0000      -0.388505       -10.5718
  63   1.0000      -0.387784       -10.5521
  64   1.0000      -0.379865       -10.3367
  65   1.0000      -0.332157        -9.0385
  66   1.0000      -0.231056        -6.2874
  67   0.0000       0.006506         0.1770
  68   0.0000       0.012630         0.3437
  69   0.0000       0.026889         0.7317
  70   0.0000       0.038181         1.0390
  71   0.0000       0.038606         1.0505

                 SPIN DOWN ORBITALS
  NO   OCC          E(Eh)            E(eV)
   0   1.0000     -19.335225      -526.1382
   1   1.0000     -19.333724      -526.0974
   2   1.0000     -19.319928      -525.7220
   3   1.0000     -19.312271      -525.5136
   4   1.0000     -14.591800      -397.0631
   5   1.0000     -14.591228      -397.0475
   6   1.0000     -14.562575      -396.2678
   7   1.0000     -14.550420      -395.9371
   8   1.0000     -10.516985      -286.1817
   9   1.0000     -10.516403      -286.1659
  10   1.0000     -10.471190      -284.9356
  11   1.0000     -10.460734      -284.6511
  12   1.0000     -10.445951      -284.2488
  13   1.0000     -10.402942      -283.0784
  14   1.0000     -10.402218      -283.0587
  15   1.0000     -10.380119      -282.4574
  16   1.0000     -10.362410      -281.9755
  17   1.0000     -10.357538      -281.8429
  18   1.0000      -1.230549       -33.4849
  19   1.0000      -1.217141       -33.1201
  20   1.0000      -1.179248       -32.0890
  21   1.0000      -1.178174       -32.0598
  22   1.0000      -1.132827       -30.8258
  23   1.0000      -1.105164       -30.0731
  24   1.0000      -1.060518       -28.8582
  25   1.0000      -1.045375       -28.4461
  26   1.0000      -0.956299       -26.0222
  27   1.0000      -0.951402       -25.8890
  28   1.0000      -0.856604       -23.3094
  29   1.0000      -0.837618       -22.7927
  30   1.0000      -0.810314       -22.0498
  31   1.0000      -0.802346       -21.8330
  32   1.0000      -0.776099       -21.1187
  33   1.0000      -0.774478       -21.0746
  34   1.0000      -0.694744       -18.9049
  35   1.0000      -0.683031       -18.5862
  36   1.0000      -0.681012       -18.5313
  37   1.0000      -0.675153       -18.3718
  38   1.0000      -0.654277       -17.8038
  39   1.0000      -0.628402       -17.0997
  40   1.0000      -0.620544       -16.8859
  41   1.0000      -0.597349       -16.2547
  42   1.0000      -0.590554       -16.0698
  43   1.0000      -0.589471       -16.0403
  44   1.0000      -0.570347       -15.5199
  45   1.0000      -0.566626       -15.4187
  46   1.0000      -0.558160       -15.1883
  47   1.0000      -0.551916       -15.0184
  48   1.0000      -0.547591       -14.9007
  49   1.0000      -0.538479       -14.6528
  50   1.0000      -0.524527       -14.2731
  51   1.0000      -0.512658       -13.9501
  52   1.0000      -0.508509       -13.8372
  53   1.0000      -0.497398       -13.5349
  54   1.0000      -0.493351       -13.4248
  55   1.0000      -0.483007       -13.1433
  56   1.0000      -0.479162       -13.0387
  57   1.0000      -0.440839       -11.9958
  58   1.0000      -0.422646       -11.5008
  59   1.0000      -0.420793       -11.4504
  60   1.0000      -0.396665       -10.7938
  61   1.0000      -0.384080       -10.4514
  62   1.0000      -0.380077       -10.3424
  63   1.0000      -0.377277       -10.2662
  64   1.0000      -0.332152        -9.0383
  65   0.0000      -0.108508        -2.9527
  66   0.0000       0.007591         0.2066
  67   0.0000       0.012147         0.3305
  68   0.0000       0.025071         0.6822
  69   0.0000       0.035897         0.9768

----------------------------------------------------------------------------------------------------
          SPIN FLIP ABSORPTION SPECTRUM VIA TRANSITION ELECTRIC DIPOLE MOMENTS
----------------------------------------------------------------------------------------------------
     Transition      Energy     Energy  Wavelength fosc(D2)      D2        DX        DY        DZ
                      (eV)      (cm-1)    (nm)                 (au**2)    (au)      (au)      (au)
----------------------------------------------------------------------------------------------------
  1-3A  ->  2-3A    3.697403   29821.6   335.3   0.000683705   0.00755  -0.00437   0.04521   0.07406

Dispersion correction             ... done (  0.1 sec)

MULLIKEN ATOMIC CHARGES AND SPIN DENSITIES
------------------------------------------
   0 O :   -0.701054   -0.000859
   1 O :   -0.672338    0.005588
   2 O :   -0.604059   -0.000063
   3 O :   -0.637661    0.001484
   4 N :    0.029798    0.001468
   5 N :    0.121475    0.030952
   6 N :    0.100498    0.000376
   7 N :   -0.006419   -0.006774
   8 C :    0.729256   -0.006872
   9 C :    1.111771    0.058442
  10 C :   -0.216362   -0.000672
  11 C :   -0.664906    0.069522
  12 C :   -1.255143    0.004468
  13 C :   -1.212471   -0.037700
  14 C :    0.252813    0.003190
  15 C :    0.208992   -0.125323
  16 C :    0.390417    0.000826
  17 C :    0.413879    0.002120
  18 H :    0.278351   -0.002764
  19 H :    0.272583   -0.010073
  20 H :    0.247718    0.000343
  21 H :    0.302978   -0.003471
  22 H :    0.377640   -0.001632
  23 H :    0.248253    0.003414
  24 H :    0.389633    0.006514
  25 H :    0.291851    0.009072
  26 H :    0.093940   -0.000361
  27 H :    0.052335   -0.002473
  28 H :   -0.003798   -0.000683
  29 H :    0.060029    0.001939
Sum of atomic charges       :   -0.0000000

LOEWDIN ATOMIC CHARGES AND SPIN DENSITIES
-----------------------------------------
   0 O :    0.042318   -0.000206
   1 O :    0.060451    0.005511
   2 O :    0.121598   -0.000082
   3 O :    0.079643    0.000730
   4 N :    0.248576    0.000127
   5 N :    0.299861    0.017357
   6 N :    0.373457   -0.000085
   7 N :    0.316302   -0.005281
   8 C :   -0.167858   -0.000349
   9 C :   -0.106433    0.002431
  10 C :    0.064613    0.000144
  11 C :    0.047880   -0.009878
  12 C :    0.103878   -0.000749
  13 C :    0.215693    0.000649
  14 C :   -0.394088   -0.000111
  15 C :   -0.426347   -0.004971
  16 C :   -0.439474   -0.000016
  17 C :   -0.467018   -0.002722
  18 H :    0.050443    0.000039
  19 H :    0.000581   -0.004437
  20 H :    0.030072   -0.000126
  21 H :    0.024371   -0.000181
  22 H :   -0.005907   -0.000202
  23 H :   -0.005049    0.000256
  24 H :    0.039372    0.000664
  25 H :   -0.033146    0.000372
  26 H :    0.027317    0.000016
  27 H :   -0.019490    0.001683
  28 H :   -0.046376   -0.000015
  29 H :   -0.035240   -0.000565

  Mayer bond orders larger than 0.100000
B(  0-O , 14-C ) :   1.4669 B(  1-O , 15-C ) :   1.1690 B(  2-O , 16-C ) :   1.5909
B(  3-O , 17-C ) :   1.4946 B(  4-N , 10-C ) :   0.9998 B(  4-N , 16-C ) :   1.0693
B(  4-N , 26-H ) :   1.0501 B(  5-N , 11-C ) :   1.0325 B(  5-N , 17-C ) :   0.9778
B(  5-N , 27-H ) :   1.0826 B(  6-N ,  8-C ) :  -0.1013 B(  6-N , 14-C ) :   1.1069
B(  6-N , 16-C ) :   0.9458 B(  6-N , 28-H ) :   1.1329 B(  7-N , 15-C ) :   0.8052
B(  7-N , 17-C ) :   1.0428 B(  7-N , 29-H ) :   1.0545 B(  8-C , 10-C ) :   1.0897
B(  8-C , 11-C ) :  -0.1207 B(  8-C , 12-C ) :   0.3500 B(  8-C , 14-C ) :   0.8869
B(  8-C , 20-H ) :  -0.1357 B(  9-C , 11-C ) :   0.5730 B(  9-C , 13-C ) :   0.4696
B(  9-C , 15-C ) :   0.9243 B( 10-C , 18-H ) :   0.9599 B( 11-C , 19-H ) :   0.9732
B( 12-C , 20-H ) :   1.0114 B( 12-C , 21-H ) :   0.9039 B( 12-C , 22-H ) :   0.8904
B( 13-C , 23-H ) :   1.0397 B( 13-C , 24-H ) :   0.8768 B( 13-C , 25-H ) :   0.9018

Dispersion correction           -0.057100988
FINAL SINGLE POINT ENERGY      -908.728350554143

DIPOLE MOMENT
-------------

Method             : TDA/CIS
Type of density    : Electron Density
Level              : Relaxed density
State              :   2
Multiplicity       :   3
Irrep              :   0
Energy             :     0.0000000000000000 Eh
Relativity type    :
Basis              : AO
                                X                 Y                 Z
Electronic contribution:     -2.686308794      -8.759460733      -5.453085371
Nuclear contribution   :      2.096840093       9.364587400       7.443408412
                        -----------------------------------------
Total Dipole Moment    :     -0.589468700       0.605126668       1.990323040
                        -----------------------------------------
Magnitude (a.u.)       :      2.162183488
Magnitude (Debye)      :      5.495833666

Rotational constants in cm-1:             0.018524             0.013185             0.011923
Rotational constants in MHz :           555.329117           395.275174           357.439373

                             ****ORCA TERMINATED NORMALLY****
TOTAL RUN TIME: 0 days 0 hours 5 minutes 26 seconds 453 msec
