                         Program Version 6.0.0  -   RELEASE  -
|  1> ! Engrad def2-TZVPPD wB97M-D3BJ
|  2> %pal nprocs 8 end%pal nprocs 64 end
|  3> %tddft
|  4> Iroot 1 Nroots 3
|  5> sf true
|  6> end
|  7> *xyz 0 3
|  8> O   3.0630271359604 0.64714441859332 -0.81710751722688
|  9> O   -0.29787763131273 1.1993167265903 -2.26827149235738
| 10> O   0.48591300371446 -3.06468037812078 -0.65997787938981
| 11> O   -3.29150918130838 -1.43172355068124 -0.16553149468672
| 12> N   0.25679591571788 -1.56315537434669 1.02112558314848
| 13> N   -2.12225755096039 0.03213043119821 1.12661118641672
| 14> N   1.66879335346731 -1.13415371460491 -0.783705693462
| 15> N   -1.5875592853677 -0.26844940290301 -1.12297509284777
| 16> C   1.41433614467729 0.60178564137192 0.87755783238254
| 17> C   -0.44102754903123 1.48264335509898 0.08906858963734
| 18> C   0.37057988536456 -0.24067417939075 1.58567391358298
| 19> C   -0.84957575358101 0.67869051267765 1.33537069568969
| 20> C   2.12006446389738 1.64490673534676 1.67133472342105
| 21> C   -0.45426343072109 2.97017439683208 0.09313358399038
| 22> C   2.139628492981 0.06651217751183 -0.29332878908301
| 23> C   -0.73728553172491 0.82325101346799 -1.20669303379941
| 24> C   0.76717892124857 -1.99570569790767 -0.16950384379923
| 25> C   -2.40120728388276 -0.62482542120391 -0.04389130647273
| 26> H   0.58890463592192 -0.33961508791909 2.65067292786903
| 27> H   -0.9505556701929 1.36337436677421 2.17465787108082
| 28> H   2.59069500118425 2.37007810988083 1.01483048049694
| 29> H   1.44395747975201 2.15128678839043 2.35719618777751
| 30> H   2.90724160852555 1.1770117306417 2.26825658622889
| 31> H   -1.48339925257067 3.33502029665835 0.15558083757796
| 32> H   0.09000507322487 3.36880519380631 0.94655839671761
| 33> H   -0.01527700973443 3.34719976647183 -0.82613293971494
| 34> H   -0.42522538624961 -2.19288444465457 1.40660049073332
| 35> H   -2.68139555473995 -0.27091295013634 1.90465303483171
| 36> H   2.09202295210388 -1.48119309744284 -1.62897361060878
| 37> H   -1.80812799636355 -0.73635836200097 -1.98819022813429
| 38> *
| 39>
| 40>                          ****END OF INPUT****

CARTESIAN COORDINATES (ANGSTROEM)
---------------------------------
  O      3.063027    0.647144   -0.817108
  O     -0.297878    1.199317   -2.268271
  O      0.485913   -3.064680   -0.659978
  O     -3.291509   -1.431724   -0.165531
  N      0.256796   -1.563155    1.021126
  N     -2.122258    0.032130    1.126611
  N      1.668793   -1.134154   -0.783706
  N     -1.587559   -0.268449   -1.122975
  C      1.414336    0.601786    0.877558
  C     -0.441028    1.482643    0.089069
  C      0.370580   -0.240674    1.585674
  C     -0.849576    0.678691    1.335371
  C      2.120064    1.644907    1.671335
  C     -0.454263    2.970174    0.093134
  C      2.139628    0.066512   -0.293329
  C     -0.737286    0.823251   -1.206693
  C      0.767179   -1.995706   -0.169504
  C     -2.401207   -0.624825   -0.043891
  H      0.588905   -0.339615    2.650673
  H     -0.950556    1.363374    2.174658
  H      2.590695    2.370078    1.014830
  H      1.443957    2.151287    2.357196
  H      2.907242    1.177012    2.268257
  H     -1.483399    3.335020    0.155581
  H      0.090005    3.368805    0.946558
  H     -0.015277    3.347200   -0.826133
  H     -0.425225   -2.192884    1.406600
  H     -2.681396   -0.270913    1.904653
  H      2.092023   -1.481193   -1.628974
  H     -1.808128   -0.736358   -1.988190

 Total Charge           Charge          ....    0
 Multiplicity           Mult            ....    3
 Number of Electrons    NEL             ....  132
 Basis Dimension        Dim             ....  882

ORBITAL ENERGIES
----------------
                 SPIN UP ORBITALS
  NO   OCC          E(Eh)            E(eV)
   0   1.0000     -19.329664      -525.9869
   1   1.0000     -19.327773      -525.9354
   2   1.0000     -19.320438      -525.7358
   3   1.0000     -19.314200      -525.5661
   4   1.0000     -14.565676      -396.3522
   5   1.0000     -14.560227      -396.2039
   6   1.0000     -14.559352      -396.1801
   7   1.0000     -14.558390      -396.1539
   8   1.0000     -10.505274      -285.8630
   9   1.0000     -10.502023      -285.7746
  10   1.0000     -10.477522      -285.1079
  11   1.0000     -10.475313      -285.0477
  12   1.0000     -10.444339      -284.2049
  13   1.0000     -10.441860      -284.1374
  14   1.0000     -10.416008      -283.4340
  15   1.0000     -10.414500      -283.3930
  16   1.0000     -10.375707      -282.3373
  17   1.0000     -10.373311      -282.2721
  18   1.0000      -1.221629       -33.2422
  19   1.0000      -1.215238       -33.0683
  20   1.0000      -1.197803       -32.5939
  21   1.0000      -1.194451       -32.5027
  22   1.0000      -1.121172       -30.5087
  23   1.0000      -1.095549       -29.8114
  24   1.0000      -1.065576       -28.9958
  25   1.0000      -1.056470       -28.7480
  26   1.0000      -0.997558       -27.1449
  27   1.0000      -0.940521       -25.5929
  28   1.0000      -0.894610       -24.3436
  29   1.0000      -0.833384       -22.6775
  30   1.0000      -0.828425       -22.5426
  31   1.0000      -0.797407       -21.6986
  32   1.0000      -0.788318       -21.4512
  33   1.0000      -0.779889       -21.2219
  34   1.0000      -0.707612       -19.2551
  35   1.0000      -0.701556       -19.0903
  36   1.0000      -0.689594       -18.7648
  37   1.0000      -0.669491       -18.2178
  38   1.0000      -0.652238       -17.7483
  39   1.0000      -0.643935       -17.5224
  40   1.0000      -0.618285       -16.8244
  41   1.0000      -0.600968       -16.3532
  42   1.0000      -0.587234       -15.9794
  43   1.0000      -0.586625       -15.9629
  44   1.0000      -0.581583       -15.8257
  45   1.0000      -0.580111       -15.7856
  46   1.0000      -0.566423       -15.4132
  47   1.0000      -0.561622       -15.2825
  48   1.0000      -0.554700       -15.0942
  49   1.0000      -0.552524       -15.0349
  50   1.0000      -0.547120       -14.8879
  51   1.0000      -0.540549       -14.7091
  52   1.0000      -0.529990       -14.4218
  53   1.0000      -0.522964       -14.2306
  54   1.0000      -0.508651       -13.8411
  55   1.0000      -0.506371       -13.7790
  56   1.0000      -0.486361       -13.2345
  57   1.0000      -0.419905       -11.4262
  58   1.0000      -0.415500       -11.3063
  59   1.0000      -0.409064       -11.1312
  60   1.0000      -0.404478       -11.0064
  61   1.0000      -0.398579       -10.8459
  62   1.0000      -0.397121       -10.8062
  63   1.0000      -0.391069       -10.6415
  64   1.0000      -0.384779       -10.4704
  65   1.0000      -0.371778       -10.1166
  66   1.0000      -0.271338        -7.3835
  67   0.0000       0.004970         0.1352
  68   0.0000       0.027557         0.7499
  69   0.0000       0.029989         0.8160
  70   0.0000       0.037932         1.0322
  71   0.0000       0.054956         1.4954

                 SPIN DOWN ORBITALS
  NO   OCC          E(Eh)            E(eV)
   0   1.0000     -19.326284      -525.8949
   1   1.0000     -19.323576      -525.8212
   2   1.0000     -19.320150      -525.7280
   3   1.0000     -19.314138      -525.5644
   4   1.0000     -14.565136      -396.3375
   5   1.0000     -14.559872      -396.1943
   6   1.0000     -14.559208      -396.1762
   7   1.0000     -14.557944      -396.1418
   8   1.0000     -10.505257      -285.8626
   9   1.0000     -10.502027      -285.7747
  10   1.0000     -10.478110      -285.1239
  11   1.0000     -10.475771      -285.0602
  12   1.0000     -10.443572      -284.1840
  13   1.0000     -10.441745      -284.1343
  14   1.0000     -10.403682      -283.0986
  15   1.0000     -10.401684      -283.0442
  16   1.0000     -10.376154      -282.3495
  17   1.0000     -10.373763      -282.2844
  18   1.0000      -1.219894       -33.1950
  19   1.0000      -1.213517       -33.0215
  20   1.0000      -1.193587       -32.4792
  21   1.0000      -1.189687       -32.3730
  22   1.0000      -1.118205       -30.4279
  23   1.0000      -1.093688       -29.7608
  24   1.0000      -1.063787       -28.9471
  25   1.0000      -1.055039       -28.7091
  26   1.0000      -0.982025       -26.7222
  27   1.0000      -0.924464       -25.1559
  28   1.0000      -0.888778       -24.1849
  29   1.0000      -0.828276       -22.5385
  30   1.0000      -0.819678       -22.3046
  31   1.0000      -0.791548       -21.5391
  32   1.0000      -0.786246       -21.3948
  33   1.0000      -0.778143       -21.1743
  34   1.0000      -0.698817       -19.0158
  35   1.0000      -0.692328       -18.8392
  36   1.0000      -0.682333       -18.5672
  37   1.0000      -0.660109       -17.9625
  38   1.0000      -0.645256       -17.5583
  39   1.0000      -0.639853       -17.4113
  40   1.0000      -0.614954       -16.7337
  41   1.0000      -0.597082       -16.2474
  42   1.0000      -0.581417       -15.8212
  43   1.0000      -0.578105       -15.7310
  44   1.0000      -0.575015       -15.6470
  45   1.0000      -0.568155       -15.4603
  46   1.0000      -0.563082       -15.3223
  47   1.0000      -0.556193       -15.1348
  48   1.0000      -0.551084       -14.9958
  49   1.0000      -0.545470       -14.8430
  50   1.0000      -0.539142       -14.6708
  51   1.0000      -0.532360       -14.4863
  52   1.0000      -0.522441       -14.2163
  53   1.0000      -0.513094       -13.9620
  54   1.0000      -0.503241       -13.6939
  55   1.0000      -0.497310       -13.5325
  56   1.0000      -0.479642       -13.0517
  57   1.0000      -0.414660       -11.2835
  58   1.0000      -0.412731       -11.2310
  59   1.0000      -0.403270       -10.9735
  60   1.0000      -0.390523       -10.6267
  61   1.0000      -0.389091       -10.5877
  62   1.0000      -0.385878       -10.5003
  63   1.0000      -0.380507       -10.3541
  64   1.0000      -0.375843       -10.2272
  65   0.0000      -0.099732        -2.7139
  66   0.0000       0.004749         0.1292
  67   0.0000       0.008254         0.2246
  68   0.0000       0.028046         0.7632
  69   0.0000       0.029996         0.8162

----------------------------------------------------------------------------------------------------
          SPIN FLIP ABSORPTION SPECTRUM VIA TRANSITION ELECTRIC DIPOLE MOMENTS
----------------------------------------------------------------------------------------------------
     Transition      Energy     Energy  Wavelength fosc(D2)      D2        DX        DY        DZ
                      (eV)      (cm-1)    (nm)                 (au**2)    (au)      (au)      (au)
----------------------------------------------------------------------------------------------------
  1-3A  ->  2-3A    2.536726   20460.1   488.8   0.000059062   0.00095  -0.02705  -0.00971   0.01116
  1-3A  ->  3-1A    3.989452   32177.1   310.8   0.180782033   1.84963  -1.11871   0.54254  -0.55115

Dispersion correction             ... done (  0.1 sec)

MULLIKEN ATOMIC CHARGES AND SPIN DENSITIES
------------------------------------------
   0 O :   -0.684269    0.001841
   1 O :   -0.649465    0.011208
   2 O :   -0.662752   -0.000711
   3 O :   -0.640128   -0.000460
   4 N :   -0.246016    0.013620
   5 N :   -0.290957    0.003716
   6 N :    0.045475    0.000980
   7 N :    0.067397    0.002874
   8 C :    1.313793    0.435453
   9 C :    1.167337    0.246379
  10 C :   -0.340355   -0.218347
  11 C :    0.247671   -0.111586
  12 C :   -1.638575    0.069846
  13 C :   -1.636361   -0.018289
  14 C :   -0.065702   -0.357226
  15 C :   -0.221479   -0.156743
  16 C :    0.491827    0.019501
  17 C :    0.365020    0.009069
  18 H :    0.542036    0.005748
  19 H :    0.450010    0.001838
  20 H :    0.332513    0.000360
  21 H :    0.381081    0.007213
  22 H :    0.425332    0.005357
  23 H :    0.399112    0.003828
  24 H :    0.312686    0.009273
  25 H :    0.345387    0.007394
  26 H :    0.045764    0.000408
  27 H :    0.085499    0.000599
  28 H :    0.019507    0.005212
  29 H :    0.038612    0.001646
Sum of atomic charges       :   -0.0000000

LOEWDIN ATOMIC CHARGES AND SPIN DENSITIES
-----------------------------------------
   0 O :    0.107956    0.004578
   1 O :    0.110992    0.006533
   2 O :    0.092169   -0.000234
   3 O :    0.097212    0.000093
   4 N :    0.289474    0.001900
   5 N :    0.283761    0.000181
   6 N :    0.334663    0.000593
   7 N :    0.335974    0.001142
   8 C :   -0.050685   -0.019886
   9 C :   -0.041774   -0.000845
  10 C :   -0.106498    0.001502
  11 C :   -0.118370    0.002199
  12 C :    0.181128   -0.002244
  13 C :    0.196935    0.000736
  14 C :   -0.405238   -0.002347
  15 C :   -0.409337    0.000693
  16 C :   -0.488512    0.000617
  17 C :   -0.482520    0.000481
  18 H :    0.052853    0.001056
  19 H :    0.053172    0.000366
  20 H :    0.007137    0.000030
  21 H :   -0.005240    0.000180
  22 H :    0.018865    0.000266
  23 H :    0.016280    0.001619
  24 H :   -0.011590    0.000375
  25 H :    0.007173    0.000205
  26 H :   -0.025632    0.000120
  27 H :   -0.030138   -0.000012
  28 H :   -0.005468    0.000033
  29 H :   -0.004740    0.000067

  Mayer bond orders larger than 0.100000
B(  0-O , 14-C ) :   1.3214 B(  1-O , 15-C ) :   1.4668 B(  2-O , 16-C ) :   1.5360
B(  3-O , 17-C ) :   1.5686 B(  4-N ,  8-C ) :   0.2157 B(  4-N , 10-C ) :   0.4306
B(  4-N , 16-C ) :   1.0747 B(  4-N , 26-H ) :   1.1047 B(  5-N ,  9-C ) :   0.2273
B(  5-N , 17-C ) :   1.1846 B(  5-N , 27-H ) :   1.0520 B(  6-N , 14-C ) :   1.0302
B(  6-N , 16-C ) :   0.9220 B(  6-N , 28-H ) :   1.1192 B(  7-N , 11-C ) :   0.1214
B(  7-N , 15-C ) :   0.9220 B(  7-N , 17-C ) :   0.9501 B(  7-N , 29-H ) :   1.0990
B(  8-C ,  9-C ) :   0.6439 B(  8-C , 10-C ) :   0.5691 B(  8-C , 12-C ) :   0.1077
B(  8-C , 14-C ) :   0.1392 B(  8-C , 15-C ) :   0.2422 B(  8-C , 20-H ) :  -0.1405
B(  8-C , 21-H ) :  -0.1563 B(  9-C , 10-C ) :   0.2457 B(  9-C , 11-C ) :   0.2715
B(  9-C , 13-C ) :   0.2905 B(  9-C , 14-C ) :   0.2664 B(  9-C , 25-H ) :  -0.1183
B( 10-C , 11-C ) :   0.6302 B( 10-C , 12-C ) :  -0.1780 B( 10-C , 14-C ) :   0.1768
B( 10-C , 15-C ) :  -0.1096 B( 10-C , 16-C ) :  -0.1025 B( 10-C , 18-H ) :   0.7369
B( 11-C , 13-C ) :  -0.2011 B( 11-C , 14-C ) :  -0.1202 B( 11-C , 17-C ) :  -0.2019
B( 11-C , 19-H ) :   0.9364 B( 12-C , 20-H ) :   1.0371 B( 12-C , 21-H ) :   1.0514
B( 12-C , 22-H ) :   0.7486 B( 13-C , 23-H ) :   0.8143 B( 13-C , 24-H ) :   0.9863
B( 13-C , 25-H ) :   1.0058 B( 14-C , 15-C ) :   0.1022 B( 14-C , 16-C ) :  -0.1349
B( 15-C , 17-C ) :  -0.1546

Dispersion correction           -0.061038968
FINAL SINGLE POINT ENERGY      -908.851542208685

DIPOLE MOMENT
-------------

Method             : TDA/CIS
Type of density    : Electron Density
Level              : Relaxed density
State              :   1
Multiplicity       :   3
Irrep              :   0
Energy             :     0.0000000000000000 Eh
Relativity type    :
Basis              : AO
                                X                 Y                 Z
Electronic contribution:     -2.386960788     -10.172301170      -7.128893633
Nuclear contribution   :      2.198099393      11.574768095       9.795464186
                        -----------------------------------------
Total Dipole Moment    :     -0.188861395       1.402466925       2.666570553
                        -----------------------------------------
Magnitude (a.u.)       :      3.018804501
Magnitude (Debye)      :      7.673191244

Rotational constants in cm-1:             0.020033             0.015826             0.013005
Rotational constants in MHz :           600.569312           474.444665           389.872458

                             ****ORCA TERMINATED NORMALLY****
TOTAL RUN TIME: 0 days 0 hours 5 minutes 6 seconds 636 msec
