                         Program Version 6.0.0  -   RELEASE  -
|  1> ! Opt wB97M-D3BJ def2-TZVPPD
|  2> %pal nprocs 8 end %pal nprocs 64 end
|  3> %geom
|  4> Constraints
|  5>     {A 2 1 0 50.90909090909091 C }
|  6> end
|  7> MaxIter 500
|  8> end
|  9> *xyz 0 1
| 10> O   -0.0007 0.8141 0.0
| 11> C   0.7509 -0.4065 0.0
| 12> C   -0.7502 -0.4076 0.0
| 13> H   1.2625 -0.6786 0.9136
| 14> H   1.2625 -0.6787 -0.9136
| 15> H   -1.2614 -0.6806 -0.9136
| 16> H   -1.2614 -0.6805 0.9136
| 17> *
| 18>
| 19>                          ****END OF INPUT****
 Total Charge           Charge          ....    0
 Multiplicity           Mult            ....    1
 Number of Electrons    NEL             ....   24
Dispersion correction           -0.005156204
FINAL SINGLE POINT ENERGY      -153.873269521914
Dispersion correction             ... done (  0.1 sec)
Dispersion correction           -0.005162269
FINAL SINGLE POINT ENERGY      -153.875361116396
Dispersion correction             ... done (  0.1 sec)
Dispersion correction           -0.005177416
FINAL SINGLE POINT ENERGY      -153.876228800145
Dispersion correction             ... done (  0.1 sec)
FINAL SINGLE POINT ENERGY      -153.876434611788
Dispersion correction             ... done (  0.1 sec)
Dispersion correction           -0.005189242
FINAL SINGLE POINT ENERGY      -153.876528121908
Dispersion correction             ... done (  0.1 sec)
Dispersion correction           -0.005188832
FINAL SINGLE POINT ENERGY      -153.876533939451
Dispersion correction             ... done (  0.1 sec)
                    ***********************HURRAY********************

CARTESIAN COORDINATES (ANGSTROEM)
---------------------------------
  O     -0.077506    0.755597   -0.000041
  C      0.780884   -0.501305   -0.000001
  C     -0.741837   -0.374505    0.000007
  H      1.293967   -0.651012    0.934504
  H      1.293989   -0.651058   -0.934485
  H     -1.273627   -0.648108   -0.911247
  H     -1.273669   -0.648009    0.911264

 Multiplicity           Mult            ....    1
 Number of Electrons    NEL             ....   24
 Basis Dimension        Dim             ....  182

ORBITAL ENERGIES
----------------

  NO   OCC          E(Eh)            E(eV)
   0   2.0000     -19.353659      -526.6398
   1   2.0000     -10.405088      -283.1368
   2   2.0000     -10.402998      -283.0800
   3   2.0000      -1.220684       -33.2165
   4   2.0000      -0.800378       -21.7794
   5   2.0000      -0.756887       -20.5959
   6   2.0000      -0.631526       -17.1847
   7   2.0000      -0.593388       -16.1469
   8   2.0000      -0.524328       -14.2677
   9   2.0000      -0.502526       -13.6744
  10   2.0000      -0.400993       -10.9116
  11   2.0000      -0.382715       -10.4142
  12   0.0000       0.042262         1.1500
  13   0.0000       0.058430         1.5900
  14   0.0000       0.073766         2.0073
  15   0.0000       0.078095         2.1251
  16   0.0000       0.111489         3.0338

MULLIKEN ATOMIC CHARGES
-----------------------
   0 O :   -0.374135
   1 C :   -0.262964
   2 C :   -0.124016
   3 H :    0.188813
   4 H :    0.188815
   5 H :    0.191738
   6 H :    0.191749
Sum of atomic charges:   -0.0000000

LOEWDIN ATOMIC CHARGES
----------------------
   0 O :   -0.027315
   1 C :    0.141669
   2 C :   -0.129175
   3 H :   -0.007678
   4 H :   -0.007678
   5 H :    0.015087
   6 H :    0.015089

  Mayer bond orders larger than 0.100000
B(  0-O ,  1-C ) :   0.8669 B(  0-O ,  2-C ) :   0.7837 B(  1-C ,  2-C ) :   0.7896
B(  1-C ,  3-H ) :   0.9954 B(  1-C ,  4-H ) :   0.9954 B(  2-C ,  5-H ) :   1.0372
B(  2-C ,  6-H ) :   1.0372

Dispersion correction           -0.005188436
FINAL SINGLE POINT ENERGY      -153.876534652261

DIPOLE MOMENT
-------------

Method             : SCF
Type of density    : Electron Density
Multiplicity       :   1
Irrep              :   0
Energy             :  -153.8713462164683676 Eh
Relativity type    :
Basis              : AO
                                X                 Y                 Z
Electronic contribution:     -0.028884571       1.661933590      -0.000054829
Nuclear contribution   :      0.099434456      -2.336625853       0.000080649
                        -----------------------------------------
Total Dipole Moment    :      0.070549886      -0.674692263       0.000025820
                        -----------------------------------------
Magnitude (a.u.)       :      0.678370796
Magnitude (Debye)      :      1.724281534

Rotational constants in cm-1:             0.934743             0.673984             0.465973
Rotational constants in MHz :         28022.877205         20205.522192         13969.521008

                             ****ORCA TERMINATED NORMALLY****
TOTAL RUN TIME: 0 days 0 hours 1 minutes 34 seconds 778 msec
