                         Program Version 6.0.0  -   RELEASE  -
|  1> ! Engrad def2-TZVPPD wB97M-D3BJ
|  2> %pal nprocs 8 end%pal nprocs 64 end
|  3> %tddft
|  4>  Iroot 1 Nroots 3
|  5> sf true
|  6> end
|  7> *xyz 0 3
|  8> O   2.764315 -0.94906225 -2.2187941
|  9> O   -1.86132576 1.09931945 -1.75776524
| 10> O   -1.20188379 -2.59244485 -0.66670842
| 11> O   -2.84845545 0.34923113 2.55023294
| 12> N   0.07597023 -1.34567277 0.79807596
| 13> N   -0.6904372 0.96280476 2.06000217
| 14> N   0.52909708 -1.37461383 -1.54590411
| 15> N   -2.35366464 0.60632871 0.39975109
| 16> C   2.15718948 -0.46549337 -0.05570234
| 17> C   -0.12906652 1.46232737 -0.26397521
| 18> C   1.09265783 -0.33678843 1.00696496
| 19> C   0.37942245 1.07106601 1.11487154
| 20> C   3.56277107 -0.16887578 0.33017744
| 21> C   0.71105442 2.14590785 -1.2681817
| 22> C   1.88240423 -0.93113939 -1.38283899
| 23> C   -1.49795621 1.11904988 -0.6027874
| 24> C   -0.30584442 -1.84009614 -0.49740239
| 25> C   -1.99714326 0.62751512 1.70578463
| 26> H   1.49450577 -0.62976055 1.93871366
| 27> H   1.18480753 1.61435796 1.57404828
| 28> H   4.27220185 -0.81100395 -0.24584731
| 29> H   3.7297531 0.829434 0.22900168
| 30> H   3.57061515 -0.54724008 1.3865968
| 31> H   0.33089349 3.17499482 -1.23503767
| 32> H   1.821195 2.06475991 -1.20763135
| 33> H   0.43189603 1.74937328 -2.31019581
| 34> H   -0.57981536 -1.47708732 1.50399435
| 35> H   -0.64190431 1.30237484 2.97033103
| 36> H   0.23764087 -1.85613651 -2.42305122
| 37> H   -3.34662866 0.56817755 0.27650311
| 38> *
| 39>
| 40>                          ****END OF INPUT****

CARTESIAN COORDINATES (ANGSTROEM)
---------------------------------
  O      2.764315   -0.949062   -2.218794
  O     -1.861326    1.099319   -1.757765
  O     -1.201884   -2.592445   -0.666708
  O     -2.848455    0.349231    2.550233
  N      0.075970   -1.345673    0.798076
  N     -0.690437    0.962805    2.060002
  N      0.529097   -1.374614   -1.545904
  N     -2.353665    0.606329    0.399751
  C      2.157189   -0.465493   -0.055702
  C     -0.129067    1.462327   -0.263975
  C      1.092658   -0.336788    1.006965
  C      0.379422    1.071066    1.114872
  C      3.562771   -0.168876    0.330177
  C      0.711054    2.145908   -1.268182
  C      1.882404   -0.931139   -1.382839
  C     -1.497956    1.119050   -0.602787
  C     -0.305844   -1.840096   -0.497402
  C     -1.997143    0.627515    1.705785
  H      1.494506   -0.629761    1.938714
  H      1.184808    1.614358    1.574048
  H      4.272202   -0.811004   -0.245847
  H      3.729753    0.829434    0.229002
  H      3.570615   -0.547240    1.386597
  H      0.330893    3.174995   -1.235038
  H      1.821195    2.064760   -1.207631
  H      0.431896    1.749373   -2.310196
  H     -0.579815   -1.477087    1.503994
  H     -0.641904    1.302375    2.970331
  H      0.237641   -1.856137   -2.423051
  H     -3.346629    0.568178    0.276503

 Total Charge           Charge          ....    0
 Multiplicity           Mult            ....    3
 Number of Electrons    NEL             ....  132
 Basis Dimension        Dim             ....  882

ORBITAL ENERGIES
----------------
                 SPIN UP ORBITALS
  NO   OCC          E(Eh)            E(eV)
   0   1.0000     -19.340923      -526.2933
   1   1.0000     -19.335341      -526.1414
   2   1.0000     -19.325651      -525.8777
   3   1.0000     -19.314636      -525.5780
   4   1.0000     -14.563824      -396.3018
   5   1.0000     -14.562337      -396.2613
   6   1.0000     -14.560381      -396.2081
   7   1.0000     -14.542109      -395.7109
   8   1.0000     -10.504694      -285.8473
   9   1.0000     -10.503506      -285.8149
  10   1.0000     -10.483889      -285.2811
  11   1.0000     -10.482854      -285.2530
  12   1.0000     -10.444314      -284.2042
  13   1.0000     -10.431277      -283.8495
  14   1.0000     -10.423212      -283.6300
  15   1.0000     -10.414392      -283.3900
  16   1.0000     -10.381416      -282.4927
  17   1.0000     -10.371554      -282.2243
  18   1.0000      -1.222526       -33.2666
  19   1.0000      -1.218361       -33.1533
  20   1.0000      -1.202840       -32.7309
  21   1.0000      -1.196053       -32.5463
  22   1.0000      -1.115601       -30.3570
  23   1.0000      -1.088486       -29.6192
  24   1.0000      -1.069085       -29.0913
  25   1.0000      -1.046163       -28.4675
  26   1.0000      -0.975307       -26.5395
  27   1.0000      -0.954595       -25.9759
  28   1.0000      -0.888575       -24.1793
  29   1.0000      -0.838130       -22.8067
  30   1.0000      -0.825669       -22.4676
  31   1.0000      -0.800020       -21.7696
  32   1.0000      -0.779111       -21.2007
  33   1.0000      -0.768050       -20.8997
  34   1.0000      -0.706941       -19.2369
  35   1.0000      -0.692506       -18.8440
  36   1.0000      -0.681880       -18.5549
  37   1.0000      -0.671280       -18.2665
  38   1.0000      -0.649533       -17.6747
  39   1.0000      -0.635727       -17.2990
  40   1.0000      -0.627857       -17.0849
  41   1.0000      -0.602799       -16.4030
  42   1.0000      -0.598007       -16.2726
  43   1.0000      -0.591428       -16.0936
  44   1.0000      -0.574967       -15.6456
  45   1.0000      -0.572335       -15.5740
  46   1.0000      -0.571326       -15.5466
  47   1.0000      -0.564615       -15.3640
  48   1.0000      -0.561085       -15.2679
  49   1.0000      -0.553182       -15.0528
  50   1.0000      -0.544142       -14.8069
  51   1.0000      -0.535325       -14.5669
  52   1.0000      -0.529361       -14.4047
  53   1.0000      -0.521645       -14.1947
  54   1.0000      -0.514063       -13.9884
  55   1.0000      -0.498089       -13.5537
  56   1.0000      -0.490277       -13.3411
  57   1.0000      -0.425354       -11.5745
  58   1.0000      -0.415677       -11.3111
  59   1.0000      -0.414547       -11.2804
  60   1.0000      -0.403780       -10.9874
  61   1.0000      -0.397172       -10.8076
  62   1.0000      -0.394621       -10.7382
  63   1.0000      -0.387301       -10.5390
  64   1.0000      -0.376581       -10.2473
  65   1.0000      -0.346116        -9.4183
  66   1.0000      -0.326735        -8.8909
  67   0.0000       0.009558         0.2601
  68   0.0000       0.031329         0.8525
  69   0.0000       0.032411         0.8820
  70   0.0000       0.037411         1.0180
  71   0.0000       0.055836         1.5194

                 SPIN DOWN ORBITALS
  NO   OCC          E(Eh)            E(eV)
   0   1.0000     -19.336139      -526.1631
   1   1.0000     -19.330578      -526.0118
   2   1.0000     -19.325531      -525.8744
   3   1.0000     -19.314531      -525.5751
   4   1.0000     -14.563468      -396.2921
   5   1.0000     -14.561575      -396.2406
   6   1.0000     -14.560172      -396.2024
   7   1.0000     -14.541890      -395.7049
   8   1.0000     -10.504717      -285.8479
   9   1.0000     -10.503534      -285.8157
  10   1.0000     -10.484915      -285.3091
  11   1.0000     -10.483884      -285.2810
  12   1.0000     -10.444099      -284.1984
  13   1.0000     -10.430862      -283.8382
  14   1.0000     -10.411891      -283.3220
  15   1.0000     -10.403077      -283.0821
  16   1.0000     -10.381797      -282.5031
  17   1.0000     -10.372042      -282.2376
  18   1.0000      -1.221097       -33.2277
  19   1.0000      -1.215682       -33.0804
  20   1.0000      -1.196092       -32.5473
  21   1.0000      -1.191757       -32.4293
  22   1.0000      -1.113089       -30.2887
  23   1.0000      -1.086235       -29.5580
  24   1.0000      -1.067583       -29.0504
  25   1.0000      -1.044581       -28.4245
  26   1.0000      -0.961745       -26.1704
  27   1.0000      -0.937406       -25.5081
  28   1.0000      -0.883202       -24.0331
  29   1.0000      -0.832040       -22.6410
  30   1.0000      -0.816925       -22.2297
  31   1.0000      -0.795526       -21.6474
  32   1.0000      -0.777762       -21.1640
  33   1.0000      -0.766296       -20.8520
  34   1.0000      -0.700930       -19.0733
  35   1.0000      -0.687730       -18.7141
  36   1.0000      -0.675393       -18.3784
  37   1.0000      -0.666573       -18.1384
  38   1.0000      -0.637360       -17.3435
  39   1.0000      -0.629483       -17.1291
  40   1.0000      -0.623161       -16.9571
  41   1.0000      -0.596678       -16.2364
  42   1.0000      -0.590276       -16.0622
  43   1.0000      -0.583227       -15.8704
  44   1.0000      -0.569930       -15.5086
  45   1.0000      -0.565590       -15.3905
  46   1.0000      -0.564324       -15.3560
  47   1.0000      -0.557859       -15.1801
  48   1.0000      -0.553947       -15.0737
  49   1.0000      -0.549322       -14.9478
  50   1.0000      -0.538012       -14.6401
  51   1.0000      -0.526444       -14.3253
  52   1.0000      -0.518083       -14.0978
  53   1.0000      -0.510909       -13.9025
  54   1.0000      -0.505840       -13.7646
  55   1.0000      -0.494812       -13.4645
  56   1.0000      -0.484566       -13.1857
  57   1.0000      -0.420380       -11.4391
  58   1.0000      -0.411510       -11.1977
  59   1.0000      -0.406136       -11.0515
  60   1.0000      -0.393397       -10.7049
  61   1.0000      -0.390288       -10.6203
  62   1.0000      -0.385558       -10.4916
  63   1.0000      -0.383655       -10.4398
  64   1.0000      -0.367542       -10.0013
  65   0.0000      -0.060148        -1.6367
  66   0.0000      -0.050299        -1.3687
  67   0.0000       0.009138         0.2487
  68   0.0000       0.031459         0.8560
  69   0.0000       0.032124         0.8741

----------------------------------------------------------------------------------------------------
          SPIN FLIP ABSORPTION SPECTRUM VIA TRANSITION ELECTRIC DIPOLE MOMENTS
----------------------------------------------------------------------------------------------------
     Transition      Energy     Energy  Wavelength fosc(D2)      D2        DX        DY        DZ
                      (eV)      (cm-1)    (nm)                 (au**2)    (au)      (au)      (au)
----------------------------------------------------------------------------------------------------
  1-3A  ->  2-3A    0.038715     312.3  32024.9   0.000007610   0.00802   0.07699  -0.02590  -0.03774
  1-3A  ->  3-3A    2.203444   17772.0   562.7   0.001786765   0.03310   0.10939  -0.01979  -0.14401

Dispersion correction             ... done (  0.1 sec)

MULLIKEN ATOMIC CHARGES AND SPIN DENSITIES
------------------------------------------
   0 O :   -0.638892    0.100268
   1 O :   -0.654020   -0.100176
   2 O :   -0.599495    0.002408
   3 O :   -0.699889   -0.000941
   4 N :   -0.361466   -0.003363
   5 N :   -0.138142    0.002592
   6 N :    0.069887    0.003918
   7 N :    0.118520   -0.004916
   8 C :   -0.074337    0.311761
   9 C :    0.729750    0.214901
  10 C :    0.388719    0.018615
  11 C :    0.129345   -0.237262
  12 C :   -1.298542   -0.005713
  13 C :   -1.319460   -0.050768
  14 C :    0.342183    0.019115
  15 C :   -0.049383   -0.283031
  16 C :    0.336369    0.000796
  17 C :    0.346093    0.012862
  18 H :    0.783257    0.024374
  19 H :    0.473906   -0.033740
  20 H :    0.343892    0.007370
  21 H :    0.298037    0.014618
  22 H :    0.333801    0.005554
  23 H :    0.421381    0.000131
  24 H :    0.242559   -0.004443
  25 H :    0.293972   -0.008111
  26 H :   -0.004467   -0.003411
  27 H :    0.005821   -0.002314
  28 H :    0.110765   -0.003456
  29 H :    0.069837    0.002363
Sum of atomic charges       :    0.0000000

LOEWDIN ATOMIC CHARGES AND SPIN DENSITIES
-----------------------------------------
   0 O :    0.092068    0.087808
   1 O :    0.085098   -0.088563
   2 O :    0.125880    0.002207
   3 O :    0.060107   -0.001156
   4 N :    0.296239    0.003953
   5 N :    0.295332    0.000663
   6 N :    0.321280    0.004971
   7 N :    0.335683   -0.011145
   8 C :   -0.038153    0.290810
   9 C :   -0.014914   -0.269584
  10 C :   -0.097786    0.009620
  11 C :   -0.085394   -0.019710
  12 C :    0.210915    0.040344
  13 C :    0.180618   -0.035903
  14 C :   -0.407497    0.045522
  15 C :   -0.407523   -0.053315
  16 C :   -0.454264   -0.000694
  17 C :   -0.477727   -0.000605
  18 H :    0.021370    0.000059
  19 H :    0.046146   -0.004009
  20 H :    0.029804    0.003422
  21 H :   -0.060433    0.011482
  22 H :    0.021989    0.004956
  23 H :    0.013827   -0.015621
  24 H :    0.015335    0.000588
  25 H :    0.045106   -0.006341
  26 H :   -0.088640    0.000610
  27 H :   -0.068309    0.000258
  28 H :    0.014536    0.000304
  29 H :   -0.010693   -0.000931

  Mayer bond orders larger than 0.100000
B(  0-O , 14-C ) :   1.3975 B(  1-O , 15-C ) :   1.3440 B(  2-O , 16-C ) :   1.5568
B(  3-O , 17-C ) :   1.5575 B(  4-N ,  8-C ) :   0.3493 B(  4-N , 10-C ) :   0.2494
B(  4-N , 15-C ) :   0.1522 B(  4-N , 16-C ) :   0.9671 B(  4-N , 18-H ) :  -0.1921
B(  4-N , 26-H ) :   1.1627 B(  5-N , 11-C ) :   0.4827 B(  5-N , 17-C ) :   1.0817
B(  5-N , 27-H ) :   1.1647 B(  6-N ,  8-C ) :  -0.1262 B(  6-N , 10-C ) :   0.1529
B(  6-N , 14-C ) :   1.0759 B(  6-N , 16-C ) :   0.9921 B(  6-N , 28-H ) :   1.0271
B(  7-N , 15-C ) :   1.0109 B(  7-N , 17-C ) :   1.0578 B(  7-N , 29-H ) :   1.0401
B(  8-C , 10-C ) :  -0.5255 B(  8-C , 11-C ) :   0.1087 B(  8-C , 12-C ) :   0.8108
B(  8-C , 13-C ) :   0.1372 B(  8-C , 14-C ) :   0.6074 B(  8-C , 16-C ) :   0.1309
B(  8-C , 18-H ) :  -0.3016 B(  8-C , 20-H ) :  -0.1127 B(  9-C , 10-C ) :   0.1151
B(  9-C , 11-C ) :   0.7245 B(  9-C , 13-C ) :   0.5031 B(  9-C , 15-C ) :   0.6981
B(  9-C , 18-H ) :   0.1146 B(  9-C , 25-H ) :  -0.1001 B( 10-C , 11-C ) :   0.5946
B( 10-C , 12-C ) :  -0.1650 B( 10-C , 16-C ) :  -0.1648 B( 10-C , 18-H ) :   0.6497
B( 11-C , 17-C ) :  -0.2300 B( 11-C , 18-H ) :  -0.1544 B( 11-C , 19-H ) :   0.8428
B( 12-C , 14-C ) :  -0.1740 B( 12-C , 20-H ) :   0.9574 B( 12-C , 21-H ) :   0.8761
B( 12-C , 22-H ) :   0.9124 B( 13-C , 23-H ) :   0.8161 B( 13-C , 24-H ) :   0.9842
B( 13-C , 25-H ) :   0.9684 B( 15-C , 17-C ) :  -0.1099

Dispersion correction           -0.059757597
FINAL SINGLE POINT ENERGY      -908.764530625917

DIPOLE MOMENT
-------------

Method             : TDA/CIS
Type of density    : Electron Density
Level              : Relaxed density
State              :   1
Multiplicity       :   3
Irrep              :   0
Energy             :     0.0000000000000000 Eh
Relativity type    :
Basis              : AO
                                X                 Y                 Z
Electronic contribution:     -9.843359797      -4.572669353      -1.258474682
Nuclear contribution   :     11.743213063       6.085275923       2.553104184
                        -----------------------------------------
Total Dipole Moment    :      1.899853265       1.512606569       1.294629502
                        -----------------------------------------
Magnitude (a.u.)       :      2.751996841
Magnitude (Debye)      :      6.995020066

Rotational constants in cm-1:             0.022653             0.012552             0.012167
Rotational constants in MHz :           679.129871           376.291538           364.749717

                             ****ORCA TERMINATED NORMALLY****
TOTAL RUN TIME: 0 days 0 hours 6 minutes 7 seconds 174 msec
