                         Program Version 6.0.0  -   RELEASE  -
|  1> ! Opt wB97M-D3BJ def2-TZVPPD
|  2> %pal nprocs 8 end %pal nprocs 64 end
|  3> %geom
|  4> Constraints
|  5>     {A 2 1 0 125.45454545454545 C }
|  6> end
|  7> MaxIter 500
|  8> end
|  9> *xyz 0 1
| 10> O   -0.0007 0.8141 0.0
| 11> C   0.7509 -0.4065 0.0
| 12> C   -0.7502 -0.4076 0.0
| 13> H   1.2625 -0.6786 0.9136
| 14> H   1.2625 -0.6787 -0.9136
| 15> H   -1.2614 -0.6806 -0.9136
| 16> H   -1.2614 -0.6805 0.9136
| 17> *
| 18>
| 19>                          ****END OF INPUT****
 Total Charge           Charge          ....    0
 Multiplicity           Mult            ....    1
 Number of Electrons    NEL             ....   24
Dispersion correction           -0.005753224
FINAL SINGLE POINT ENERGY      -153.587585743633
Dispersion correction             ... done (  0.1 sec)
Dispersion correction           -0.005652063
FINAL SINGLE POINT ENERGY      -153.687450806551
Dispersion correction             ... done (  0.1 sec)
Dispersion correction           -0.005577961
FINAL SINGLE POINT ENERGY      -153.711313636155
Dispersion correction             ... done (  0.1 sec)
FINAL SINGLE POINT ENERGY      -153.720074601158
FINAL SINGLE POINT ENERGY      -153.725109898208
FINAL SINGLE POINT ENERGY      -153.731130233995
FINAL SINGLE POINT ENERGY      -153.734501917635
FINAL SINGLE POINT ENERGY      -153.744379771298
FINAL SINGLE POINT ENERGY      -153.753418031756
FINAL SINGLE POINT ENERGY      -153.764502487875
FINAL SINGLE POINT ENERGY      -153.931057543678
FINAL SINGLE POINT ENERGY      -153.931438131729
FINAL SINGLE POINT ENERGY      -153.931597110073
FINAL SINGLE POINT ENERGY      -153.931785417723
FINAL SINGLE POINT ENERGY      -153.931878671120
FINAL SINGLE POINT ENERGY      -153.931906597920
FINAL SINGLE POINT ENERGY      -153.931916308454
Dispersion correction             ... done (  0.1 sec)
Dispersion correction           -0.005531536
FINAL SINGLE POINT ENERGY      -153.931923690186
Dispersion correction             ... done (  0.1 sec)
Dispersion correction           -0.005533487
FINAL SINGLE POINT ENERGY      -153.931926671837
Dispersion correction             ... done (  0.1 sec)
                    ***********************HURRAY********************

CARTESIAN COORDINATES (ANGSTROEM)
---------------------------------
  O      0.668329    1.317075   -0.137356
  C      0.569953    0.186171    0.256458
  C     -0.448140   -0.811193   -0.208698
  H      1.273393   -0.191590    1.024256
  H      0.066986   -1.661081   -0.658585
  H     -1.129007   -0.365557   -0.927494
  H     -0.999314   -1.192226    0.651419

 Multiplicity           Mult            ....    1
 Number of Electrons    NEL             ....   24
 Basis Dimension        Dim             ....  182

ORBITAL ENERGIES
----------------

  NO   OCC          E(Eh)            E(eV)
   0   2.0000     -19.339552      -526.2560
   1   2.0000     -10.442966      -284.1676
   2   2.0000     -10.357456      -281.8407
   3   2.0000      -1.188332       -32.3362
   4   2.0000      -0.884429       -24.0665
   5   2.0000      -0.702439       -19.1143
   6   2.0000      -0.598156       -16.2767
   7   2.0000      -0.561015       -15.2660
   8   2.0000      -0.554232       -15.0814
   9   2.0000      -0.508379       -13.8337
  10   2.0000      -0.476326       -12.9615
  11   2.0000      -0.368427       -10.0254
  12   0.0000       0.037514         1.0208
  13   0.0000       0.054754         1.4899
  14   0.0000       0.059202         1.6110
  15   0.0000       0.083258         2.2656
  16   0.0000       0.086223         2.3463

MULLIKEN ATOMIC CHARGES
-----------------------
   0 O :   -0.475147
   1 C :    0.235387
   2 C :   -0.694818
   3 H :    0.239994
   4 H :    0.224113
   5 H :    0.241361
   6 H :    0.229110
Sum of atomic charges:   -0.0000000

LOEWDIN ATOMIC CHARGES
----------------------
   0 O :    0.068843
   1 C :   -0.230129
   2 C :    0.168875
   3 H :    0.023084
   4 H :   -0.010329
   5 H :   -0.008748
   6 H :   -0.011596

  Mayer bond orders larger than 0.100000
B(  0-O ,  1-C ) :   1.7705 B(  1-C ,  2-C ) :   0.7580 B(  1-C ,  3-H ) :   0.9867
B(  2-C ,  4-H ) :   0.9911 B(  2-C ,  5-H ) :   0.9573 B(  2-C ,  6-H ) :   0.9941

Dispersion correction           -0.005534039
FINAL SINGLE POINT ENERGY      -153.931927328454

DIPOLE MOMENT
-------------

Method             : SCF
Type of density    : Electron Density
Multiplicity       :   1
Irrep              :   0
Energy             :  -153.9263932894394316 Eh
Relativity type    :
Basis              : AO
                                X                 Y                 Z
Electronic contribution:      1.462210754       2.963681263       0.032191546
Nuclear contribution   :     -1.700996497      -4.046209663       0.213181559
                        -----------------------------------------
Total Dipole Moment    :     -0.238785743      -1.082528400       0.245373105
                        -----------------------------------------
Magnitude (a.u.)       :      1.135382900
Magnitude (Debye)      :      2.885913983

Rotational constants in cm-1:             1.939883             0.338500             0.304324
Rotational constants in MHz :         58156.233196         10147.971408          9123.390035

                             ****ORCA TERMINATED NORMALLY****
TOTAL RUN TIME: 0 days 0 hours 7 minutes 43 seconds 681 msec
