                         Program Version 6.0.0  -   RELEASE  -
|  1> ! Opt wB97M-D3BJ def2-TZVPPD
|  2> %pal nprocs 8 end %pal nprocs 64 end
|  3> %geom
|  4> Constraints
|  5>     {A 2 1 0 91.81818181818181 C }
|  6> end
|  7> MaxIter 500
|  8> end
|  9> *xyz 0 1
| 10> O   -0.0007 0.8141 0.0
| 11> C   0.7509 -0.4065 0.0
| 12> C   -0.7502 -0.4076 0.0
| 13> H   1.2625 -0.6786 0.9136
| 14> H   1.2625 -0.6787 -0.9136
| 15> H   -1.2614 -0.6806 -0.9136
| 16> H   -1.2614 -0.6805 0.9136
| 17> *
| 18>
| 19>                          ****END OF INPUT****
 Total Charge           Charge          ....    0
 Multiplicity           Mult            ....    1
 Number of Electrons    NEL             ....   24
Dispersion correction           -0.005663174
FINAL SINGLE POINT ENERGY      -153.786537908411
Dispersion correction             ... done (  0.2 sec)
Dispersion correction           -0.005660522
FINAL SINGLE POINT ENERGY      -153.809512667758
Dispersion correction             ... done (  0.2 sec)
Dispersion correction           -0.005645943
FINAL SINGLE POINT ENERGY      -153.816929914106
Dispersion correction             ... done (  0.2 sec)
FINAL SINGLE POINT ENERGY      -153.819506910292
FINAL SINGLE POINT ENERGY      -153.820113632685
FINAL SINGLE POINT ENERGY      -153.820310569971
FINAL SINGLE POINT ENERGY      -153.820416034861
FINAL SINGLE POINT ENERGY      -153.820467587291
FINAL SINGLE POINT ENERGY      -153.820496314558
Dispersion correction             ... done (  0.1 sec)
Dispersion correction           -0.005668866
FINAL SINGLE POINT ENERGY      -153.820510238309
Dispersion correction             ... done (  0.1 sec)
Dispersion correction           -0.005667590
FINAL SINGLE POINT ENERGY      -153.820514371855
Dispersion correction             ... done (  0.1 sec)
                    ***********************HURRAY********************

CARTESIAN COORDINATES (ANGSTROEM)
---------------------------------
  O      0.310505    0.993383   -0.002335
  C      0.634149   -0.307118   -0.000555
  C     -0.738604   -0.695386    0.000492
  H      1.190615   -0.637290    0.886505
  H      1.191405   -0.639367   -0.886250
  H     -1.293836   -0.718019   -0.925011
  H     -1.292033   -0.714603    0.927155

 Multiplicity           Mult            ....    1
 Number of Electrons    NEL             ....   24
 Basis Dimension        Dim             ....  182

ORBITAL ENERGIES
----------------

  NO   OCC          E(Eh)            E(eV)
   0   2.0000     -19.335840      -526.1550
   1   2.0000     -10.434018      -283.9241
   2   2.0000     -10.396945      -282.9153
   3   2.0000      -1.141095       -31.0508
   4   2.0000      -0.870690       -23.6927
   5   2.0000      -0.734458       -19.9856
   6   2.0000      -0.625148       -17.0111
   7   2.0000      -0.578594       -15.7443
   8   2.0000      -0.515919       -14.0389
   9   2.0000      -0.508317       -13.8320
  10   2.0000      -0.382283       -10.4024
  11   2.0000      -0.361102        -9.8261
  12   0.0000      -0.027350        -0.7442
  13   0.0000       0.039387         1.0718
  14   0.0000       0.060904         1.6573
  15   0.0000       0.076599         2.0844
  16   0.0000       0.098057         2.6683

MULLIKEN ATOMIC CHARGES
-----------------------
   0 O :   -0.491417
   1 C :   -0.086253
   2 C :   -0.295025
   3 H :    0.217762
   4 H :    0.217939
   5 H :    0.218471
   6 H :    0.218523
Sum of atomic charges:    0.0000000

LOEWDIN ATOMIC CHARGES
----------------------
   0 O :   -0.016404
   1 C :   -0.362952
   2 C :    0.345498
   3 H :    0.024100
   4 H :    0.024100
   5 H :   -0.007167
   6 H :   -0.007175

  Mayer bond orders larger than 0.100000
B(  0-O ,  1-C ) :   0.6770 B(  0-O ,  2-C ) :   0.9409 B(  1-C ,  2-C ) :   0.7683
B(  1-C ,  3-H ) :   1.0468 B(  1-C ,  4-H ) :   1.0466 B(  2-C ,  5-H ) :   0.9642
B(  2-C ,  6-H ) :   0.9643

Dispersion correction           -0.005667009
FINAL SINGLE POINT ENERGY      -153.820515458330

DIPOLE MOMENT
-------------

Method             : SCF
Type of density    : Electron Density
Multiplicity       :   1
Irrep              :   0
Energy             :  -153.8148484489503005 Eh
Relativity type    :
Basis              : AO
                                X                 Y                 Z
Electronic contribution:      0.067892638       1.424677605      -0.003336698
Nuclear contribution   :     -0.486638828      -2.622969366       0.005267924
                        -----------------------------------------
Total Dipole Moment    :     -0.418746190      -1.198291762       0.001931226
                        -----------------------------------------
Magnitude (a.u.)       :      1.269352295
Magnitude (Debye)      :      3.226437124

Rotational constants in cm-1:             1.081873             0.488970             0.388139
Rotational constants in MHz :         32433.732005         14658.952326         11636.121331

                             ****ORCA TERMINATED NORMALLY****
TOTAL RUN TIME: 0 days 0 hours 2 minutes 46 seconds 201 msec
