                         Program Version 6.0.0  -   RELEASE  -
|  1> ! Engrad def2-TZVPPD wB97M-D3BJ
|  2> %pal nprocs 8 end%pal nprocs 64 end
|  3> %tddft
|  4>  Iroot 2 Nroots 3
|  5> sf true
|  6> end
|  7> *xyz 0 3
|  8> O   2.38491799 -0.81975868 -2.67889265
|  9> O   -2.27090805 1.66147634 -1.19049896
| 10> O   -1.36650444 -2.71010955 -1.02303998
| 11> O   -2.28367608 0.88849362 3.32430086
| 12> N   -0.00547794 -1.67063405 0.44705611
| 13> N   -0.26078073 0.7485406 2.18502529
| 14> N   0.35090073 -1.50852181 -1.86418344
| 15> N   -2.26424791 1.13353618 1.0353652
| 16> C   2.05930681 -0.70397506 -0.3850158
| 17> C   -0.11079922 1.35395538 -0.22400159
| 18> C   1.11837209 -0.778368 0.71188074
| 19> C   0.58195953 0.78842621 0.99100831
| 20> C   3.51795991 -0.35656694 -0.05885657
| 21> C   0.73863608 1.89477736 -1.30330783
| 22> C   1.67543481 -1.05621173 -1.67620305
| 23> C   -1.60996503 1.44474894 -0.17343231
| 24> C   -0.43293739 -2.00462167 -0.80508277
| 25> C   -1.61952406 0.88352378 2.29022647
| 26> H   1.51298997 -1.0630064 1.62935692
| 27> H   1.46907607 1.35002355 1.23275724
| 28> H   3.84051644 -0.97300037 0.78205934
| 29> H   4.10235097 -0.61571055 -0.95007959
| 30> H   3.66875058 0.72934259 0.03587624
| 31> H   0.89301665 2.89646438 -1.183865
| 32> H   1.68121579 1.3780508 -1.29977557
| 33> H   0.17071672 1.70137738 -2.27327078
| 34> H   -0.68225038 -1.76316334 1.12711701
| 35> H   0.2012825 0.70433364 3.08384672
| 36> H   0.06227515 -1.40358293 -2.88158169
| 37> H   -3.24506167 1.20720906 1.0060765
| 38> *
| 39>
| 40>                          ****END OF INPUT****

CARTESIAN COORDINATES (ANGSTROEM)
---------------------------------
  O      2.384918   -0.819759   -2.678893
  O     -2.270908    1.661476   -1.190499
  O     -1.366504   -2.710110   -1.023040
  O     -2.283676    0.888494    3.324301
  N     -0.005478   -1.670634    0.447056
  N     -0.260781    0.748541    2.185025
  N      0.350901   -1.508522   -1.864183
  N     -2.264248    1.133536    1.035365
  C      2.059307   -0.703975   -0.385016
  C     -0.110799    1.353955   -0.224002
  C      1.118372   -0.778368    0.711881
  C      0.581960    0.788426    0.991008
  C      3.517960   -0.356567   -0.058857
  C      0.738636    1.894777   -1.303308
  C      1.675435   -1.056212   -1.676203
  C     -1.609965    1.444749   -0.173432
  C     -0.432937   -2.004622   -0.805083
  C     -1.619524    0.883524    2.290226
  H      1.512990   -1.063006    1.629357
  H      1.469076    1.350024    1.232757
  H      3.840516   -0.973000    0.782059
  H      4.102351   -0.615711   -0.950080
  H      3.668751    0.729343    0.035876
  H      0.893017    2.896464   -1.183865
  H      1.681216    1.378051   -1.299776
  H      0.170717    1.701377   -2.273271
  H     -0.682250   -1.763163    1.127117
  H      0.201283    0.704334    3.083847
  H      0.062275   -1.403583   -2.881582
  H     -3.245062    1.207209    1.006077

 Total Charge           Charge          ....    0
 Multiplicity           Mult            ....    3
 Number of Electrons    NEL             ....  132
 Basis Dimension        Dim             ....  882

ORBITAL ENERGIES
----------------
                 SPIN UP ORBITALS
  NO   OCC          E(Eh)            E(eV)
   0   1.0000     -19.336287      -526.1671
   1   1.0000     -19.335190      -526.1373
   2   1.0000     -19.329585      -525.9848
   3   1.0000     -19.317250      -525.6491
   4   1.0000     -14.576543      -396.6479
   5   1.0000     -14.564831      -396.3292
   6   1.0000     -14.563313      -396.2879
   7   1.0000     -14.558322      -396.1521
   8   1.0000     -10.520385      -286.2742
   9   1.0000     -10.503468      -285.8139
  10   1.0000     -10.490373      -285.4576
  11   1.0000     -10.478407      -285.1319
  12   1.0000     -10.456455      -284.5346
  13   1.0000     -10.444671      -284.2140
  14   1.0000     -10.426011      -283.7062
  15   1.0000     -10.421608      -283.5864
  16   1.0000     -10.385161      -282.5946
  17   1.0000     -10.370584      -282.1979
  18   1.0000      -1.221133       -33.2287
  19   1.0000      -1.211954       -32.9790
  20   1.0000      -1.189709       -32.3736
  21   1.0000      -1.188509       -32.3410
  22   1.0000      -1.119128       -30.4530
  23   1.0000      -1.099497       -29.9188
  24   1.0000      -1.058250       -28.7964
  25   1.0000      -1.050276       -28.5795
  26   1.0000      -0.990246       -26.9460
  27   1.0000      -0.959873       -26.1195
  28   1.0000      -0.889507       -24.2047
  29   1.0000      -0.849079       -23.1046
  30   1.0000      -0.828504       -22.5447
  31   1.0000      -0.808295       -21.9948
  32   1.0000      -0.784512       -21.3477
  33   1.0000      -0.780230       -21.2311
  34   1.0000      -0.701461       -19.0877
  35   1.0000      -0.695177       -18.9167
  36   1.0000      -0.690399       -18.7867
  37   1.0000      -0.680525       -18.5180
  38   1.0000      -0.650113       -17.6905
  39   1.0000      -0.640856       -17.4386
  40   1.0000      -0.633144       -17.2287
  41   1.0000      -0.606218       -16.4960
  42   1.0000      -0.598350       -16.2819
  43   1.0000      -0.587144       -15.9770
  44   1.0000      -0.580167       -15.7872
  45   1.0000      -0.573410       -15.6033
  46   1.0000      -0.568450       -15.4683
  47   1.0000      -0.564244       -15.3539
  48   1.0000      -0.561137       -15.2693
  49   1.0000      -0.557472       -15.1696
  50   1.0000      -0.555509       -15.1162
  51   1.0000      -0.542437       -14.7604
  52   1.0000      -0.536040       -14.5864
  53   1.0000      -0.522142       -14.2082
  54   1.0000      -0.515510       -14.0277
  55   1.0000      -0.505294       -13.7497
  56   1.0000      -0.495701       -13.4887
  57   1.0000      -0.422412       -11.4944
  58   1.0000      -0.421021       -11.4566
  59   1.0000      -0.415784       -11.3141
  60   1.0000      -0.404864       -11.0169
  61   1.0000      -0.402999       -10.9661
  62   1.0000      -0.392286       -10.6746
  63   1.0000      -0.390706       -10.6316
  64   1.0000      -0.386843       -10.5265
  65   1.0000      -0.357771        -9.7354
  66   1.0000      -0.319658        -8.6983
  67   0.0000       0.005402         0.1470
  68   0.0000       0.028963         0.7881
  69   0.0000       0.030413         0.8276
  70   0.0000       0.034007         0.9254
  71   0.0000       0.053633         1.4594

                 SPIN DOWN ORBITALS
  NO   OCC          E(Eh)            E(eV)
   0   1.0000     -19.331185      -526.0283
   1   1.0000     -19.330589      -526.0121
   2   1.0000     -19.329456      -525.9812
   3   1.0000     -19.317235      -525.6487
   4   1.0000     -14.576265      -396.6403
   5   1.0000     -14.564385      -396.3171
   6   1.0000     -14.562446      -396.2643
   7   1.0000     -14.558258      -396.1503
   8   1.0000     -10.520414      -286.2750
   9   1.0000     -10.503515      -285.8152
  10   1.0000     -10.491506      -285.4884
  11   1.0000     -10.479485      -285.1613
  12   1.0000     -10.455610      -284.5116
  13   1.0000     -10.444161      -284.2001
  14   1.0000     -10.414350      -283.3889
  15   1.0000     -10.410924      -283.2956
  16   1.0000     -10.385709      -282.6095
  17   1.0000     -10.370839      -282.2049
  18   1.0000      -1.220337       -33.2071
  19   1.0000      -1.210679       -32.9443
  20   1.0000      -1.184824       -32.2407
  21   1.0000      -1.180718       -32.1290
  22   1.0000      -1.116503       -30.3816
  23   1.0000      -1.097627       -29.8680
  24   1.0000      -1.056403       -28.7462
  25   1.0000      -1.047961       -28.5165
  26   1.0000      -0.976874       -26.5821
  27   1.0000      -0.942839       -25.6559
  28   1.0000      -0.883891       -24.0519
  29   1.0000      -0.844661       -22.9844
  30   1.0000      -0.818932       -22.2843
  31   1.0000      -0.801879       -21.8202
  32   1.0000      -0.783016       -21.3069
  33   1.0000      -0.778475       -21.1834
  34   1.0000      -0.697364       -18.9762
  35   1.0000      -0.688621       -18.7383
  36   1.0000      -0.683723       -18.6050
  37   1.0000      -0.675069       -18.3696
  38   1.0000      -0.642421       -17.4812
  39   1.0000      -0.630824       -17.1656
  40   1.0000      -0.628387       -17.0993
  41   1.0000      -0.601317       -16.3627
  42   1.0000      -0.592207       -16.1148
  43   1.0000      -0.580627       -15.7997
  44   1.0000      -0.573414       -15.6034
  45   1.0000      -0.566455       -15.4140
  46   1.0000      -0.562840       -15.3156
  47   1.0000      -0.559813       -15.2333
  48   1.0000      -0.555512       -15.1163
  49   1.0000      -0.549670       -14.9573
  50   1.0000      -0.547186       -14.8897
  51   1.0000      -0.534164       -14.5353
  52   1.0000      -0.526005       -14.3133
  53   1.0000      -0.515069       -14.0158
  54   1.0000      -0.502447       -13.6723
  55   1.0000      -0.500245       -13.6124
  56   1.0000      -0.489239       -13.3129
  57   1.0000      -0.418860       -11.3978
  58   1.0000      -0.417664       -11.3652
  59   1.0000      -0.411166       -11.1884
  60   1.0000      -0.392754       -10.6874
  61   1.0000      -0.388156       -10.5623
  62   1.0000      -0.386240       -10.5101
  63   1.0000      -0.383412       -10.4332
  64   1.0000      -0.374292       -10.1850
  65   0.0000      -0.076883        -2.0921
  66   0.0000      -0.046835        -1.2745
  67   0.0000       0.004861         0.1323
  68   0.0000       0.028476         0.7749
  69   0.0000       0.030664         0.8344

----------------------------------------------------------------------------------------------------
          SPIN FLIP ABSORPTION SPECTRUM VIA TRANSITION ELECTRIC DIPOLE MOMENTS
----------------------------------------------------------------------------------------------------
     Transition      Energy     Energy  Wavelength fosc(D2)      D2        DX        DY        DZ
                      (eV)      (cm-1)    (nm)                 (au**2)    (au)      (au)      (au)
----------------------------------------------------------------------------------------------------
  1-3A  ->  2-3A    0.245364    1979.0  5053.1   0.000146592   0.02439   0.12048  -0.06454  -0.07552
  1-3A  ->  3-3A    2.075945   16743.6   597.2   0.009909171   0.19483  -0.34934   0.14902   0.22493

Dispersion correction             ... done (  0.1 sec)

MULLIKEN ATOMIC CHARGES AND SPIN DENSITIES
------------------------------------------
   0 O :   -0.697225    0.055030
   1 O :   -0.673526   -0.037908
   2 O :   -0.619811   -0.000036
   3 O :   -0.651341    0.000888
   4 N :   -0.188128   -0.006934
   5 N :   -0.157884    0.006430
   6 N :   -0.027065   -0.002663
   7 N :    0.026954   -0.006118
   8 C :   -0.026259    0.259478
   9 C :    0.847591    0.398535
  10 C :    0.380348   -0.081544
  11 C :   -0.123987   -0.307546
  12 C :   -1.327926   -0.002847
  13 C :   -1.340011   -0.021182
  14 C :    0.355950   -0.056926
  15 C :    0.077784   -0.224405
  16 C :    0.394667   -0.002110
  17 C :    0.463286    0.015137
  18 H :    0.673381    0.009284
  19 H :    0.525248   -0.029385
  20 H :    0.389333    0.004543
  21 H :    0.306404    0.001926
  22 H :    0.293174    0.008057
  23 H :    0.453846    0.001779
  24 H :    0.219051    0.023903
  25 H :    0.275753   -0.003498
  26 H :   -0.030494   -0.002402
  27 H :    0.046319   -0.000141
  28 H :    0.122288   -0.002332
  29 H :    0.012280    0.002987
Sum of atomic charges       :   -0.0000000

LOEWDIN ATOMIC CHARGES AND SPIN DENSITIES
-----------------------------------------
   0 O :    0.053258    0.047463
   1 O :    0.063426   -0.032622
   2 O :    0.114378   -0.000163
   3 O :    0.066523    0.000792
   4 N :    0.321891   -0.000526
   5 N :    0.267618    0.002100
   6 N :    0.313100   -0.001055
   7 N :    0.331243   -0.006738
   8 C :   -0.079340    0.116230
   9 C :    0.015089   -0.113154
  10 C :   -0.062345    0.001867
  11 C :   -0.055083   -0.002724
  12 C :    0.219987    0.012865
  13 C :    0.215639   -0.016463
  14 C :   -0.422532    0.016207
  15 C :   -0.362657   -0.022081
  16 C :   -0.490423   -0.000774
  17 C :   -0.442843    0.000211
  18 H :    0.011781    0.000285
  19 H :    0.039375   -0.002278
  20 H :    0.002454    0.002415
  21 H :   -0.002982    0.000290
  22 H :    0.006015    0.004268
  23 H :   -0.041411   -0.005058
  24 H :   -0.034291    0.000567
  25 H :    0.060509   -0.001538
  26 H :   -0.081947    0.000057
  27 H :   -0.022753    0.000150
  28 H :    0.046344    0.000019
  29 H :   -0.050024   -0.000614

  Mayer bond orders larger than 0.100000
B(  0-O , 14-C ) :   1.2677 B(  1-O , 15-C ) :   1.3637 B(  2-O , 16-C ) :   1.6004
B(  3-O , 17-C ) :   1.6306 B(  4-N ,  8-C ) :   0.2612 B(  4-N , 10-C ) :   0.4238
B(  4-N , 16-C ) :   1.0322 B(  4-N , 26-H ) :   1.1377 B(  5-N , 10-C ) :   0.1301
B(  5-N , 11-C ) :   0.4778 B(  5-N , 17-C ) :   1.1013 B(  5-N , 27-H ) :   1.1561
B(  6-N ,  8-C ) :  -0.2817 B(  6-N , 10-C ) :   0.1715 B(  6-N , 14-C ) :   1.2099
B(  6-N , 16-C ) :   0.9130 B(  6-N , 28-H ) :   1.0533 B(  7-N ,  9-C ) :  -0.1000
B(  7-N , 15-C ) :   1.0607 B(  7-N , 17-C ) :   0.9389 B(  7-N , 29-H ) :   1.1294
B(  8-C ,  9-C ) :   0.1337 B(  8-C , 10-C ) :   0.1347 B(  8-C , 11-C ) :   0.3146
B(  8-C , 12-C ) :   0.7027 B(  8-C , 14-C ) :   0.8483 B(  8-C , 16-C ) :   0.1271
B(  8-C , 18-H ) :  -0.2003 B(  8-C , 21-H ) :  -0.1035 B(  9-C , 10-C ) :   0.1201
B(  9-C , 11-C ) :   0.7515 B(  9-C , 13-C ) :   0.2711 B(  9-C , 15-C ) :   0.4655
B(  9-C , 19-H ) :  -0.1178 B(  9-C , 24-H ) :  -0.1228 B(  9-C , 25-H ) :  -0.1177
B( 10-C , 11-C ) :   0.4024 B( 10-C , 12-C ) :  -0.1319 B( 10-C , 14-C ) :  -0.2223
B( 10-C , 16-C ) :  -0.1701 B( 10-C , 18-H ) :   0.6741 B( 11-C , 17-C ) :  -0.1047
B( 11-C , 19-H ) :   0.7489 B( 12-C , 20-H ) :   0.9160 B( 12-C , 21-H ) :   1.0212
B( 12-C , 22-H ) :   0.8286 B( 13-C , 23-H ) :   0.7309 B( 13-C , 24-H ) :   1.0173
B( 13-C , 25-H ) :   1.0552

Dispersion correction           -0.058168391
FINAL SINGLE POINT ENERGY      -908.769092894174

DIPOLE MOMENT
-------------

Method             : TDA/CIS
Type of density    : Electron Density
Level              : Relaxed density
State              :   2
Multiplicity       :   3
Irrep              :   0
Energy             :     0.0000000000000000 Eh
Relativity type    :
Basis              : AO
                                X                 Y                 Z
Electronic contribution:    -10.548181596      -3.605607746       0.734531744
Nuclear contribution   :     12.865591404       4.412395116       0.596252402
                        -----------------------------------------
Total Dipole Moment    :      2.317409808       0.806787371       1.330784146
                        -----------------------------------------
Magnitude (a.u.)       :      2.791465659
Magnitude (Debye)      :      7.095341828

Rotational constants in cm-1:             0.021758             0.011489             0.011047
Rotational constants in MHz :           652.289815           344.423255           331.166719

                             ****ORCA TERMINATED NORMALLY****
TOTAL RUN TIME: 0 days 0 hours 5 minutes 1 seconds 238 msec
