                         Program Version 6.0.0  -   RELEASE  -
|  1> ! Engrad def2-TZVPPD wB97M-D3BJ
|  2> %pal nprocs 8 end%pal nprocs 64 end
|  3> %tddft Nroots 2 Iroot 1
|  4> sf true
|  5> end
|  6> *xyz 0 3
|  7> O   2.86110225 1.06651371 -0.72001426
|  8> O   -0.41788416 0.84067338 -2.05052182
|  9> O   0.52852872 -2.75661538 -1.47566495
| 10> O   -2.61018857 -1.74776603 0.96514675
| 11> N   0.71545271 -2.00450919 0.66328451
| 12> N   -2.46966436 0.49546058 1.33841706
| 13> N   1.82697606 -0.93268606 -1.04537649
| 14> N   -1.61336403 -0.41145365 -0.592223
| 15> C   1.7757555 0.08992483 1.13354032
| 16> C   -1.11305002 1.88458982 -0.03256168
| 17> C   1.04021084 -0.99275397 1.53078734
| 18> C   -1.89667655 1.71092406 1.03748273
| 19> C   2.1324046 1.20698419 2.04988146
| 20> C   -0.41890855 3.16180873 -0.37813112
| 21> C   2.21222761 0.15385171 -0.2447157
| 22> C   -0.99776487 0.77507392 -0.9885155
| 23> C   0.99080702 -1.96187073 -0.68579857
| 24> C   -2.25891267 -0.64994791 0.59778063
| 25> H   0.69055008 -1.1020915 2.53256449
| 26> H   -2.07776359 2.49630748 1.75284338
| 27> H   1.70946867 2.1429237 1.68662388
| 28> H   1.77446653 1.02869836 3.05773204
| 29> H   3.21257128 1.33494972 2.08974357
| 30> H   -0.77571633 3.55417565 -1.32500185
| 31> H   -0.57038264 3.90576412 0.39490307
| 32> H   0.65186104 2.98746615 -0.48979341
| 33> H   0.02634541 -2.6876075 0.94142238
| 34> H   -2.96383858 0.35191829 2.20414663
| 35> H   1.98625574 -0.83284133 -2.0294892
| 36> H   -1.47391824 -1.21549966 -1.18746446
| 37> *
| 38>
| 39>                          ****END OF INPUT****

CARTESIAN COORDINATES (ANGSTROEM)
---------------------------------
  O      2.861102    1.066514   -0.720014
  O     -0.417884    0.840673   -2.050522
  O      0.528529   -2.756615   -1.475665
  O     -2.610189   -1.747766    0.965147
  N      0.715453   -2.004509    0.663285
  N     -2.469664    0.495461    1.338417
  N      1.826976   -0.932686   -1.045376
  N     -1.613364   -0.411454   -0.592223
  C      1.775756    0.089925    1.133540
  C     -1.113050    1.884590   -0.032562
  C      1.040211   -0.992754    1.530787
  C     -1.896677    1.710924    1.037483
  C      2.132405    1.206984    2.049881
  C     -0.418909    3.161809   -0.378131
  C      2.212228    0.153852   -0.244716
  C     -0.997765    0.775074   -0.988515
  C      0.990807   -1.961871   -0.685799
  C     -2.258913   -0.649948    0.597781
  H      0.690550   -1.102092    2.532564
  H     -2.077764    2.496307    1.752843
  H      1.709469    2.142924    1.686624
  H      1.774467    1.028698    3.057732
  H      3.212571    1.334950    2.089744
  H     -0.775716    3.554176   -1.325002
  H     -0.570383    3.905764    0.394903
  H      0.651861    2.987466   -0.489793
  H      0.026345   -2.687607    0.941422
  H     -2.963839    0.351918    2.204147
  H      1.986256   -0.832841   -2.029489
  H     -1.473918   -1.215500   -1.187464

 Total Charge           Charge          ....    0
 Multiplicity           Mult            ....    3
 Number of Electrons    NEL             ....  132
 Basis Dimension        Dim             ....  882

ORBITAL ENERGIES
----------------
                 SPIN UP ORBITALS
  NO   OCC          E(Eh)            E(eV)
   0   1.0000     -19.329413      -525.9801
   1   1.0000     -19.328998      -525.9688
   2   1.0000     -19.322707      -525.7976
   3   1.0000     -19.318003      -525.6696
   4   1.0000     -14.589599      -397.0032
   5   1.0000     -14.583656      -396.8415
   6   1.0000     -14.569699      -396.4617
   7   1.0000     -14.545473      -395.8024
   8   1.0000     -10.514605      -286.1169
   9   1.0000     -10.506469      -285.8955
  10   1.0000     -10.478812      -285.1430
  11   1.0000     -10.454729      -284.4876
  12   1.0000     -10.433351      -283.9059
  13   1.0000     -10.406960      -283.1878
  14   1.0000     -10.396640      -282.9069
  15   1.0000     -10.381564      -282.4967
  16   1.0000     -10.368092      -282.1301
  17   1.0000     -10.353871      -281.7432
  18   1.0000      -1.228801       -33.4374
  19   1.0000      -1.222443       -33.2644
  20   1.0000      -1.193770       -32.4841
  21   1.0000      -1.185469       -32.2582
  22   1.0000      -1.123451       -30.5706
  23   1.0000      -1.121702       -30.5231
  24   1.0000      -1.070595       -29.1324
  25   1.0000      -1.056939       -28.7608
  26   1.0000      -0.970628       -26.4121
  27   1.0000      -0.956800       -26.0359
  28   1.0000      -0.855156       -23.2700
  29   1.0000      -0.848613       -23.0919
  30   1.0000      -0.810752       -22.0617
  31   1.0000      -0.810035       -22.0422
  32   1.0000      -0.794205       -21.6114
  33   1.0000      -0.783873       -21.3303
  34   1.0000      -0.696388       -18.9497
  35   1.0000      -0.695287       -18.9197
  36   1.0000      -0.691317       -18.8117
  37   1.0000      -0.689525       -18.7629
  38   1.0000      -0.645096       -17.5540
  39   1.0000      -0.634576       -17.2677
  40   1.0000      -0.628280       -17.0964
  41   1.0000      -0.603594       -16.4246
  42   1.0000      -0.597514       -16.2592
  43   1.0000      -0.591669       -16.1001
  44   1.0000      -0.571159       -15.5420
  45   1.0000      -0.569173       -15.4880
  46   1.0000      -0.566344       -15.4110
  47   1.0000      -0.551829       -15.0160
  48   1.0000      -0.549670       -14.9573
  49   1.0000      -0.546994       -14.8845
  50   1.0000      -0.528890       -14.3918
  51   1.0000      -0.525786       -14.3074
  52   1.0000      -0.517924       -14.0934
  53   1.0000      -0.515803       -14.0357
  54   1.0000      -0.507963       -13.8224
  55   1.0000      -0.500922       -13.6308
  56   1.0000      -0.491654       -13.3786
  57   1.0000      -0.479861       -13.0577
  58   1.0000      -0.421588       -11.4720
  59   1.0000      -0.418142       -11.3782
  60   1.0000      -0.406801       -11.0696
  61   1.0000      -0.397998       -10.8301
  62   1.0000      -0.387405       -10.5418
  63   1.0000      -0.384055       -10.4507
  64   1.0000      -0.383071       -10.4239
  65   1.0000      -0.347305        -9.4507
  66   1.0000      -0.213260        -5.8031
  67   0.0000       0.011709         0.3186
  68   0.0000       0.020861         0.5677
  69   0.0000       0.033182         0.9029
  70   0.0000       0.037033         1.0077
  71   0.0000       0.044763         1.2181

                 SPIN DOWN ORBITALS
  NO   OCC          E(Eh)            E(eV)
   0   1.0000     -19.329400      -525.9797
   1   1.0000     -19.327155      -525.9186
   2   1.0000     -19.322728      -525.7982
   3   1.0000     -19.311364      -525.4889
   4   1.0000     -14.584503      -396.8645
   5   1.0000     -14.583531      -396.8381
   6   1.0000     -14.569716      -396.4621
   7   1.0000     -14.544566      -395.7778
   8   1.0000     -10.514607      -286.1170
   9   1.0000     -10.506805      -285.9047
  10   1.0000     -10.478800      -285.1427
  11   1.0000     -10.454588      -284.4838
  12   1.0000     -10.433224      -283.9025
  13   1.0000     -10.397445      -282.9289
  14   1.0000     -10.386390      -282.6281
  15   1.0000     -10.381576      -282.4970
  16   1.0000     -10.368554      -282.1427
  17   1.0000     -10.353862      -281.7429
  18   1.0000      -1.228507       -33.4294
  19   1.0000      -1.218414       -33.1547
  20   1.0000      -1.193741       -32.4833
  21   1.0000      -1.175647       -31.9910
  22   1.0000      -1.123296       -30.5664
  23   1.0000      -1.110843       -30.2276
  24   1.0000      -1.070523       -29.1304
  25   1.0000      -1.051480       -28.6122
  26   1.0000      -0.957032       -26.0422
  27   1.0000      -0.946996       -25.7691
  28   1.0000      -0.848534       -23.0898
  29   1.0000      -0.843466       -22.9519
  30   1.0000      -0.810419       -22.0526
  31   1.0000      -0.798806       -21.7366
  32   1.0000      -0.793827       -21.6011
  33   1.0000      -0.777252       -21.1501
  34   1.0000      -0.696161       -18.9435
  35   1.0000      -0.691417       -18.8144
  36   1.0000      -0.683990       -18.6123
  37   1.0000      -0.681148       -18.5350
  38   1.0000      -0.643894       -17.5212
  39   1.0000      -0.627203       -17.0670
  40   1.0000      -0.621800       -16.9200
  41   1.0000      -0.597479       -16.2582
  42   1.0000      -0.591344       -16.0913
  43   1.0000      -0.583195       -15.8695
  44   1.0000      -0.569079       -15.4854
  45   1.0000      -0.560956       -15.2644
  46   1.0000      -0.556263       -15.1367
  47   1.0000      -0.550840       -14.9891
  48   1.0000      -0.542003       -14.7486
  49   1.0000      -0.540340       -14.7034
  50   1.0000      -0.520751       -14.1703
  51   1.0000      -0.518607       -14.1120
  52   1.0000      -0.516801       -14.0629
  53   1.0000      -0.503701       -13.7064
  54   1.0000      -0.501586       -13.6489
  55   1.0000      -0.497279       -13.5317
  56   1.0000      -0.479146       -13.0382
  57   1.0000      -0.446010       -12.1365
  58   1.0000      -0.420994       -11.4558
  59   1.0000      -0.412905       -11.2357
  60   1.0000      -0.403360       -10.9760
  61   1.0000      -0.387802       -10.5526
  62   1.0000      -0.376579       -10.2472
  63   1.0000      -0.374457       -10.1895
  64   1.0000      -0.347123        -9.4457
  65   0.0000      -0.101756        -2.7689
  66   0.0000       0.010689         0.2909
  67   0.0000       0.021108         0.5744
  68   0.0000       0.030420         0.8278
  69   0.0000       0.036137         0.9833

----------------------------------------------------------------------------------------------------
          SPIN FLIP ABSORPTION SPECTRUM VIA TRANSITION ELECTRIC DIPOLE MOMENTS
----------------------------------------------------------------------------------------------------
     Transition      Energy     Energy  Wavelength fosc(D2)      D2        DX        DY        DZ
                      (eV)      (cm-1)    (nm)                 (au**2)    (au)      (au)      (au)
----------------------------------------------------------------------------------------------------
  1-3A  ->  2-3A    3.999084   32254.8   310.0   0.001551152   0.01583  -0.06341  -0.07113   0.08217

Dispersion correction             ... done (  0.1 sec)

MULLIKEN ATOMIC CHARGES AND SPIN DENSITIES
------------------------------------------
   0 O :   -0.685411    0.036000
   1 O :   -0.652015    0.000686
   2 O :   -0.640753    0.007665
   3 O :   -0.658178    0.000508
   4 N :   -0.035397    0.050805
   5 N :   -0.056575    0.002788
   6 N :    0.028772    0.001678
   7 N :    0.004927   -0.001663
   8 C :    1.083050    0.532104
   9 C :    0.494107    0.007008
  10 C :   -0.200354   -0.411361
  11 C :    0.070245   -0.004278
  12 C :   -1.361743   -0.044295
  13 C :   -1.401688    0.005036
  14 C :    0.239726   -0.261724
  15 C :    0.635501   -0.007533
  16 C :    0.380711    0.020062
  17 C :    0.448520   -0.001961
  18 H :    0.182187    0.037419
  19 H :    0.138854   -0.000906
  20 H :    0.220420    0.019136
  21 H :    0.340788    0.013071
  22 H :    0.325604    0.001328
  23 H :    0.354124    0.000256
  24 H :    0.328467    0.000954
  25 H :    0.217815   -0.004326
  26 H :    0.080710    0.000968
  27 H :    0.029323   -0.000160
  28 H :    0.026195    0.003086
  29 H :    0.062068   -0.002347
Sum of atomic charges       :   -0.0000000

LOEWDIN ATOMIC CHARGES AND SPIN DENSITIES
-----------------------------------------
   0 O :    0.080296    0.029589
   1 O :    0.102217    0.000367
   2 O :    0.085732    0.006182
   3 O :    0.078277   -0.000045
   4 N :    0.283140    0.021730
   5 N :    0.274406    0.000238
   6 N :    0.344075   -0.000511
   7 N :    0.341761   -0.000244
   8 C :   -0.131143   -0.030819
   9 C :   -0.132551   -0.000405
  10 C :    0.080620   -0.030675
  11 C :    0.057868   -0.001271
  12 C :    0.171997   -0.003624
  13 C :    0.180326    0.000155
  14 C :   -0.413371    0.009075
  15 C :   -0.387931    0.000107
  16 C :   -0.488077    0.000665
  17 C :   -0.484306   -0.000312
  18 H :    0.026533   -0.002237
  19 H :    0.033902   -0.000036
  20 H :   -0.010826   -0.000253
  21 H :   -0.009302    0.000297
  22 H :    0.002815   -0.000237
  23 H :   -0.000031    0.000006
  24 H :   -0.009049    0.000015
  25 H :   -0.008451    0.000083
  26 H :   -0.017084    0.002009
  27 H :   -0.019610    0.000018
  28 H :   -0.012200    0.000145
  29 H :   -0.020030   -0.000014

  Mayer bond orders larger than 0.100000
B(  0-O , 14-C ) :   1.4371 B(  1-O , 15-C ) :   1.4345 B(  2-O , 16-C ) :   1.5794
B(  3-O , 17-C ) :   1.5532 B(  4-N , 10-C ) :   0.9231 B(  4-N , 16-C ) :   0.9523
B(  4-N , 26-H ) :   1.1079 B(  5-N , 11-C ) :   0.9700 B(  5-N , 17-C ) :   1.0449
B(  5-N , 27-H ) :   1.1313 B(  6-N , 14-C ) :   0.9390 B(  6-N , 16-C ) :   0.9558
B(  6-N , 28-H ) :   1.1024 B(  7-N , 15-C ) :   0.9618 B(  7-N , 17-C ) :   0.9640
B(  7-N , 29-H ) :   1.1054 B(  8-C , 10-C ) :   1.1093 B(  8-C , 12-C ) :   0.3381
B(  8-C , 14-C ) :   0.6900 B(  9-C , 11-C ) :   1.2458 B(  9-C , 13-C ) :   0.3572
B(  9-C , 15-C ) :   0.8616 B(  9-C , 25-H ) :  -0.1197 B( 10-C , 16-C ) :  -0.1062
B( 10-C , 18-H ) :   1.1027 B( 11-C , 13-C ) :  -0.1500 B( 11-C , 19-H ) :   1.0968
B( 12-C , 20-H ) :   1.0212 B( 12-C , 21-H ) :   0.9712 B( 12-C , 22-H ) :   0.9344
B( 13-C , 23-H ) :   0.9138 B( 13-C , 24-H ) :   1.0135 B( 13-C , 25-H ) :   1.0232

Dispersion correction           -0.056706720
FINAL SINGLE POINT ENERGY      -908.924359608496

DIPOLE MOMENT
-------------

Method             : TDA/CIS
Type of density    : Electron Density
Level              : Relaxed density
State              :   1
Multiplicity       :   3
Irrep              :   0
Energy             :     0.0000000000000000 Eh
Relativity type    :
Basis              : AO
                                X                 Y                 Z
Electronic contribution:     -2.835605490     -10.509611055      -5.951599679
Nuclear contribution   :      1.870559442      11.388639004       8.510244499
                        -----------------------------------------
Total Dipole Moment    :     -0.965046048       0.879027949       2.558644820
                        -----------------------------------------
Magnitude (a.u.)       :      2.872397487
Magnitude (Debye)      :      7.301054188

Rotational constants in cm-1:             0.017704             0.015031             0.011998
Rotational constants in MHz :           530.752208           450.612596           359.677319

                             ****ORCA TERMINATED NORMALLY****
TOTAL RUN TIME: 0 days 0 hours 5 minutes 7 seconds 197 msec
