                         Program Version 6.0.0  -   RELEASE  -
|  1> ! Engrad def2-TZVPPD wB97M-D3BJ
|  2> %pal nprocs 8 end%pal nprocs 64 end
|  3> %tddft Nroots 2 Iroot 2
|  4> sf true
|  5> end
|  6> *xyz 0 3
|  7> O   4.0609157 0.1387632 0.34553933
|  8> O   -1.718528 1.52178979 -2.38266867
|  9> O   1.14271283 -3.01470247 -1.08419834
| 10> O   -3.6305127 -1.34867042 0.50743618
| 11> N   0.29690968 -1.27111897 0.09453102
| 12> N   -1.98284286 -0.00920739 1.31312067
| 13> N   2.58823495 -1.4871678 -0.24379868
| 14> N   -2.41681924 -0.11140651 -0.96906636
| 15> C   1.8194386 0.40264153 1.01975752
| 16> C   -0.91964943 1.57239735 -0.15721215
| 17> C   0.46589133 -0.26988945 1.12789549
| 18> C   -0.73199811 0.7035064 1.09872008
| 19> C   2.09931934 1.65862388 1.72456355
| 20> C   -0.6380551 3.00805751 -0.09825403
| 21> C   2.91756862 -0.2866449 0.36181631
| 22> C   -1.67770093 1.02382654 -1.27369367
| 23> C   1.31725129 -2.00179213 -0.44801042
| 24> C   -2.74258002 -0.54848478 0.30805726
| 25> H   0.43957167 -0.75972143 2.11863653
| 26> H   -0.60346574 1.39275115 1.93404847
| 27> H   3.17496172 1.75187372 1.90683219
| 28> H   1.8147468 2.51998565 1.12858337
| 29> H   1.54073679 1.73343357 2.65032183
| 30> H   -1.21148806 3.47041917 0.71492943
| 31> H   0.40479415 3.20287326 0.1445622
| 32> H   -0.88373153 3.49170886 -1.03407897
| 33> H   -0.5731104 -1.77066806 0.07085786
| 34> H   -2.21729885 -0.35480588 2.22818439
| 35> H   3.33090852 -1.9842145 -0.71521298
| 36> H   -3.0025447 -0.47738586 -1.7026493
| 37> *
| 38>
| 39>                          ****END OF INPUT****

CARTESIAN COORDINATES (ANGSTROEM)
---------------------------------
  O      4.060916    0.138763    0.345539
  O     -1.718528    1.521790   -2.382669
  O      1.142713   -3.014702   -1.084198
  O     -3.630513   -1.348670    0.507436
  N      0.296910   -1.271119    0.094531
  N     -1.982843   -0.009207    1.313121
  N      2.588235   -1.487168   -0.243799
  N     -2.416819   -0.111407   -0.969066
  C      1.819439    0.402642    1.019758
  C     -0.919649    1.572397   -0.157212
  C      0.465891   -0.269889    1.127895
  C     -0.731998    0.703506    1.098720
  C      2.099319    1.658624    1.724564
  C     -0.638055    3.008058   -0.098254
  C      2.917569   -0.286645    0.361816
  C     -1.677701    1.023827   -1.273694
  C      1.317251   -2.001792   -0.448010
  C     -2.742580   -0.548485    0.308057
  H      0.439572   -0.759721    2.118637
  H     -0.603466    1.392751    1.934048
  H      3.174962    1.751874    1.906832
  H      1.814747    2.519986    1.128583
  H      1.540737    1.733434    2.650322
  H     -1.211488    3.470419    0.714929
  H      0.404794    3.202873    0.144562
  H     -0.883732    3.491709   -1.034079
  H     -0.573110   -1.770668    0.070858
  H     -2.217299   -0.354806    2.228184
  H      3.330909   -1.984214   -0.715213
  H     -3.002545   -0.477386   -1.702649

 Total Charge           Charge          ....    0
 Multiplicity           Mult            ....    3
 Number of Electrons    NEL             ....  132
 Basis Dimension        Dim             ....  882

ORBITAL ENERGIES
----------------
                 SPIN UP ORBITALS
  NO   OCC          E(Eh)            E(eV)
   0   1.0000     -19.338543      -526.2285
   1   1.0000     -19.335061      -526.1338
   2   1.0000     -19.326008      -525.8874
   3   1.0000     -19.317203      -525.6478
   4   1.0000     -14.568853      -396.4386
   5   1.0000     -14.566341      -396.3703
   6   1.0000     -14.563899      -396.3038
   7   1.0000     -14.557676      -396.1345
   8   1.0000     -10.511707      -286.0381
   9   1.0000     -10.503537      -285.8158
  10   1.0000     -10.485261      -285.3185
  11   1.0000     -10.483541      -285.2716
  12   1.0000     -10.452286      -284.4212
  13   1.0000     -10.449285      -284.3395
  14   1.0000     -10.423527      -283.6386
  15   1.0000     -10.422914      -283.6219
  16   1.0000     -10.376882      -282.3693
  17   1.0000     -10.376389      -282.3559
  18   1.0000      -1.225671       -33.3522
  19   1.0000      -1.219517       -33.1848
  20   1.0000      -1.201683       -32.6995
  21   1.0000      -1.197173       -32.5767
  22   1.0000      -1.122845       -30.5542
  23   1.0000      -1.100517       -29.9466
  24   1.0000      -1.071555       -29.1585
  25   1.0000      -1.060029       -28.8448
  26   1.0000      -0.984946       -26.8017
  27   1.0000      -0.961183       -26.1551
  28   1.0000      -0.899403       -24.4740
  29   1.0000      -0.846312       -23.0293
  30   1.0000      -0.834445       -22.7064
  31   1.0000      -0.802054       -21.8250
  32   1.0000      -0.790034       -21.4979
  33   1.0000      -0.785872       -21.3847
  34   1.0000      -0.705390       -19.1946
  35   1.0000      -0.702465       -19.1150
  36   1.0000      -0.692211       -18.8360
  37   1.0000      -0.682177       -18.5630
  38   1.0000      -0.648488       -17.6463
  39   1.0000      -0.643745       -17.5172
  40   1.0000      -0.628475       -17.1017
  41   1.0000      -0.607859       -16.5407
  42   1.0000      -0.600916       -16.3518
  43   1.0000      -0.588822       -16.0227
  44   1.0000      -0.582229       -15.8433
  45   1.0000      -0.578753       -15.7487
  46   1.0000      -0.571653       -15.5555
  47   1.0000      -0.565034       -15.3753
  48   1.0000      -0.562152       -15.2969
  49   1.0000      -0.560966       -15.2647
  50   1.0000      -0.555129       -15.1058
  51   1.0000      -0.547055       -14.8861
  52   1.0000      -0.537518       -14.6266
  53   1.0000      -0.527316       -14.3490
  54   1.0000      -0.517407       -14.0794
  55   1.0000      -0.511955       -13.9310
  56   1.0000      -0.494374       -13.4526
  57   1.0000      -0.425118       -11.5680
  58   1.0000      -0.423736       -11.5304
  59   1.0000      -0.413861       -11.2617
  60   1.0000      -0.407257       -11.0820
  61   1.0000      -0.401261       -10.9189
  62   1.0000      -0.396617       -10.7925
  63   1.0000      -0.391243       -10.6463
  64   1.0000      -0.384284       -10.4569
  65   1.0000      -0.347372        -9.4525
  66   1.0000      -0.340140        -9.2557
  67   0.0000       0.007331         0.1995
  68   0.0000       0.028571         0.7775
  69   0.0000       0.031539         0.8582
  70   0.0000       0.033497         0.9115
  71   0.0000       0.053377         1.4525

                 SPIN DOWN ORBITALS
  NO   OCC          E(Eh)            E(eV)
   0   1.0000     -19.334315      -526.1135
   1   1.0000     -19.330902      -526.0206
   2   1.0000     -19.325812      -525.8821
   3   1.0000     -19.317171      -525.6469
   4   1.0000     -14.568383      -396.4259
   5   1.0000     -14.566038      -396.3620
   6   1.0000     -14.563237      -396.2858
   7   1.0000     -14.557588      -396.1321
   8   1.0000     -10.511724      -286.0385
   9   1.0000     -10.503580      -285.8169
  10   1.0000     -10.486343      -285.3479
  11   1.0000     -10.484555      -285.2992
  12   1.0000     -10.452412      -284.4246
  13   1.0000     -10.449356      -284.3414
  14   1.0000     -10.411686      -283.3164
  15   1.0000     -10.411483      -283.3108
  16   1.0000     -10.377463      -282.3851
  17   1.0000     -10.376964      -282.3715
  18   1.0000      -1.224112       -33.3098
  19   1.0000      -1.217781       -33.1375
  20   1.0000      -1.196660       -32.5628
  21   1.0000      -1.192558       -32.4512
  22   1.0000      -1.120612       -30.4934
  23   1.0000      -1.098475       -29.8910
  24   1.0000      -1.069837       -29.1118
  25   1.0000      -1.058615       -28.8064
  26   1.0000      -0.972335       -26.4586
  27   1.0000      -0.943809       -25.6823
  28   1.0000      -0.894516       -24.3410
  29   1.0000      -0.840768       -22.8785
  30   1.0000      -0.825117       -22.4526
  31   1.0000      -0.797865       -21.7110
  32   1.0000      -0.788158       -21.4469
  33   1.0000      -0.784330       -21.3427
  34   1.0000      -0.701304       -19.0835
  35   1.0000      -0.695653       -18.9297
  36   1.0000      -0.685480       -18.6528
  37   1.0000      -0.674971       -18.3669
  38   1.0000      -0.641817       -17.4647
  39   1.0000      -0.633708       -17.2441
  40   1.0000      -0.625868       -17.0307
  41   1.0000      -0.602491       -16.3946
  42   1.0000      -0.594576       -16.1792
  43   1.0000      -0.583012       -15.8646
  44   1.0000      -0.574167       -15.6239
  45   1.0000      -0.570836       -15.5332
  46   1.0000      -0.567015       -15.4293
  47   1.0000      -0.561949       -15.2914
  48   1.0000      -0.556817       -15.1518
  49   1.0000      -0.552347       -15.0301
  50   1.0000      -0.544813       -14.8251
  51   1.0000      -0.538970       -14.6661
  52   1.0000      -0.529521       -14.4090
  53   1.0000      -0.517279       -14.0759
  54   1.0000      -0.510653       -13.8956
  55   1.0000      -0.505251       -13.7486
  56   1.0000      -0.489210       -13.3121
  57   1.0000      -0.422198       -11.4886
  58   1.0000      -0.419033       -11.4025
  59   1.0000      -0.406321       -11.0566
  60   1.0000      -0.395551       -10.7635
  61   1.0000      -0.393322       -10.7028
  62   1.0000      -0.391716       -10.6591
  63   1.0000      -0.387072       -10.5328
  64   1.0000      -0.380096       -10.3429
  65   0.0000      -0.063642        -1.7318
  66   0.0000      -0.052361        -1.4248
  67   0.0000       0.007072         0.1924
  68   0.0000       0.028217         0.7678
  69   0.0000       0.031024         0.8442

----------------------------------------------------------------------------------------------------
          SPIN FLIP ABSORPTION SPECTRUM VIA TRANSITION ELECTRIC DIPOLE MOMENTS
----------------------------------------------------------------------------------------------------
     Transition      Energy     Energy  Wavelength fosc(D2)      D2        DX        DY        DZ
                      (eV)      (cm-1)    (nm)                 (au**2)    (au)      (au)      (au)
----------------------------------------------------------------------------------------------------
  1-3A  ->  2-3A    0.053801     433.9  23045.0   0.000000119   0.00009   0.00798   0.00500   0.00110

Dispersion correction             ... done (  0.1 sec)

MULLIKEN ATOMIC CHARGES AND SPIN DENSITIES
------------------------------------------
   0 O :   -0.649040    0.148884
   1 O :   -0.657344   -0.152041
   2 O :   -0.658975    0.001213
   3 O :   -0.644721   -0.006046
   4 N :   -0.136284    0.007649
   5 N :   -0.303439   -0.026843
   6 N :   -0.049992    0.028072
   7 N :    0.026313   -0.018777
   8 C :    0.065235    0.422570
   9 C :    1.157177    0.153615
  10 C :    0.353829    0.025560
  11 C :    0.297304   -0.301200
  12 C :   -1.695230   -0.001386
  13 C :   -1.427066   -0.041389
  14 C :    0.740973    0.153688
  15 C :   -0.282439   -0.521971
  16 C :    0.383437   -0.004990
  17 C :    0.419423    0.018924
  18 H :    0.472667    0.047316
  19 H :    0.620017    0.024610
  20 H :    0.332080    0.013239
  21 H :    0.239609    0.034404
  22 H :    0.335167    0.006317
  23 H :    0.354580    0.002305
  24 H :    0.223970    0.027754
  25 H :    0.331634   -0.025656
  26 H :    0.000787   -0.018473
  27 H :    0.051701    0.001508
  28 H :    0.052182   -0.002905
  29 H :    0.046446    0.004049
Sum of atomic charges       :    0.0000000

LOEWDIN ATOMIC CHARGES AND SPIN DENSITIES
-----------------------------------------
   0 O :    0.089025    0.132428
   1 O :    0.088778   -0.139725
   2 O :    0.094249    0.000854
   3 O :    0.087780   -0.006421
   4 N :    0.288147   -0.001201
   5 N :    0.277377   -0.015575
   6 N :    0.323481    0.024751
   7 N :    0.319718   -0.014279
   8 C :   -0.000655    0.500610
   9 C :    0.037006   -0.497847
  10 C :   -0.110083    0.046930
  11 C :   -0.113753   -0.038022
  12 C :    0.189050    0.077739
  13 C :    0.191019   -0.084339
  14 C :   -0.392207    0.082082
  15 C :   -0.415808   -0.085930
  16 C :   -0.474126    0.000452
  17 C :   -0.499906   -0.001688
  18 H :    0.068503    0.024008
  19 H :    0.041351   -0.000899
  20 H :    0.010054    0.003844
  21 H :   -0.022015    0.025838
  22 H :    0.001504    0.010271
  23 H :    0.025893   -0.025398
  24 H :   -0.022446   -0.019042
  25 H :    0.002333    0.001147
  26 H :   -0.042569   -0.000327
  27 H :   -0.025756   -0.001208
  28 H :   -0.007121    0.002117
  29 H :   -0.008824   -0.001170

  Mayer bond orders larger than 0.100000
B(  0-O ,  8-C ) :   0.1240 B(  0-O , 14-C ) :   1.3053 B(  1-O , 15-C ) :   1.3911
B(  2-O , 16-C ) :   1.5662 B(  3-O , 17-C ) :   1.5953 B(  4-N , 10-C ) :   0.5290
B(  4-N , 11-C ) :   0.1315 B(  4-N , 16-C ) :   1.1448 B(  4-N , 26-H ) :   1.1050
B(  5-N ,  9-C ) :   0.1551 B(  5-N , 10-C ) :   0.1707 B(  5-N , 17-C ) :   1.1537
B(  5-N , 27-H ) :   1.1040 B(  6-N , 14-C ) :   0.9928 B(  6-N , 16-C ) :   0.9275
B(  6-N , 28-H ) :   1.1160 B(  7-N , 15-C ) :   1.0365 B(  7-N , 17-C ) :   0.9467
B(  7-N , 29-H ) :   1.0860 B(  8-C ,  9-C ) :   0.1231 B(  8-C , 10-C ) :   0.3249
B(  8-C , 12-C ) :   0.3959 B(  8-C , 14-C ) :   0.6563 B(  8-C , 22-H ) :  -0.1576
B(  9-C , 10-C ) :   0.1283 B(  9-C , 11-C ) :   0.1477 B(  9-C , 13-C ) :   0.4260
B(  9-C , 15-C ) :   0.2492 B(  9-C , 19-H ) :  -0.1114 B( 10-C , 11-C ) :   0.6307
B( 10-C , 12-C ) :  -0.3429 B( 10-C , 14-C ) :   0.2805 B( 10-C , 18-H ) :   0.7815
B( 11-C , 13-C ) :  -0.2021 B( 11-C , 17-C ) :  -0.2218 B( 11-C , 19-H ) :   0.7490
B( 12-C , 14-C ) :  -0.4026 B( 12-C , 20-H ) :   1.0260 B( 12-C , 21-H ) :   0.8809
B( 12-C , 22-H ) :   1.0346 B( 13-C , 23-H ) :   0.8708 B( 13-C , 24-H ) :   0.9568
B( 13-C , 25-H ) :   0.9904

Dispersion correction           -0.056608955
FINAL SINGLE POINT ENERGY      -908.801329692216

DIPOLE MOMENT
-------------

Method             : TDA/CIS
Type of density    : Electron Density
Level              : Relaxed density
State              :   2
Multiplicity       :   3
Irrep              :   0
Energy             :     0.0000000000000000 Eh
Relativity type    :
Basis              : AO
                                X                 Y                 Z
Electronic contribution:     -1.984811886     -10.155757033      -5.918923709
Nuclear contribution   :      1.993593962      11.766997262       8.174639968
                        -----------------------------------------
Total Dipole Moment    :      0.008782076       1.611240229       2.255716259
                        -----------------------------------------
Magnitude (a.u.)       :      2.772080093
Magnitude (Debye)      :      7.046067636

Rotational constants in cm-1:             0.020481             0.011407             0.009498
Rotational constants in MHz :           613.992224           341.963219           284.729640

                             ****ORCA TERMINATED NORMALLY****
TOTAL RUN TIME: 0 days 0 hours 4 minutes 15 seconds 130 msec
