                         Program Version 6.0.0  -   RELEASE  -
|  1> ! Opt wB97M-D3BJ def2-TZVPPD
|  2> %pal nprocs 8 end %pal nprocs 64 end
|  3> %geom
|  4> Constraints
|  5>     {A 2 1 0 60.90909090909091 C }
|  6> end
|  7> MaxIter 500
|  8> end
|  9> *xyz 0 1
| 10> O   -0.0007 0.8141 0.0
| 11> C   0.7509 -0.4065 0.0
| 12> C   -0.7502 -0.4076 0.0
| 13> H   1.2625 -0.6786 0.9136
| 14> H   1.2625 -0.6787 -0.9136
| 15> H   -1.2614 -0.6806 -0.9136
| 16> H   -1.2614 -0.6805 0.9136
| 17> *
| 18>
| 19>                          ****END OF INPUT****
 Total Charge           Charge          ....    0
 Multiplicity           Mult            ....    1
 Number of Electrons    NEL             ....   24
Dispersion correction           -0.005217517
FINAL SINGLE POINT ENERGY      -153.886977133290
Dispersion correction             ... done (  0.1 sec)
Dispersion correction           -0.005224560
FINAL SINGLE POINT ENERGY      -153.888966096407
Dispersion correction             ... done (  0.1 sec)
Dispersion correction           -0.005229615
FINAL SINGLE POINT ENERGY      -153.889210525826
Dispersion correction             ... done (  0.2 sec)
Dispersion correction           -0.005229390
FINAL SINGLE POINT ENERGY      -153.889219144521
Dispersion correction             ... done (  0.1 sec)
Dispersion correction           -0.005229368
FINAL SINGLE POINT ENERGY      -153.889222950212
Dispersion correction             ... done (  0.1 sec)
                    ***********************HURRAY********************

CARTESIAN COORDINATES (ANGSTROEM)
---------------------------------
  O      0.015193    0.791712   -0.000045
  C      0.722345   -0.428883    0.000132
  C     -0.729061   -0.454089   -0.000136
  H      1.258118   -0.654739    0.914752
  H      1.257874   -0.654887   -0.914627
  H     -1.261270   -0.658774   -0.918929
  H     -1.261000   -0.658741    0.918854

 Multiplicity           Mult            ....    1
 Number of Electrons    NEL             ....   24
 Basis Dimension        Dim             ....  182

ORBITAL ENERGIES
----------------

  NO   OCC          E(Eh)            E(eV)
   0   2.0000     -19.351721      -526.5871
   1   2.0000     -10.399800      -282.9929
   2   2.0000     -10.398685      -282.9626
   3   2.0000      -1.206194       -32.8222
   4   2.0000      -0.807042       -21.9607
   5   2.0000      -0.755695       -20.5635
   6   2.0000      -0.631480       -17.1834
   7   2.0000      -0.595197       -16.1961
   8   2.0000      -0.502545       -13.6750
   9   2.0000      -0.490100       -13.3363
  10   2.0000      -0.425513       -11.5788
  11   2.0000      -0.385340       -10.4856
  12   0.0000       0.042567         1.1583
  13   0.0000       0.058731         1.5981
  14   0.0000       0.075035         2.0418
  15   0.0000       0.077919         2.1203
  16   0.0000       0.114170         3.1067

MULLIKEN ATOMIC CHARGES
-----------------------
   0 O :   -0.383380
   1 C :   -0.159588
   2 C :   -0.181238
   3 H :    0.181767
   4 H :    0.181706
   5 H :    0.180393
   6 H :    0.180341
Sum of atomic charges:   -0.0000000

LOEWDIN ATOMIC CHARGES
----------------------
   0 O :   -0.031456
   1 C :   -0.034781
   2 C :    0.020280
   3 H :    0.013415
   4 H :    0.013409
   5 H :    0.009569
   6 H :    0.009563

  Mayer bond orders larger than 0.100000
B(  0-O ,  1-C ) :   0.8149 B(  0-O ,  2-C ) :   0.8367 B(  1-C ,  2-C ) :   0.8206
B(  1-C ,  3-H ) :   1.0206 B(  1-C ,  4-H ) :   1.0207 B(  2-C ,  5-H ) :   1.0122
B(  2-C ,  6-H ) :   1.0123

Dispersion correction           -0.005229436
FINAL SINGLE POINT ENERGY      -153.889223143821

DIPOLE MOMENT
-------------

Method             : SCF
Type of density    : Electron Density
Multiplicity       :   1
Irrep              :   0
Energy             :  -153.8839937082073277 Eh
Relativity type    :
Basis              : AO
                                X                 Y                 Z
Electronic contribution:      0.002019870       1.632480084      -0.000079938
Nuclear contribution   :     -0.019013406      -2.402817707       0.000107791
                        -----------------------------------------
Total Dipole Moment    :     -0.016993536      -0.770337623       0.000027853
                        -----------------------------------------
Magnitude (a.u.)       :      0.770525038
Magnitude (Debye)      :      1.958519000

Rotational constants in cm-1:             0.853359             0.748551             0.474904
Rotational constants in MHz :         25583.054479         22441.001545         14237.260745

                             ****ORCA TERMINATED NORMALLY****
TOTAL RUN TIME: 0 days 0 hours 1 minutes 21 seconds 231 msec
