                         Program Version 6.0.0  -   RELEASE  -
|  1> ! Engrad wB97M-D3BJ def2-TZVPPD
|  2> %pal nprocs 8 end%pal nprocs 16 end
|  3> %tddft nroots 2 Iroot 2
|  4>  sf true
|  5> end
|  6> *xyz 0 3
|  7> O   1.43230255233588 1.03879523668431 -0.05707503923186
|  8> C   0.93827620028722 -0.00869268830668 0.25748974237082
|  9> C   -0.31064078199814 -0.67334496044312 -0.23258308970298
| 10> H   1.4531525128765 -0.61756727138929 1.03170716848275
| 11> H   -0.04493913575587 -1.65275529648054 -0.6309960159409
| 12> H   -0.8234437945936 -0.08662089525152 -0.98976405236766
| 13> H   -0.96706496154202 -0.84278411339588 0.62122128638983
| 14> *
| 15>
| 16>                          ****END OF INPUT****

CARTESIAN COORDINATES (ANGSTROEM)
---------------------------------
  O      1.432303    1.038795   -0.057075
  C      0.938276   -0.008693    0.257490
  C     -0.310641   -0.673345   -0.232583
  H      1.453153   -0.617567    1.031707
  H     -0.044939   -1.652755   -0.630996
  H     -0.823444   -0.086621   -0.989764
  H     -0.967065   -0.842784    0.621221

 Total Charge           Charge          ....    0
 Multiplicity           Mult            ....    3
 Number of Electrons    NEL             ....   24
 Basis Dimension        Dim             ....  182

ORBITAL ENERGIES
----------------
                 SPIN UP ORBITALS
  NO   OCC          E(Eh)            E(eV)
   0   1.0000     -19.408274      -528.1260
   1   1.0000     -10.379600      -282.4433
   2   1.0000     -10.368144      -282.1315
   3   1.0000      -1.244979       -33.8776
   4   1.0000      -0.884998       -24.0820
   5   1.0000      -0.716988       -19.5102
   6   1.0000      -0.632837       -17.2204
   7   1.0000      -0.588394       -16.0110
   8   1.0000      -0.581458       -15.8223
   9   1.0000      -0.515915       -14.0388
  10   1.0000      -0.514990       -14.0136
  11   1.0000      -0.430431       -11.7126
  12   1.0000      -0.218983        -5.9588
  13   0.0000       0.039815         1.0834
  14   0.0000       0.060076         1.6348
  15   0.0000       0.078097         2.1251
  16   0.0000       0.087727         2.3872
  17   0.0000       0.107246         2.9183

                 SPIN DOWN ORBITALS
  NO   OCC          E(Eh)            E(eV)
   0   1.0000     -19.380859      -527.3800
   1   1.0000     -10.369349      -282.1643
   2   1.0000     -10.366069      -282.0751
   3   1.0000      -1.187909       -32.3246
   4   1.0000      -0.865913       -23.5627
   5   1.0000      -0.671744       -18.2791
   6   1.0000      -0.585748       -15.9390
   7   1.0000      -0.541219       -14.7273
   8   1.0000      -0.535726       -14.5778
   9   1.0000      -0.498664       -13.5693
  10   1.0000      -0.471539       -12.8312
  11   0.0000      -0.083201        -2.2640
  12   0.0000       0.040475         1.1014
  13   0.0000       0.059742         1.6257
  14   0.0000       0.077834         2.1180
  15   0.0000       0.084549         2.3007

----------------------------------------------------------------------------------------------------
          SPIN FLIP ABSORPTION SPECTRUM VIA TRANSITION ELECTRIC DIPOLE MOMENTS
----------------------------------------------------------------------------------------------------
     Transition      Energy     Energy  Wavelength fosc(D2)      D2        DX        DY        DZ
                      (eV)      (cm-1)    (nm)                 (au**2)    (au)      (au)      (au)
----------------------------------------------------------------------------------------------------
  1-3A  ->  2-3A    4.616851   37237.4   268.5   0.000178040   0.00157  -0.02085   0.01836   0.02832

Dispersion correction             ... done (  0.0 sec)

MULLIKEN ATOMIC CHARGES AND SPIN DENSITIES
------------------------------------------
   0 O :   -0.265131    0.576284
   1 C :    0.226500   -0.612072
   2 C :   -0.710875    0.118945
   3 H :    0.093767    0.013703
   4 H :    0.203201   -0.047918
   5 H :    0.248455   -0.002709
   6 H :    0.204084   -0.046233
Sum of atomic charges       :   -0.0000000

LOEWDIN ATOMIC CHARGES AND SPIN DENSITIES
-----------------------------------------
   0 O :    0.158853    0.387805
   1 C :   -0.258833   -0.340988
   2 C :    0.134121   -0.016458
   3 H :    0.013061    0.006301
   4 H :   -0.019701   -0.021564
   5 H :   -0.007837    0.006413
   6 H :   -0.019664   -0.021511

  Mayer bond orders larger than 0.100000
B(  0-O ,  1-C ) :   1.2860 B(  1-C ,  2-C ) :   0.6243 B(  1-C ,  3-H ) :   1.0033
B(  2-C ,  4-H ) :   1.0139 B(  2-C ,  5-H ) :   0.9306 B(  2-C ,  6-H ) :   1.0124

Dispersion correction           -0.005522961
FINAL SINGLE POINT ENERGY      -153.754110247990

DIPOLE MOMENT
-------------

Method             : TDA/CIS
Type of density    : Electron Density
Level              : Relaxed density
State              :   2
Multiplicity       :   3
Irrep              :   0
Energy             :     0.0000000000000000 Eh
Relativity type    :
Basis              : AO
                                X                 Y                 Z
Electronic contribution:      2.519162080       2.924938236      -0.038870366
Nuclear contribution   :     -2.908999291      -3.431465340       0.079071964
                        -----------------------------------------
Total Dipole Moment    :     -0.389837211      -0.506527103       0.040201598
                        -----------------------------------------
Magnitude (a.u.)       :      0.640436512
Magnitude (Debye)      :      1.627860246

Rotational constants in cm-1:             2.077045             0.327200             0.298165
Rotational constants in MHz :         62268.236318          9809.215227          8938.750775

                             ****ORCA TERMINATED NORMALLY****
TOTAL RUN TIME: 0 days 0 hours 0 minutes 16 seconds 320 msec
