                         Program Version 6.0.0  -   RELEASE  -
|  1> ! Engrad def2-TZVPPD wB97M-D3BJ
|  2> %pal nprocs 8 end%pal nprocs 64 end
|  3> %tddft Nroots 2 Iroot 2
|  4> sf true
|  5> end
|  6> *xyz 0 3
|  7> O   2.39512434 1.23123082 -0.48243399
|  8> O   -0.57123912 0.74021304 -2.38564415
|  9> O   0.74690237 -2.92241945 -1.33565707
| 10> O   -2.52170113 -1.59407215 0.92228677
| 11> N   0.47722912 -2.05915842 0.73839293
| 12> N   -1.86854923 0.55096633 1.40884406
| 13> N   1.64304723 -0.9085062 -0.86368488
| 14> N   -1.62977391 -0.25046802 -0.69452649
| 15> C   1.52397848 -0.01250013 1.32589861
| 16> C   -0.73650501 1.91580413 -0.3097998
| 17> C   0.79891558 -1.14907258 1.65937512
| 18> C   -1.24609272 1.71116358 0.97114948
| 19> C   1.74707777 1.12634529 2.30384587
| 20> C   -0.36743032 3.24643933 -0.85634563
| 21> C   1.90728006 0.19909564 -0.04212365
| 22> C   -0.91987423 0.83043478 -1.2376527
| 23> C   0.98059805 -2.05564401 -0.54962679
| 24> C   -2.0763461 -0.50647415 0.57482724
| 25> H   0.28045741 -1.29097434 2.65357865
| 26> H   -1.41320574 2.45882505 1.6811822
| 27> H   1.43248451 2.0415928 1.80165428
| 28> H   1.00847582 0.92852692 3.04093667
| 29> H   2.76413039 1.21630923 2.70218784
| 30> H   -0.94757115 3.54191283 -1.69610412
| 31> H   -0.44782907 3.9870285 -0.07231742
| 32> H   0.6980775 3.24798737 -1.09176997
| 33> H   0.07600191 -2.95096745 0.94235679
| 34> H   -2.25352538 0.48798809 2.33792725
| 35> H   1.83666179 -0.72047135 -1.81884341
| 36> H   -1.806767 -0.95612094 -1.3251551
| 37> *
| 38>
| 39>                          ****END OF INPUT****

CARTESIAN COORDINATES (ANGSTROEM)
---------------------------------
  O      2.395124    1.231231   -0.482434
  O     -0.571239    0.740213   -2.385644
  O      0.746902   -2.922419   -1.335657
  O     -2.521701   -1.594072    0.922287
  N      0.477229   -2.059158    0.738393
  N     -1.868549    0.550966    1.408844
  N      1.643047   -0.908506   -0.863685
  N     -1.629774   -0.250468   -0.694526
  C      1.523978   -0.012500    1.325899
  C     -0.736505    1.915804   -0.309800
  C      0.798916   -1.149073    1.659375
  C     -1.246093    1.711164    0.971149
  C      1.747078    1.126345    2.303846
  C     -0.367430    3.246439   -0.856346
  C      1.907280    0.199096   -0.042124
  C     -0.919874    0.830435   -1.237653
  C      0.980598   -2.055644   -0.549627
  C     -2.076346   -0.506474    0.574827
  H      0.280457   -1.290974    2.653579
  H     -1.413206    2.458825    1.681182
  H      1.432485    2.041593    1.801654
  H      1.008476    0.928527    3.040937
  H      2.764130    1.216309    2.702188
  H     -0.947571    3.541913   -1.696104
  H     -0.447829    3.987029   -0.072317
  H      0.698077    3.247987   -1.091770
  H      0.076002   -2.950967    0.942357
  H     -2.253525    0.487988    2.337927
  H      1.836662   -0.720471   -1.818843
  H     -1.806767   -0.956121   -1.325155

 Total Charge           Charge          ....    0
 Multiplicity           Mult            ....    3
 Number of Electrons    NEL             ....  132
 Basis Dimension        Dim             ....  882

ORBITAL ENERGIES
----------------
                 SPIN UP ORBITALS
  NO   OCC          E(Eh)            E(eV)
   0   1.0000     -19.333950      -526.1035
   1   1.0000     -19.325153      -525.8642
   2   1.0000     -19.317917      -525.6672
   3   1.0000     -19.317025      -525.6430
   4   1.0000     -14.594704      -397.1421
   5   1.0000     -14.576706      -396.6523
   6   1.0000     -14.558409      -396.1544
   7   1.0000     -14.547672      -395.8623
   8   1.0000     -10.511749      -286.0392
   9   1.0000     -10.501690      -285.7655
  10   1.0000     -10.471035      -284.9313
  11   1.0000     -10.463202      -284.7182
  12   1.0000     -10.440761      -284.1076
  13   1.0000     -10.413341      -283.3614
  14   1.0000     -10.405417      -283.1458
  15   1.0000     -10.375432      -282.3299
  16   1.0000     -10.360884      -281.9340
  17   1.0000     -10.354228      -281.7529
  18   1.0000      -1.228766       -33.4364
  19   1.0000      -1.224748       -33.3271
  20   1.0000      -1.198838       -32.6221
  21   1.0000      -1.182614       -32.1806
  22   1.0000      -1.126747       -30.6603
  23   1.0000      -1.125734       -30.6328
  24   1.0000      -1.067428       -29.0462
  25   1.0000      -1.065519       -28.9942
  26   1.0000      -0.975755       -26.5517
  27   1.0000      -0.945648       -25.7324
  28   1.0000      -0.859659       -23.3925
  29   1.0000      -0.845466       -23.0063
  30   1.0000      -0.820838       -22.3361
  31   1.0000      -0.808732       -22.0067
  32   1.0000      -0.797477       -21.7005
  33   1.0000      -0.790260       -21.5041
  34   1.0000      -0.702996       -19.1295
  35   1.0000      -0.694936       -18.9102
  36   1.0000      -0.690559       -18.7911
  37   1.0000      -0.684253       -18.6195
  38   1.0000      -0.644540       -17.5388
  39   1.0000      -0.635079       -17.2814
  40   1.0000      -0.630789       -17.1646
  41   1.0000      -0.603169       -16.4130
  42   1.0000      -0.598289       -16.2803
  43   1.0000      -0.587475       -15.9860
  44   1.0000      -0.577222       -15.7070
  45   1.0000      -0.571228       -15.5439
  46   1.0000      -0.557943       -15.1824
  47   1.0000      -0.554995       -15.1022
  48   1.0000      -0.551358       -15.0032
  49   1.0000      -0.545705       -14.8494
  50   1.0000      -0.539210       -14.6726
  51   1.0000      -0.526089       -14.3156
  52   1.0000      -0.516652       -14.0588
  53   1.0000      -0.506291       -13.7769
  54   1.0000      -0.502365       -13.6701
  55   1.0000      -0.491411       -13.3720
  56   1.0000      -0.489700       -13.3254
  57   1.0000      -0.477223       -12.9859
  58   1.0000      -0.423735       -11.5304
  59   1.0000      -0.412643       -11.2286
  60   1.0000      -0.408249       -11.1090
  61   1.0000      -0.397727       -10.8227
  62   1.0000      -0.391287       -10.6475
  63   1.0000      -0.387078       -10.5329
  64   1.0000      -0.381421       -10.3790
  65   1.0000      -0.334914        -9.1135
  66   1.0000      -0.226627        -6.1668
  67   0.0000       0.011426         0.3109
  68   0.0000       0.018532         0.5043
  69   0.0000       0.031049         0.8449
  70   0.0000       0.039089         1.0637
  71   0.0000       0.041296         1.1237

                 SPIN DOWN ORBITALS
  NO   OCC          E(Eh)            E(eV)
   0   1.0000     -19.331919      -526.0483
   1   1.0000     -19.319718      -525.7162
   2   1.0000     -19.317898      -525.6667
   3   1.0000     -19.316773      -525.6361
   4   1.0000     -14.590774      -397.0351
   5   1.0000     -14.576687      -396.6518
   6   1.0000     -14.558433      -396.1551
   7   1.0000     -14.546795      -395.8384
   8   1.0000     -10.511937      -286.0444
   9   1.0000     -10.501692      -285.7656
  10   1.0000     -10.471063      -284.9321
  11   1.0000     -10.463192      -284.7179
  12   1.0000     -10.440727      -284.1066
  13   1.0000     -10.403058      -283.0816
  14   1.0000     -10.394238      -282.8416
  15   1.0000     -10.375423      -282.3296
  16   1.0000     -10.361323      -281.9459
  17   1.0000     -10.354081      -281.7489
  18   1.0000      -1.227647       -33.4060
  19   1.0000      -1.221194       -33.2304
  20   1.0000      -1.191135       -32.4124
  21   1.0000      -1.182185       -32.1689
  22   1.0000      -1.125791       -30.6343
  23   1.0000      -1.117143       -30.3990
  24   1.0000      -1.067360       -29.0444
  25   1.0000      -1.060462       -28.8566
  26   1.0000      -0.951658       -25.8959
  27   1.0000      -0.945031       -25.7156
  28   1.0000      -0.848115       -23.0784
  29   1.0000      -0.844615       -22.9832
  30   1.0000      -0.810900       -22.0657
  31   1.0000      -0.807705       -21.9788
  32   1.0000      -0.790598       -21.5133
  33   1.0000      -0.790023       -21.4976
  34   1.0000      -0.693942       -18.8831
  35   1.0000      -0.690581       -18.7917
  36   1.0000      -0.684622       -18.6295
  37   1.0000      -0.683233       -18.5917
  38   1.0000      -0.636789       -17.3279
  39   1.0000      -0.631822       -17.1927
  40   1.0000      -0.624926       -17.0051
  41   1.0000      -0.593815       -16.1585
  42   1.0000      -0.589439       -16.0394
  43   1.0000      -0.585936       -15.9441
  44   1.0000      -0.565608       -15.3910
  45   1.0000      -0.560045       -15.2396
  46   1.0000      -0.556901       -15.1541
  47   1.0000      -0.550372       -14.9764
  48   1.0000      -0.546246       -14.8641
  49   1.0000      -0.540326       -14.7030
  50   1.0000      -0.529354       -14.4044
  51   1.0000      -0.517937       -14.0938
  52   1.0000      -0.508662       -13.8414
  53   1.0000      -0.501223       -13.6390
  54   1.0000      -0.499017       -13.5789
  55   1.0000      -0.490986       -13.3604
  56   1.0000      -0.477367       -12.9898
  57   1.0000      -0.446771       -12.1573
  58   1.0000      -0.418705       -11.3935
  59   1.0000      -0.412230       -11.2174
  60   1.0000      -0.395786       -10.7699
  61   1.0000      -0.386637       -10.5209
  62   1.0000      -0.384035       -10.4501
  63   1.0000      -0.380484       -10.3535
  64   1.0000      -0.333795        -9.0830
  65   0.0000      -0.105237        -2.8636
  66   0.0000       0.011115         0.3024
  67   0.0000       0.019668         0.5352
  68   0.0000       0.030018         0.8168
  69   0.0000       0.038900         1.0585

----------------------------------------------------------------------------------------------------
          SPIN FLIP ABSORPTION SPECTRUM VIA TRANSITION ELECTRIC DIPOLE MOMENTS
----------------------------------------------------------------------------------------------------
     Transition      Energy     Energy  Wavelength fosc(D2)      D2        DX        DY        DZ
                      (eV)      (cm-1)    (nm)                 (au**2)    (au)      (au)      (au)
----------------------------------------------------------------------------------------------------
  1-3A  ->  2-3A    3.868791   31203.9   320.5   0.000767568   0.00810  -0.00204   0.06108   0.06605

Dispersion correction             ... done (  0.1 sec)

MULLIKEN ATOMIC CHARGES AND SPIN DENSITIES
------------------------------------------
   0 O :   -0.692084   -0.001453
   1 O :   -0.692874    0.003934
   2 O :   -0.643946   -0.000162
   3 O :   -0.665150    0.000858
   4 N :    0.110915   -0.000704
   5 N :    0.114178    0.009739
   6 N :    0.032005   -0.002908
   7 N :    0.073469   -0.005824
   8 C :    0.515933   -0.037416
   9 C :    1.157865    0.037871
  10 C :   -0.074557    0.014945
  11 C :   -0.603350    0.118109
  12 C :   -1.297559   -0.005548
  13 C :   -1.339234    0.003856
  14 C :    0.475151    0.025828
  15 C :    0.430748   -0.186521
  16 C :    0.388358   -0.000926
  17 C :    0.474058   -0.009275
  18 H :    0.189991    0.001895
  19 H :    0.161856    0.014200
  20 H :    0.258646   -0.000389
  21 H :    0.334705   -0.000199
  22 H :    0.338669   -0.001443
  23 H :    0.362958    0.005572
  24 H :    0.334042   -0.002693
  25 H :    0.269050    0.016352
  26 H :    0.021438    0.000326
  27 H :    0.047113   -0.000859
  28 H :    0.017748    0.000183
  29 H :   -0.100144    0.002651
Sum of atomic charges       :   -0.0000000

LOEWDIN ATOMIC CHARGES AND SPIN DENSITIES
-----------------------------------------
   0 O :    0.076972   -0.000787
   1 O :    0.102648    0.002681
   2 O :    0.112417   -0.000046
   3 O :    0.082005    0.000054
   4 N :    0.266253   -0.000176
   5 N :    0.298295    0.013863
   6 N :    0.354181   -0.000027
   7 N :    0.345251   -0.004444
   8 C :   -0.128943   -0.000325
   9 C :   -0.074325    0.004351
  10 C :    0.041668   -0.000181
  11 C :    0.053416   -0.003512
  12 C :    0.180800   -0.000876
  13 C :    0.223182    0.000673
  14 C :   -0.406290    0.000031
  15 C :   -0.439411   -0.005627
  16 C :   -0.489640   -0.000038
  17 C :   -0.478745   -0.002954
  18 H :    0.074107    0.000023
  19 H :   -0.029323   -0.004236
  20 H :   -0.017225   -0.000218
  21 H :   -0.044279   -0.000174
  22 H :    0.006782   -0.000157
  23 H :   -0.003762    0.000415
  24 H :   -0.006701   -0.000135
  25 H :    0.013007    0.000844
  26 H :   -0.018013   -0.000018
  27 H :   -0.004212    0.001546
  28 H :   -0.023404   -0.000027
  29 H :   -0.066710   -0.000522

  Mayer bond orders larger than 0.100000
B(  0-O , 14-C ) :   1.4691 B(  1-O , 15-C ) :   1.2170 B(  2-O , 16-C ) :   1.5418
B(  3-O , 17-C ) :   1.5015 B(  4-N , 10-C ) :   0.9124 B(  4-N , 16-C ) :   1.0497
B(  4-N , 26-H ) :   1.1181 B(  5-N , 11-C ) :   0.9290 B(  5-N , 17-C ) :   0.9983
B(  5-N , 27-H ) :   1.0945 B(  6-N , 14-C ) :   0.9859 B(  6-N , 16-C ) :   0.9069
B(  6-N , 28-H ) :   1.1294 B(  7-N , 15-C ) :   0.7682 B(  7-N , 17-C ) :   0.9168
B(  7-N , 29-H ) :   1.2012 B(  8-C ,  9-C ) :   0.1186 B(  8-C , 10-C ) :   1.1431
B(  8-C , 12-C ) :   0.3940 B(  8-C , 14-C ) :   0.8012 B(  9-C , 11-C ) :   0.6105
B(  9-C , 13-C ) :   0.3824 B(  9-C , 15-C ) :   0.8159 B(  9-C , 24-H ) :  -0.1282
B( 10-C , 16-C ) :  -0.1261 B( 10-C , 18-H ) :   1.1054 B( 11-C , 13-C ) :  -0.1211
B( 11-C , 19-H ) :   1.0869 B( 12-C , 20-H ) :   0.9770 B( 12-C , 21-H ) :   0.9747
B( 12-C , 22-H ) :   0.9437 B( 13-C , 23-H ) :   0.8438 B( 13-C , 24-H ) :   0.9910
B( 13-C , 25-H ) :   0.9419

Dispersion correction           -0.059453245
FINAL SINGLE POINT ENERGY      -908.748424626433

DIPOLE MOMENT
-------------

Method             : TDA/CIS
Type of density    : Electron Density
Level              : Relaxed density
State              :   2
Multiplicity       :   3
Irrep              :   0
Energy             :     0.0000000000000000 Eh
Relativity type    :
Basis              : AO
                                X                 Y                 Z
Electronic contribution:     -1.735148231     -10.290496037      -5.624436748
Nuclear contribution   :      1.051264282      11.299733194       8.045466526
                        -----------------------------------------
Total Dipole Moment    :     -0.683883949       1.009237157       2.421029778
                        -----------------------------------------
Magnitude (a.u.)       :      2.710653442
Magnitude (Debye)      :      6.889933497

Rotational constants in cm-1:             0.017503             0.015857             0.013728
Rotational constants in MHz :           524.735699           475.375395           411.544804

                             ****ORCA TERMINATED NORMALLY****
TOTAL RUN TIME: 0 days 0 hours 5 minutes 51 seconds 688 msec
