                         Program Version 6.0.0  -   RELEASE  -
|  1> ! Opt wB97M-D3BJ def2-TZVPPD
|  2> %pal nprocs 8 end %pal nprocs 64 end
|  3> %geom
|  4> Constraints
|  5>     {A 2 1 0 75.45454545454545 C }
|  6> end
|  7> MaxIter 500
|  8> end
|  9> *xyz 0 1
| 10> O   -0.0007 0.8141 0.0
| 11> C   0.7509 -0.4065 0.0
| 12> C   -0.7502 -0.4076 0.0
| 13> H   1.2625 -0.6786 0.9136
| 14> H   1.2625 -0.6787 -0.9136
| 15> H   -1.2614 -0.6806 -0.9136
| 16> H   -1.2614 -0.6805 0.9136
| 17> *
| 18>
| 19>                          ****END OF INPUT****
 Total Charge           Charge          ....    0
 Multiplicity           Mult            ....    1
 Number of Electrons    NEL             ....   24
Dispersion correction           -0.005291914
FINAL SINGLE POINT ENERGY      -153.855199434956
Dispersion correction             ... done (  0.1 sec)
Dispersion correction           -0.005261151
FINAL SINGLE POINT ENERGY      -153.861080473191
Dispersion correction             ... done (  0.1 sec)
Dispersion correction           -0.005251857
FINAL SINGLE POINT ENERGY      -153.863039393477
Dispersion correction             ... done (  0.1 sec)
FINAL SINGLE POINT ENERGY      -153.863347268093
FINAL SINGLE POINT ENERGY      -153.863449352592
Dispersion correction             ... done (  0.1 sec)
Dispersion correction           -0.005259202
FINAL SINGLE POINT ENERGY      -153.863472125452
Dispersion correction             ... done (  0.2 sec)
Dispersion correction           -0.005260146
FINAL SINGLE POINT ENERGY      -153.863476251246
Dispersion correction             ... done (  0.1 sec)
                    ***********************HURRAY********************

CARTESIAN COORDINATES (ANGSTROEM)
---------------------------------
  O      0.142058    0.879682   -0.000266
  C      0.671883   -0.369195    0.000152
  C     -0.729597   -0.577228   -0.000186
  H      1.226147   -0.650301    0.897882
  H      1.225699   -0.650508   -0.897861
  H     -1.267345   -0.676403   -0.927681
  H     -1.266645   -0.674448    0.927961

 Multiplicity           Mult            ....    1
 Number of Electrons    NEL             ....   24
 Basis Dimension        Dim             ....  182

ORBITAL ENERGIES
----------------

  NO   OCC          E(Eh)            E(eV)
   0   2.0000     -19.346003      -526.4315
   1   2.0000     -10.411969      -283.3241
   2   2.0000     -10.396556      -282.9047
   3   2.0000      -1.172714       -31.9112
   4   2.0000      -0.839266       -22.8376
   5   2.0000      -0.741452       -20.1759
   6   2.0000      -0.628070       -17.0907
   7   2.0000      -0.588870       -16.0240
   8   2.0000      -0.502600       -13.6764
   9   2.0000      -0.497216       -13.5299
  10   2.0000      -0.413389       -11.2489
  11   2.0000      -0.375541       -10.2190
  12   0.0000       0.036527         0.9940
  13   0.0000       0.051671         1.4060
  14   0.0000       0.061604         1.6763
  15   0.0000       0.076970         2.0945
  16   0.0000       0.105536         2.8718

MULLIKEN ATOMIC CHARGES
-----------------------
   0 O :   -0.424688
   1 C :   -0.103848
   2 C :   -0.276196
   3 H :    0.202800
   4 H :    0.202695
   5 H :    0.199537
   6 H :    0.199701
Sum of atomic charges:   -0.0000000

LOEWDIN ATOMIC CHARGES
----------------------
   0 O :   -0.026176
   1 C :   -0.228053
   2 C :    0.207800
   3 H :    0.023874
   4 H :    0.023875
   5 H :   -0.000647
   6 H :   -0.000672

  Mayer bond orders larger than 0.100000
B(  0-O ,  1-C ) :   0.7090 B(  0-O ,  2-C ) :   0.9164 B(  1-C ,  2-C ) :   0.7882
B(  1-C ,  3-H ) :   1.0485 B(  1-C ,  4-H ) :   1.0485 B(  2-C ,  5-H ) :   0.9791
B(  2-C ,  6-H ) :   0.9792

Dispersion correction           -0.005260385
FINAL SINGLE POINT ENERGY      -153.863477355844

DIPOLE MOMENT
-------------

Method             : SCF
Type of density    : Electron Density
Multiplicity       :   1
Irrep              :   0
Energy             :  -153.8582169704711760 Eh
Relativity type    :
Basis              : AO
                                X                 Y                 Z
Electronic contribution:      0.020780067       1.524953538      -0.000499126
Nuclear contribution   :     -0.202971423      -2.477594951       0.000652280
                        -----------------------------------------
Total Dipole Moment    :     -0.182191356      -0.952641413       0.000153154
                        -----------------------------------------
Magnitude (a.u.)       :      0.969906890
Magnitude (Debye)      :      2.465307392

Rotational constants in cm-1:             0.927384             0.631612             0.441924
Rotational constants in MHz :         27802.279201         18935.245785         13248.536139

                             ****ORCA TERMINATED NORMALLY****
TOTAL RUN TIME: 0 days 0 hours 1 minutes 49 seconds 76 msec
