                         Program Version 6.0.0  -   RELEASE  -
|  1> ! Engrad def2-TZVPPD wB97M-D3BJ
|  2> %pal nprocs 8 end%pal nprocs 64 end
|  3> %tddft
|  4>  Iroot 1 Nroots 3
|  5> sf true
|  6> end
|  7> *xyz 0 3
|  8> O   2.97432521 -0.82935903 -2.09738513
|  9> O   -2.26475355 1.23164259 -1.66611632
| 10> O   -1.2413433 -2.33460756 -1.18728185
| 11> O   -2.76334119 0.73253994 2.79077352
| 12> N   0.20913549 -1.75954851 0.5240836
| 13> N   -0.59984062 0.99241657 2.05915577
| 14> N   0.87126095 -1.49494362 -1.63474424
| 15> N   -2.4615823 0.92016034 0.59041657
| 16> C   2.27398775 -0.6338299 0.17488005
| 17> C   -0.31127203 1.29132476 -0.26321483
| 18> C   1.03736284 -0.63345247 0.96877395
| 19> C   0.34645799 0.84860072 1.01518961
| 20> C   3.49100939 0.05059415 0.67845813
| 21> C   0.45994039 1.7478101 -1.47229031
| 22> C   2.08641671 -1.00254291 -1.25527772
| 23> C   -1.74588167 1.12087521 -0.60754205
| 24> C   -0.16579049 -1.88386948 -0.81573694
| 25> C   -1.96779359 0.86377743 1.91711532
| 26> H   1.3159074 -0.89507583 2.02029622
| 27> H   1.29989322 1.4183655 1.24206379
| 28> H   3.55186256 1.03929474 0.37262516
| 29> H   3.4923006 0.05755449 1.73799335
| 30> H   4.45269032 -0.41130997 0.35555028
| 31> H   0.20883951 1.23667431 -2.3622016
| 32> H   0.15491599 2.78187831 -1.53310097
| 33> H   1.57582719 1.58637969 -1.30438818
| 34> H   -0.59651274 -2.03239864 1.09776628
| 35> H   -0.3193705 0.95824956 2.9892981
| 36> H   0.74698784 -1.52177043 -2.65316848
| 37> H   -3.46088823 0.89100925 0.47139866
| 38> *
| 39>
| 40>                          ****END OF INPUT****

CARTESIAN COORDINATES (ANGSTROEM)
---------------------------------
  O      2.974325   -0.829359   -2.097385
  O     -2.264754    1.231643   -1.666116
  O     -1.241343   -2.334608   -1.187282
  O     -2.763341    0.732540    2.790774
  N      0.209135   -1.759549    0.524084
  N     -0.599841    0.992417    2.059156
  N      0.871261   -1.494944   -1.634744
  N     -2.461582    0.920160    0.590417
  C      2.273988   -0.633830    0.174880
  C     -0.311272    1.291325   -0.263215
  C      1.037363   -0.633452    0.968774
  C      0.346458    0.848601    1.015190
  C      3.491009    0.050594    0.678458
  C      0.459940    1.747810   -1.472290
  C      2.086417   -1.002543   -1.255278
  C     -1.745882    1.120875   -0.607542
  C     -0.165790   -1.883869   -0.815737
  C     -1.967794    0.863777    1.917115
  H      1.315907   -0.895076    2.020296
  H      1.299893    1.418365    1.242064
  H      3.551863    1.039295    0.372625
  H      3.492301    0.057554    1.737993
  H      4.452690   -0.411310    0.355550
  H      0.208840    1.236674   -2.362202
  H      0.154916    2.781878   -1.533101
  H      1.575827    1.586380   -1.304388
  H     -0.596513   -2.032399    1.097766
  H     -0.319371    0.958250    2.989298
  H      0.746988   -1.521770   -2.653168
  H     -3.460888    0.891009    0.471399

 Total Charge           Charge          ....    0
 Multiplicity           Mult            ....    3
 Number of Electrons    NEL             ....  132
 Basis Dimension        Dim             ....  882

ORBITAL ENERGIES
----------------
                 SPIN UP ORBITALS
  NO   OCC          E(Eh)            E(eV)
   0   1.0000     -19.336563      -526.1746
   1   1.0000     -19.336376      -526.1695
   2   1.0000     -19.329174      -525.9736
   3   1.0000     -19.325545      -525.8748
   4   1.0000     -14.572019      -396.5248
   5   1.0000     -14.565323      -396.3426
   6   1.0000     -14.558098      -396.1460
   7   1.0000     -14.553307      -396.0156
   8   1.0000     -10.510383      -286.0021
   9   1.0000     -10.510324      -286.0005
  10   1.0000     -10.487907      -285.3905
  11   1.0000     -10.479318      -285.1567
  12   1.0000     -10.458232      -284.5830
  13   1.0000     -10.446897      -284.2745
  14   1.0000     -10.422933      -283.6224
  15   1.0000     -10.416160      -283.4381
  16   1.0000     -10.375902      -282.3426
  17   1.0000     -10.367585      -282.1163
  18   1.0000      -1.229116       -33.4460
  19   1.0000      -1.218035       -33.1444
  20   1.0000      -1.212956       -33.0062
  21   1.0000      -1.191470       -32.4215
  22   1.0000      -1.121391       -30.5146
  23   1.0000      -1.105500       -30.0822
  24   1.0000      -1.062455       -28.9109
  25   1.0000      -1.055702       -28.7271
  26   1.0000      -0.980029       -26.6679
  27   1.0000      -0.953576       -25.9481
  28   1.0000      -0.885436       -24.0939
  29   1.0000      -0.851231       -23.1632
  30   1.0000      -0.816704       -22.2236
  31   1.0000      -0.798941       -21.7403
  32   1.0000      -0.792441       -21.5634
  33   1.0000      -0.785490       -21.3743
  34   1.0000      -0.696112       -18.9422
  35   1.0000      -0.692459       -18.8428
  36   1.0000      -0.684984       -18.6394
  37   1.0000      -0.675516       -18.3817
  38   1.0000      -0.655197       -17.8288
  39   1.0000      -0.634504       -17.2657
  40   1.0000      -0.624274       -16.9874
  41   1.0000      -0.602061       -16.3829
  42   1.0000      -0.595474       -16.2037
  43   1.0000      -0.591141       -16.0858
  44   1.0000      -0.579413       -15.7666
  45   1.0000      -0.573442       -15.6041
  46   1.0000      -0.569778       -15.5044
  47   1.0000      -0.565998       -15.4016
  48   1.0000      -0.563726       -15.3398
  49   1.0000      -0.556739       -15.1496
  50   1.0000      -0.549542       -14.9538
  51   1.0000      -0.542592       -14.7647
  52   1.0000      -0.530623       -14.4390
  53   1.0000      -0.517684       -14.0869
  54   1.0000      -0.510988       -13.9047
  55   1.0000      -0.504841       -13.7374
  56   1.0000      -0.495638       -13.4870
  57   1.0000      -0.433049       -11.7839
  58   1.0000      -0.423933       -11.5358
  59   1.0000      -0.410324       -11.1655
  60   1.0000      -0.409297       -11.1375
  61   1.0000      -0.404421       -11.0049
  62   1.0000      -0.398446       -10.8423
  63   1.0000      -0.391364       -10.6496
  64   1.0000      -0.380278       -10.3479
  65   1.0000      -0.353226        -9.6118
  66   1.0000      -0.320536        -8.7222
  67   0.0000       0.009392         0.2556
  68   0.0000       0.030561         0.8316
  69   0.0000       0.033963         0.9242
  70   0.0000       0.035117         0.9556
  71   0.0000       0.052089         1.4174

                 SPIN DOWN ORBITALS
  NO   OCC          E(Eh)            E(eV)
   0   1.0000     -19.333789      -526.0991
   1   1.0000     -19.332432      -526.0622
   2   1.0000     -19.328920      -525.9666
   3   1.0000     -19.325297      -525.8681
   4   1.0000     -14.571597      -396.5133
   5   1.0000     -14.565043      -396.3350
   6   1.0000     -14.557997      -396.1432
   7   1.0000     -14.552433      -395.9918
   8   1.0000     -10.510452      -286.0039
   9   1.0000     -10.510379      -286.0020
  10   1.0000     -10.488918      -285.4180
  11   1.0000     -10.480119      -285.1785
  12   1.0000     -10.457875      -284.5732
  13   1.0000     -10.446358      -284.2599
  14   1.0000     -10.411347      -283.3072
  15   1.0000     -10.404303      -283.1155
  16   1.0000     -10.376446      -282.3575
  17   1.0000     -10.367949      -282.1262
  18   1.0000      -1.227808       -33.4104
  19   1.0000      -1.216226       -33.0952
  20   1.0000      -1.209683       -32.9171
  21   1.0000      -1.187181       -32.3049
  22   1.0000      -1.118960       -30.4484
  23   1.0000      -1.103262       -30.0213
  24   1.0000      -1.060471       -28.8569
  25   1.0000      -1.053955       -28.6796
  26   1.0000      -0.967019       -26.3139
  27   1.0000      -0.936459       -25.4823
  28   1.0000      -0.880376       -23.9563
  29   1.0000      -0.845538       -23.0083
  30   1.0000      -0.808089       -21.9892
  31   1.0000      -0.793377       -21.5889
  32   1.0000      -0.790680       -21.5155
  33   1.0000      -0.784190       -21.3389
  34   1.0000      -0.689096       -18.7513
  35   1.0000      -0.687372       -18.7043
  36   1.0000      -0.680055       -18.5052
  37   1.0000      -0.668730       -18.1971
  38   1.0000      -0.640988       -17.4422
  39   1.0000      -0.630158       -17.1475
  40   1.0000      -0.620328       -16.8800
  41   1.0000      -0.596220       -16.2240
  42   1.0000      -0.590462       -16.0673
  43   1.0000      -0.587085       -15.9754
  44   1.0000      -0.571654       -15.5555
  45   1.0000      -0.566824       -15.4241
  46   1.0000      -0.562902       -15.3173
  47   1.0000      -0.559608       -15.2277
  48   1.0000      -0.555138       -15.1061
  49   1.0000      -0.551480       -15.0065
  50   1.0000      -0.543675       -14.7941
  51   1.0000      -0.535782       -14.5794
  52   1.0000      -0.524194       -14.2640
  53   1.0000      -0.508636       -13.8407
  54   1.0000      -0.503527       -13.7017
  55   1.0000      -0.497133       -13.5277
  56   1.0000      -0.492174       -13.3927
  57   1.0000      -0.429083       -11.6759
  58   1.0000      -0.421695       -11.4749
  59   1.0000      -0.405929       -11.0459
  60   1.0000      -0.397291       -10.8108
  61   1.0000      -0.392848       -10.6899
  62   1.0000      -0.391800       -10.6614
  63   1.0000      -0.386887       -10.5277
  64   1.0000      -0.370980       -10.0949
  65   0.0000      -0.068127        -1.8538
  66   0.0000      -0.041780        -1.1369
  67   0.0000       0.008858         0.2410
  68   0.0000       0.030236         0.8228
  69   0.0000       0.033838         0.9208

----------------------------------------------------------------------------------------------------
          SPIN FLIP ABSORPTION SPECTRUM VIA TRANSITION ELECTRIC DIPOLE MOMENTS
----------------------------------------------------------------------------------------------------
     Transition      Energy     Energy  Wavelength fosc(D2)      D2        DX        DY        DZ
                      (eV)      (cm-1)    (nm)                 (au**2)    (au)      (au)      (au)
----------------------------------------------------------------------------------------------------
  1-3A  ->  2-3A    0.178204    1437.3  6957.4   0.000070618   0.01617   0.09794  -0.05984  -0.05479
  1-3A  ->  3-3A    2.312947   18655.2   536.0   0.005956039   0.10511  -0.27476   0.08978   0.14681

Dispersion correction             ... done (  0.1 sec)

MULLIKEN ATOMIC CHARGES AND SPIN DENSITIES
------------------------------------------
   0 O :   -0.699179    0.004451
   1 O :   -0.618494   -0.003315
   2 O :   -0.637752   -0.001516
   3 O :   -0.616920   -0.000244
   4 N :   -0.305193   -0.011284
   5 N :   -0.173512    0.000956
   6 N :    0.034343   -0.002815
   7 N :   -0.046486   -0.005051
   8 C :    0.346317    0.289976
   9 C :    0.274112    0.445154
  10 C :    0.457819   -0.141490
  11 C :    0.184172   -0.297292
  12 C :   -1.473025   -0.022062
  13 C :   -1.489857   -0.021983
  14 C :    0.184229   -0.109384
  15 C :    0.390917   -0.169638
  16 C :    0.331780    0.004046
  17 C :    0.428019    0.012448
  18 H :    0.532567   -0.002757
  19 H :    0.625668   -0.009570
  20 H :    0.316589    0.010057
  21 H :    0.380897    0.006417
  22 H :    0.334886   -0.001077
  23 H :    0.314393    0.007467
  24 H :    0.472435    0.015539
  25 H :    0.246469   -0.000846
  26 H :    0.113410   -0.000610
  27 H :    0.003128    0.001139
  28 H :    0.066610    0.000702
  29 H :    0.021660    0.002584
Sum of atomic charges       :    0.0000000

LOEWDIN ATOMIC CHARGES AND SPIN DENSITIES
-----------------------------------------
   0 O :    0.060904    0.002962
   1 O :    0.129765   -0.001731
   2 O :    0.086722   -0.001487
   3 O :    0.107711   -0.000348
   4 N :    0.263430   -0.000872
   5 N :    0.288346   -0.001286
   6 N :    0.318247   -0.001482
   7 N :    0.326033   -0.003179
   8 C :   -0.034836    0.021429
   9 C :    0.008750    0.002677
  10 C :   -0.110446   -0.005168
  11 C :   -0.100368   -0.005974
  12 C :    0.194717    0.002270
  13 C :    0.198797   -0.000392
  14 C :   -0.408916   -0.001877
  15 C :   -0.437827   -0.003959
  16 C :   -0.468080   -0.000754
  17 C :   -0.468778   -0.000676
  18 H :    0.072863   -0.000797
  19 H :    0.073578   -0.000925
  20 H :   -0.039122    0.001146
  21 H :   -0.021762    0.000126
  22 H :    0.038615    0.000338
  23 H :   -0.024635    0.000355
  24 H :    0.006331    0.000115
  25 H :    0.026712   -0.000083
  26 H :   -0.018093   -0.000004
  27 H :   -0.067960   -0.000100
  28 H :    0.020198   -0.000084
  29 H :   -0.020900   -0.000239

  Mayer bond orders larger than 0.100000
B(  0-O ,  8-C ) :  -0.1415 B(  0-O , 14-C ) :   1.4571 B(  1-O , 15-C ) :   1.4370
B(  2-O , 16-C ) :   1.5190 B(  3-O , 17-C ) :   1.6182 B(  4-N ,  8-C ) :   0.4056
B(  4-N , 11-C ) :   0.1005 B(  4-N , 16-C ) :   1.0623 B(  4-N , 26-H ) :   0.9589
B(  5-N ,  9-C ) :   0.1735 B(  5-N , 10-C ) :   0.1144 B(  5-N , 11-C ) :   0.1947
B(  5-N , 17-C ) :   1.1163 B(  5-N , 19-H ) :  -0.1111 B(  5-N , 27-H ) :   1.1802
B(  6-N ,  8-C ) :  -0.1425 B(  6-N , 10-C ) :   0.1311 B(  6-N , 14-C ) :   1.0692
B(  6-N , 16-C ) :   0.8947 B(  6-N , 28-H ) :   1.0978 B(  7-N , 11-C ) :   0.1095
B(  7-N , 15-C ) :   1.0101 B(  7-N , 17-C ) :   0.9595 B(  7-N , 29-H ) :   1.1310
B(  8-C ,  9-C ) :   0.1498 B(  8-C , 10-C ) :   0.2511 B(  8-C , 11-C ) :   0.3274
B(  8-C , 12-C ) :   0.3913 B(  8-C , 14-C ) :   0.7926 B(  8-C , 18-H ) :  -0.1856
B(  8-C , 21-H ) :  -0.1466 B(  9-C , 10-C ) :   0.1944 B(  9-C , 11-C ) :   0.6825
B(  9-C , 13-C ) :   0.3873 B(  9-C , 15-C ) :   0.5774 B(  9-C , 19-H ) :  -0.2032
B(  9-C , 25-H ) :  -0.1027 B( 10-C , 11-C ) :   0.3191 B( 10-C , 14-C ) :  -0.1320
B( 10-C , 18-H ) :   0.8729 B( 11-C , 12-C ) :   0.1500 B( 11-C , 13-C ) :  -0.1310
B( 11-C , 17-C ) :  -0.1994 B( 11-C , 18-H ) :  -0.1148 B( 11-C , 19-H ) :   0.7107
B( 12-C , 20-H ) :   0.8550 B( 12-C , 21-H ) :   1.0088 B( 12-C , 22-H ) :   0.9414
B( 13-C , 23-H ) :   0.9983 B( 13-C , 24-H ) :   0.7589 B( 13-C , 25-H ) :   1.0511

Dispersion correction           -0.058284242
FINAL SINGLE POINT ENERGY      -908.778829187426

DIPOLE MOMENT
-------------

Method             : TDA/CIS
Type of density    : Electron Density
Level              : Relaxed density
State              :   1
Multiplicity       :   3
Irrep              :   0
Energy             :     0.0000000000000000 Eh
Relativity type    :
Basis              : AO
                                X                 Y                 Z
Electronic contribution:     -9.857173854      -4.449222205      -0.977496539
Nuclear contribution   :     11.677131497       5.288953563       2.550630179
                        -----------------------------------------
Total Dipole Moment    :      1.819957643       0.839731359       1.573133640
                        -----------------------------------------
Magnitude (a.u.)       :      2.547968607
Magnitude (Debye)      :      6.476421510

Rotational constants in cm-1:             0.022296             0.012093             0.010985
Rotational constants in MHz :           668.413831           362.549664           329.330315

                             ****ORCA TERMINATED NORMALLY****
TOTAL RUN TIME: 0 days 0 hours 5 minutes 6 seconds 131 msec
