                         Program Version 6.0.0  -   RELEASE  -
|  1> ! Engrad def2-TZVPPD wB97M-D3BJ
|  2> %pal nprocs 8 end%pal nprocs 64 end
|  3> %tddft
|  4>  Iroot 2 Nroots 3
|  5> sf true
|  6> end
|  7> *xyz 0 3
|  8> O   1.05836808 1.02260902 0.31740592
|  9> C   0.65654612 -0.1771515 -0.28024834
| 10> C   -0.62131023 -0.74234744 0.16016333
| 11> H   1.42397979 -0.78329373 0.0997864
| 12> H   0.63531891 0.0150798 -1.37557678
| 13> H   -1.24726811 -1.32787341 -0.46921566
| 14> H   -0.88929759 -0.59082188 1.17549657
| 15> *
| 16>
| 17>                          ****END OF INPUT****

CARTESIAN COORDINATES (ANGSTROEM)
---------------------------------
  O      1.058368    1.022609    0.317406
  C      0.656546   -0.177151   -0.280248
  C     -0.621310   -0.742347    0.160163
  H      1.423980   -0.783294    0.099786
  H      0.635319    0.015080   -1.375577
  H     -1.247268   -1.327873   -0.469216
  H     -0.889298   -0.590822    1.175497

 Total Charge           Charge          ....    0
 Multiplicity           Mult            ....    3
 Number of Electrons    NEL             ....   24
 Basis Dimension        Dim             ....  182

ORBITAL ENERGIES
----------------
                 SPIN UP ORBITALS
  NO   OCC          E(Eh)            E(eV)
   0   1.0000     -19.388708      -527.5936
   1   1.0000     -10.408334      -283.2252
   2   1.0000     -10.364019      -282.0193
   3   1.0000      -1.161117       -31.5956
   4   1.0000      -0.886532       -24.1238
   5   1.0000      -0.736151       -20.0317
   6   1.0000      -0.628442       -17.1008
   7   1.0000      -0.587403       -15.9841
   8   1.0000      -0.555339       -15.1115
   9   1.0000      -0.510087       -13.8802
  10   1.0000      -0.453948       -12.3526
  11   1.0000      -0.412246       -11.2178
  12   1.0000      -0.323033        -8.7902
  13   0.0000       0.041459         1.1282
  14   0.0000       0.062695         1.7060
  15   0.0000       0.078397         2.1333
  16   0.0000       0.086898         2.3646
  17   0.0000       0.109989         2.9929

                 SPIN DOWN ORBITALS
  NO   OCC          E(Eh)            E(eV)
   0   1.0000     -19.364454      -526.9336
   1   1.0000     -10.409397      -283.2541
   2   1.0000     -10.350648      -281.6554
   3   1.0000      -1.105924       -30.0937
   4   1.0000      -0.852765       -23.2049
   5   1.0000      -0.707199       -19.2439
   6   1.0000      -0.599989       -16.3265
   7   1.0000      -0.551838       -15.0163
   8   1.0000      -0.532058       -14.4780
   9   1.0000      -0.491366       -13.3708
  10   1.0000      -0.383555       -10.4371
  11   0.0000      -0.048770        -1.3271
  12   0.0000       0.000077         0.0021
  13   0.0000       0.040878         1.1124
  14   0.0000       0.062517         1.7012
  15   0.0000       0.078825         2.1449

----------------------------------------------------------------------------------------------------
          SPIN FLIP ABSORPTION SPECTRUM VIA TRANSITION ELECTRIC DIPOLE MOMENTS
----------------------------------------------------------------------------------------------------
     Transition      Energy     Energy  Wavelength fosc(D2)      D2        DX        DY        DZ
                      (eV)      (cm-1)    (nm)                 (au**2)    (au)      (au)      (au)
----------------------------------------------------------------------------------------------------
  1-3A  ->  2-3A    0.247028    1992.4  5019.0   0.000650502   0.10748   0.24662   0.19111   0.10069
  1-3A  ->  3-3A    0.837926    6758.3  1479.7   0.013135847   0.63987  -0.50654  -0.61336  -0.08410

Dispersion correction             ... done (  0.1 sec)

MULLIKEN ATOMIC CHARGES AND SPIN DENSITIES
------------------------------------------
   0 O :   -0.343223   -0.202804
   1 C :   -0.015145   -0.003773
   2 C :   -0.529003    0.248681
   3 H :    0.215413    0.048463
   4 H :    0.222841   -0.077878
   5 H :    0.215510   -0.006252
   6 H :    0.233608   -0.006437
Sum of atomic charges       :    0.0000000

LOEWDIN ATOMIC CHARGES AND SPIN DENSITIES
-----------------------------------------
   0 O :    0.025364   -0.200710
   1 C :   -0.230763   -0.009685
   2 C :    0.312710    0.200091
   3 H :   -0.020127    0.019972
   4 H :    0.039091   -0.049924
   5 H :   -0.062579    0.022102
   6 H :   -0.063698    0.018155

  Mayer bond orders larger than 0.100000
B(  0-O ,  1-C ) :   0.8357 B(  0-O ,  2-C ) :   0.1481 B(  1-C ,  2-C ) :   0.7529
B(  1-C ,  3-H ) :   0.9980 B(  1-C ,  4-H ) :   0.9406 B(  2-C ,  5-H ) :   0.9767
B(  2-C ,  6-H ) :   0.9704

Dispersion correction           -0.005545695
FINAL SINGLE POINT ENERGY      -153.742263774771

DIPOLE MOMENT
-------------

Method             : TDA/CIS
Type of density    : Electron Density
Level              : Relaxed density
State              :   2
Multiplicity       :   3
Irrep              :   0
Energy             :     0.0000000000000000 Eh
Relativity type    :
Basis              : AO
                                X                 Y                 Z
Electronic contribution:      1.224591827       1.879977352       0.482478122
Nuclear contribution   :     -1.534498466      -2.728730658      -0.791454502
                        -----------------------------------------
Total Dipole Moment    :     -0.309906639      -0.848753305      -0.308976380
                        -----------------------------------------
Magnitude (a.u.)       :      0.954929684
Magnitude (Debye)      :      2.427238361

Rotational constants in cm-1:             1.597712             0.338547             0.299909
Rotational constants in MHz :         47898.194372         10149.389552          8991.049101

                             ****ORCA TERMINATED NORMALLY****
TOTAL RUN TIME: 0 days 0 hours 0 minutes 26 seconds 521 msec
