                         Program Version 6.0.0  -   RELEASE  -
|  1> ! Engrad def2-TZVPPD wB97M-D3BJ
|  2> %pal nprocs 8 end%pal nprocs 64 end
|  3> %tddft Nroots 2 Iroot 1
|  4> sf true
|  5> end
|  6> *xyz 0 3
|  7> O   2.42131044 1.33793064 -0.31891137
|  8> O   -0.77719022 0.76745304 -2.40090812
|  9> O   0.55854249 -2.63886751 -1.61892494
| 10> O   -2.41819966 -1.53224777 1.14831894
| 11> N   0.62605896 -2.20385265 0.6124426
| 12> N   -1.91887714 0.71374491 1.44323778
| 13> N   1.59358577 -0.73414263 -0.89596288
| 14> N   -1.61348473 -0.3224265 -0.58943578
| 15> C   1.53350518 -0.10688185 1.39676944
| 16> C   -0.94315754 2.00114214 -0.3442395
| 17> C   0.91245111 -1.34828428 1.64540373
| 18> C   -1.31119632 1.85546895 0.94765294
| 19> C   1.78861208 0.98054527 2.41022471
| 20> C   -0.26696747 3.19796613 -0.95119171
| 21> C   1.89975339 0.2671416 0.02951922
| 22> C   -1.11055079 0.83131912 -1.23268204
| 23> C   0.89358979 -1.92180645 -0.71064568
| 24> C   -2.02876087 -0.45629445 0.72425095
| 25> H   0.51953991 -1.60899807 2.62254715
| 26> H   -1.16440903 2.65687821 1.67292284
| 27> H   1.32481939 1.92514946 2.13065115
| 28> H   1.42806944 0.70334563 3.37635639
| 29> H   2.86234244 1.16346496 2.53062069
| 30> H   -0.75835136 3.60188239 -1.81966208
| 31> H   -0.15936935 4.02232729 -0.22864423
| 32> H   0.73988791 2.90112923 -1.27800472
| 33> H   0.09081997 -3.040354 0.76822729
| 34> H   -2.2254703 0.68364922 2.38125607
| 35> H   1.93759756 -0.48466804 -1.83812888
| 36> H   -1.61844108 -1.19278465 -1.09851303
| 37> *
| 38>
| 39>                          ****END OF INPUT****

CARTESIAN COORDINATES (ANGSTROEM)
---------------------------------
  O      2.421310    1.337931   -0.318911
  O     -0.777190    0.767453   -2.400908
  O      0.558542   -2.638868   -1.618925
  O     -2.418200   -1.532248    1.148319
  N      0.626059   -2.203853    0.612443
  N     -1.918877    0.713745    1.443238
  N      1.593586   -0.734143   -0.895963
  N     -1.613485   -0.322427   -0.589436
  C      1.533505   -0.106882    1.396769
  C     -0.943158    2.001142   -0.344239
  C      0.912451   -1.348284    1.645404
  C     -1.311196    1.855469    0.947653
  C      1.788612    0.980545    2.410225
  C     -0.266967    3.197966   -0.951192
  C      1.899753    0.267142    0.029519
  C     -1.110551    0.831319   -1.232682
  C      0.893590   -1.921806   -0.710646
  C     -2.028761   -0.456294    0.724251
  H      0.519540   -1.608998    2.622547
  H     -1.164409    2.656878    1.672923
  H      1.324819    1.925149    2.130651
  H      1.428069    0.703346    3.376356
  H      2.862342    1.163465    2.530621
  H     -0.758351    3.601882   -1.819662
  H     -0.159369    4.022327   -0.228644
  H      0.739888    2.901129   -1.278005
  H      0.090820   -3.040354    0.768227
  H     -2.225470    0.683649    2.381256
  H      1.937598   -0.484668   -1.838129
  H     -1.618441   -1.192785   -1.098513

 Total Charge           Charge          ....    0
 Multiplicity           Mult            ....    3
 Number of Electrons    NEL             ....  132
 Basis Dimension        Dim             ....  882

ORBITAL ENERGIES
----------------
                 SPIN UP ORBITALS
  NO   OCC          E(Eh)            E(eV)
   0   1.0000     -19.334533      -526.1194
   1   1.0000     -19.326770      -525.9082
   2   1.0000     -19.324790      -525.8543
   3   1.0000     -19.321603      -525.7676
   4   1.0000     -14.590974      -397.0406
   5   1.0000     -14.585858      -396.9014
   6   1.0000     -14.565040      -396.3349
   7   1.0000     -14.552986      -396.0069
   8   1.0000     -10.514077      -286.1026
   9   1.0000     -10.512928      -286.0713
  10   1.0000     -10.478556      -285.1360
  11   1.0000     -10.465547      -284.7820
  12   1.0000     -10.435163      -283.9552
  13   1.0000     -10.416494      -283.4472
  14   1.0000     -10.405545      -283.1493
  15   1.0000     -10.384889      -282.5872
  16   1.0000     -10.369996      -282.1819
  17   1.0000     -10.348788      -281.6048
  18   1.0000      -1.227636       -33.4057
  19   1.0000      -1.219859       -33.1941
  20   1.0000      -1.186421       -32.2842
  21   1.0000      -1.179641       -32.0997
  22   1.0000      -1.122746       -30.5515
  23   1.0000      -1.121459       -30.5165
  24   1.0000      -1.062164       -28.9030
  25   1.0000      -1.056834       -28.7579
  26   1.0000      -0.962737       -26.1974
  27   1.0000      -0.950840       -25.8737
  28   1.0000      -0.856511       -23.3068
  29   1.0000      -0.843527       -22.9535
  30   1.0000      -0.806954       -21.9583
  31   1.0000      -0.804772       -21.8990
  32   1.0000      -0.792155       -21.5556
  33   1.0000      -0.789684       -21.4884
  34   1.0000      -0.694630       -18.9018
  35   1.0000      -0.693504       -18.8712
  36   1.0000      -0.688455       -18.7338
  37   1.0000      -0.685953       -18.6657
  38   1.0000      -0.643608       -17.5135
  39   1.0000      -0.632463       -17.2102
  40   1.0000      -0.621996       -16.9254
  41   1.0000      -0.597452       -16.2575
  42   1.0000      -0.595168       -16.1953
  43   1.0000      -0.592710       -16.1285
  44   1.0000      -0.570274       -15.5180
  45   1.0000      -0.569263       -15.4904
  46   1.0000      -0.565671       -15.3927
  47   1.0000      -0.552308       -15.0291
  48   1.0000      -0.549763       -14.9598
  49   1.0000      -0.545156       -14.8345
  50   1.0000      -0.529111       -14.3979
  51   1.0000      -0.518838       -14.1183
  52   1.0000      -0.515552       -14.0289
  53   1.0000      -0.508861       -13.8468
  54   1.0000      -0.504265       -13.7218
  55   1.0000      -0.492670       -13.4062
  56   1.0000      -0.488943       -13.3048
  57   1.0000      -0.473432       -12.8827
  58   1.0000      -0.422691       -11.5020
  59   1.0000      -0.418609       -11.3909
  60   1.0000      -0.403660       -10.9841
  61   1.0000      -0.398943       -10.8558
  62   1.0000      -0.389276       -10.5927
  63   1.0000      -0.384448       -10.4614
  64   1.0000      -0.381511       -10.3814
  65   1.0000      -0.346687        -9.4338
  66   1.0000      -0.221573        -6.0293
  67   0.0000       0.012797         0.3482
  68   0.0000       0.020049         0.5456
  69   0.0000       0.032488         0.8840
  70   0.0000       0.039438         1.0732
  71   0.0000       0.042462         1.1555

                 SPIN DOWN ORBITALS
  NO   OCC          E(Eh)            E(eV)
   0   1.0000     -19.332389      -526.0610
   1   1.0000     -19.326730      -525.9071
   2   1.0000     -19.321555      -525.7662
   3   1.0000     -19.319227      -525.7029
   4   1.0000     -14.586308      -396.9136
   5   1.0000     -14.585739      -396.8981
   6   1.0000     -14.565048      -396.3351
   7   1.0000     -14.551953      -395.9788
   8   1.0000     -10.514083      -286.1027
   9   1.0000     -10.513242      -286.0799
  10   1.0000     -10.478562      -285.1362
  11   1.0000     -10.465477      -284.7801
  12   1.0000     -10.435144      -283.9547
  13   1.0000     -10.406443      -283.1737
  14   1.0000     -10.394867      -282.8587
  15   1.0000     -10.384853      -282.5862
  16   1.0000     -10.370530      -282.1965
  17   1.0000     -10.348758      -281.6040
  18   1.0000      -1.223890       -33.3038
  19   1.0000      -1.219301       -33.1789
  20   1.0000      -1.186300       -32.2809
  21   1.0000      -1.171267       -31.8718
  22   1.0000      -1.121308       -30.5124
  23   1.0000      -1.112012       -30.2594
  24   1.0000      -1.062088       -28.9009
  25   1.0000      -1.051439       -28.6111
  26   1.0000      -0.950917       -25.8758
  27   1.0000      -0.939261       -25.5586
  28   1.0000      -0.845002       -22.9937
  29   1.0000      -0.842578       -22.9277
  30   1.0000      -0.804952       -21.9038
  31   1.0000      -0.794998       -21.6330
  32   1.0000      -0.789664       -21.4879
  33   1.0000      -0.785777       -21.3821
  34   1.0000      -0.694444       -18.8968
  35   1.0000      -0.686153       -18.6712
  36   1.0000      -0.682437       -18.5701
  37   1.0000      -0.679528       -18.4909
  38   1.0000      -0.639352       -17.3977
  39   1.0000      -0.626351       -17.0439
  40   1.0000      -0.615878       -16.7589
  41   1.0000      -0.594160       -16.1679
  42   1.0000      -0.587504       -15.9868
  43   1.0000      -0.585802       -15.9405
  44   1.0000      -0.565913       -15.3993
  45   1.0000      -0.563374       -15.3302
  46   1.0000      -0.552642       -15.0382
  47   1.0000      -0.544972       -14.8294
  48   1.0000      -0.544831       -14.8256
  49   1.0000      -0.542066       -14.7504
  50   1.0000      -0.520118       -14.1531
  51   1.0000      -0.517892       -14.0926
  52   1.0000      -0.507632       -13.8134
  53   1.0000      -0.501665       -13.6510
  54   1.0000      -0.496604       -13.5133
  55   1.0000      -0.489057       -13.3079
  56   1.0000      -0.474750       -12.9186
  57   1.0000      -0.443628       -12.0717
  58   1.0000      -0.418823       -11.3967
  59   1.0000      -0.417729       -11.3670
  60   1.0000      -0.398642       -10.8476
  61   1.0000      -0.382864       -10.4183
  62   1.0000      -0.381551       -10.3825
  63   1.0000      -0.379304       -10.3214
  64   1.0000      -0.345803        -9.4098
  65   0.0000      -0.100237        -2.7276
  66   0.0000       0.011937         0.3248
  67   0.0000       0.020688         0.5629
  68   0.0000       0.030137         0.8201
  69   0.0000       0.037990         1.0338

----------------------------------------------------------------------------------------------------
          SPIN FLIP ABSORPTION SPECTRUM VIA TRANSITION ELECTRIC DIPOLE MOMENTS
----------------------------------------------------------------------------------------------------
     Transition      Energy     Energy  Wavelength fosc(D2)      D2        DX        DY        DZ
                      (eV)      (cm-1)    (nm)                 (au**2)    (au)      (au)      (au)
----------------------------------------------------------------------------------------------------
  1-3A  ->  2-3A    3.772003   30423.3   328.7   0.001069935   0.01158  -0.02988  -0.06326   0.08175

Dispersion correction             ... done (  0.1 sec)

MULLIKEN ATOMIC CHARGES AND SPIN DENSITIES
------------------------------------------
   0 O :   -0.721319    0.032731
   1 O :   -0.648470   -0.000020
   2 O :   -0.625158    0.006929
   3 O :   -0.667944    0.000721
   4 N :    0.054990    0.051181
   5 N :    0.056020   -0.000864
   6 N :    0.060672    0.001361
   7 N :    0.042443   -0.001716
   8 C :    1.093515    0.641839
   9 C :    0.758836   -0.008138
  10 C :   -0.210459   -0.412141
  11 C :   -0.223176   -0.002397
  12 C :   -1.483003   -0.028173
  13 C :   -1.314520    0.000413
  14 C :    0.199905   -0.379355
  15 C :    0.542396    0.028164
  16 C :    0.324832    0.024264
  17 C :    0.407282   -0.014118
  18 H :    0.180421    0.029298
  19 H :    0.156099   -0.003576
  20 H :    0.277797    0.016463
  21 H :    0.354922    0.008499
  22 H :    0.356955    0.005176
  23 H :    0.325546   -0.000296
  24 H :    0.319060    0.000586
  25 H :    0.226890   -0.001893
  26 H :    0.040707    0.002475
  27 H :   -0.001976   -0.001684
  28 H :    0.068869    0.004528
  29 H :    0.047868   -0.000256
Sum of atomic charges       :    0.0000000

LOEWDIN ATOMIC CHARGES AND SPIN DENSITIES
-----------------------------------------
   0 O :    0.048194    0.027514
   1 O :    0.094541   -0.000055
   2 O :    0.097848    0.005496
   3 O :    0.061582    0.000156
   4 N :    0.277661    0.021883
   5 N :    0.289961   -0.001434
   6 N :    0.322542   -0.000721
   7 N :    0.335167   -0.000038
   8 C :   -0.108606   -0.029576
   9 C :   -0.121943   -0.000160
  10 C :    0.091733   -0.029773
  11 C :    0.050512   -0.000163
  12 C :    0.163441   -0.003511
  13 C :    0.177127    0.000176
  14 C :   -0.405981    0.011001
  15 C :   -0.375895    0.000104
  16 C :   -0.486305   -0.000255
  17 C :   -0.475512   -0.000495
  18 H :    0.036492   -0.002396
  19 H :    0.040432    0.000054
  20 H :   -0.014533   -0.000177
  21 H :   -0.028162    0.000222
  22 H :    0.006959   -0.000204
  23 H :   -0.012463    0.000014
  24 H :    0.003649    0.000016
  25 H :   -0.010231    0.000108
  26 H :   -0.012822    0.002138
  27 H :   -0.042604   -0.000047
  28 H :    0.020663    0.000129
  29 H :   -0.023447   -0.000003

  Mayer bond orders larger than 0.100000
B(  0-O , 14-C ) :   1.4031 B(  1-O , 15-C ) :   1.4792 B(  2-O , 16-C ) :   1.5868
B(  3-O , 17-C ) :   1.5328 B(  4-N , 10-C ) :   0.9440 B(  4-N , 16-C ) :   1.0072
B(  4-N , 26-H ) :   1.1237 B(  5-N , 11-C ) :   0.9417 B(  5-N , 17-C ) :   1.0469
B(  5-N , 27-H ) :   1.1435 B(  6-N , 14-C ) :   0.9550 B(  6-N , 16-C ) :   0.9446
B(  6-N , 28-H ) :   1.0915 B(  7-N , 15-C ) :   0.9438 B(  7-N , 16-C ) :   0.1164
B(  7-N , 17-C ) :   0.9573 B(  7-N , 29-H ) :   1.1008 B(  8-C , 10-C ) :   1.0855
B(  8-C , 12-C ) :   0.1810 B(  8-C , 14-C ) :   0.7123 B(  8-C , 21-H ) :  -0.1037
B(  8-C , 22-H ) :  -0.1027 B(  9-C , 11-C ) :   1.2752 B(  9-C , 13-C ) :   0.3755
B(  9-C , 15-C ) :   0.8117 B( 10-C , 12-C ) :  -0.1020 B( 10-C , 14-C ) :   0.1639
B( 10-C , 16-C ) :  -0.1129 B( 10-C , 18-H ) :   1.0931 B( 11-C , 19-H ) :   1.0935
B( 12-C , 20-H ) :   0.9700 B( 12-C , 21-H ) :   1.0022 B( 12-C , 22-H ) :   0.9643
B( 13-C , 23-H ) :   0.9699 B( 13-C , 24-H ) :   1.0078 B( 13-C , 25-H ) :   0.9816

Dispersion correction           -0.057984442
FINAL SINGLE POINT ENERGY      -908.912745071900

DIPOLE MOMENT
-------------

Method             : TDA/CIS
Type of density    : Electron Density
Level              : Relaxed density
State              :   1
Multiplicity       :   3
Irrep              :   0
Energy             :     0.0000000000000000 Eh
Relativity type    :
Basis              : AO
                                X                 Y                 Z
Electronic contribution:     -3.227012624      -9.823262034      -5.474223001
Nuclear contribution   :      2.891019155      10.299874500       8.009407121
                        -----------------------------------------
Total Dipole Moment    :     -0.335993469       0.476612466       2.535184120
                        -----------------------------------------
Magnitude (a.u.)       :      2.601386088
Magnitude (Debye)      :      6.612197955

Rotational constants in cm-1:             0.016943             0.015410             0.013797
Rotational constants in MHz :           507.945158           461.973684           413.626522

                             ****ORCA TERMINATED NORMALLY****
TOTAL RUN TIME: 0 days 0 hours 4 minutes 59 seconds 188 msec
