                         Program Version 6.0.0  -   RELEASE  -
|  1> ! Engrad def2-TZVPPD wB97M-D3BJ
|  2> %pal nprocs 8 end%pal nprocs 64 end
|  3> %tddft
|  4>  Iroot 1 Nroots 3
|  5> sf true
|  6> end
|  7> *xyz 0 3
|  8> O   1.194806 -0.8063441 0.26223856
|  9> C   0.57358647 0.40941304 0.35667959
| 10> C   -0.66197708 0.6370579 -0.45126784
| 11> H   1.34350751 1.10326262 0.2194213
| 12> H   0.35275116 0.5151072 1.44870006
| 13> H   -1.69833385 0.63052905 -0.00193421
| 14> H   -0.47810306 0.92202511 -1.55286538
| 15> *
| 16>
| 17>                          ****END OF INPUT****

CARTESIAN COORDINATES (ANGSTROEM)
---------------------------------
  O      1.194806   -0.806344    0.262239
  C      0.573586    0.409413    0.356680
  C     -0.661977    0.637058   -0.451268
  H      1.343508    1.103263    0.219421
  H      0.352751    0.515107    1.448700
  H     -1.698334    0.630529   -0.001934
  H     -0.478103    0.922025   -1.552865

 Total Charge           Charge          ....    0
 Multiplicity           Mult            ....    3
 Number of Electrons    NEL             ....   24
 Basis Dimension        Dim             ....  182

ORBITAL ENERGIES
----------------
                 SPIN UP ORBITALS
  NO   OCC          E(Eh)            E(eV)
   0   1.0000     -19.383674      -527.4566
   1   1.0000     -10.408660      -283.2340
   2   1.0000     -10.382700      -282.5276
   3   1.0000      -1.166624       -31.7454
   4   1.0000      -0.872810       -23.7504
   5   1.0000      -0.733164       -19.9504
   6   1.0000      -0.620472       -16.8839
   7   1.0000      -0.577338       -15.7102
   8   1.0000      -0.549725       -14.9588
   9   1.0000      -0.519158       -14.1270
  10   1.0000      -0.426469       -11.6048
  11   1.0000      -0.409272       -11.1369
  12   1.0000      -0.335696        -9.1347
  13   0.0000       0.039819         1.0835
  14   0.0000       0.060349         1.6422
  15   0.0000       0.075569         2.0563
  16   0.0000       0.089581         2.4376
  17   0.0000       0.113941         3.1005

                 SPIN DOWN ORBITALS
  NO   OCC          E(Eh)            E(eV)
   0   1.0000     -19.359437      -526.7971
   1   1.0000     -10.409910      -283.2681
   2   1.0000     -10.369463      -282.1674
   3   1.0000      -1.112832       -30.2817
   4   1.0000      -0.839789       -22.8518
   5   1.0000      -0.704960       -19.1829
   6   1.0000      -0.584375       -15.9017
   7   1.0000      -0.554794       -15.0967
   8   1.0000      -0.522739       -14.2244
   9   1.0000      -0.482204       -13.1214
  10   1.0000      -0.379857       -10.3364
  11   0.0000      -0.048108        -1.3091
  12   0.0000      -0.008717        -0.2372
  13   0.0000       0.039397         1.0720
  14   0.0000       0.060827         1.6552
  15   0.0000       0.075853         2.0641

----------------------------------------------------------------------------------------------------
          SPIN FLIP ABSORPTION SPECTRUM VIA TRANSITION ELECTRIC DIPOLE MOMENTS
----------------------------------------------------------------------------------------------------
     Transition      Energy     Energy  Wavelength fosc(D2)      D2        DX        DY        DZ
                      (eV)      (cm-1)    (nm)                 (au**2)    (au)      (au)      (au)
----------------------------------------------------------------------------------------------------
  1-3A  ->  2-3A    0.144984    1169.4  8551.5   0.000037550   0.01057   0.09349  -0.02289   0.03615
  1-3A  ->  3-3A    0.788309    6358.1  1572.8   0.000149017   0.00772  -0.07571   0.04452   0.00137

Dispersion correction             ... done (  0.2 sec)

MULLIKEN ATOMIC CHARGES AND SPIN DENSITIES
------------------------------------------
   0 O :   -0.348684    0.760177
   1 C :   -0.143439    0.051167
   2 C :   -0.180564   -0.781970
   3 H :    0.216891    0.012830
   4 H :    0.191378    0.049343
   5 H :    0.142007   -0.036678
   6 H :    0.122411   -0.054869
Sum of atomic charges       :   -0.0000000

LOEWDIN ATOMIC CHARGES AND SPIN DENSITIES
-----------------------------------------
   0 O :    0.046557    0.719892
   1 C :   -0.285079   -0.002380
   2 C :    0.277081   -0.632371
   3 H :   -0.019179    0.010904
   4 H :    0.049788    0.043970
   5 H :   -0.043903   -0.074255
   6 H :   -0.025264   -0.065761

  Mayer bond orders larger than 0.100000
B(  0-O ,  1-C ) :   0.9171 B(  0-O ,  2-C ) :   0.1100 B(  1-C ,  2-C ) :   0.8682
B(  1-C ,  3-H ) :   0.9507 B(  1-C ,  4-H ) :   0.9306 B(  2-C ,  5-H ) :   1.0164
B(  2-C ,  6-H ) :   1.0206

Dispersion correction           -0.005428056
FINAL SINGLE POINT ENERGY      -153.744231021602

DIPOLE MOMENT
-------------

Method             : TDA/CIS
Type of density    : Electron Density
Level              : Relaxed density
State              :   1
Multiplicity       :   3
Irrep              :   0
Energy             :     0.0000000000000000 Eh
Relativity type    :
Basis              : AO
                                X                 Y                 Z
Electronic contribution:      1.597922967      -1.966510764       0.291946171
Nuclear contribution   :     -1.935442698       2.717961663      -0.161225221
                        -----------------------------------------
Total Dipole Moment    :     -0.337519731       0.751450899       0.130720949
                        -----------------------------------------
Magnitude (a.u.)       :      0.834077927
Magnitude (Debye)      :      2.120057608

Rotational constants in cm-1:             1.524518             0.326144             0.300457
Rotational constants in MHz :         45703.892346          9777.560463          9007.472361

                             ****ORCA TERMINATED NORMALLY****
TOTAL RUN TIME: 0 days 0 hours 0 minutes 27 seconds 309 msec
