                         Program Version 6.0.0  -   RELEASE  -
|  1> ! Engrad def2-TZVPPD wB97M-D3BJ
|  2> %pal nprocs 8 end%pal nprocs 64 end
|  3> %tddft Nroots 2 Iroot 1
|  4> sf true
|  5> end
|  6> *xyz 0 3
|  7> O   4.16051159 -0.24624922 1.11798781
|  8> O   -2.17591605 1.90850343 -2.09217361
|  9> O   1.33413351 -2.869638 -1.19288142
| 10> O   -3.61102444 -1.57755517 0.38898371
| 11> N   0.45356654 -0.99059007 -0.22949748
| 12> N   -1.93823676 -0.30919983 1.24636941
| 13> N   2.60471191 -1.70094068 0.2932614
| 14> N   -2.66378429 0.02017515 -0.9286862
| 15> C   1.88965658 0.43796604 1.05894511
| 16> C   -1.11722843 1.60683309 -0.00650763
| 17> C   0.50925128 -0.20957974 0.99749036
| 18> C   -0.84680276 0.63346791 1.10886279
| 19> C   2.13710738 1.83896638 1.32388331
| 20> C   -0.56667705 2.96518063 0.02846599
| 21> C   2.99366547 -0.49055381 0.8586442
| 22> C   -1.99376924 1.2359087 -1.09184055
| 23> C   1.4286394 -1.92706347 -0.43994197
| 24> C   -2.80233788 -0.6901192 0.2596114
| 25> H   0.48495549 -0.91631841 1.8416105
| 26> H   -0.76021278 1.2070605 2.0369937
| 27> H   3.16958073 2.00882221 1.6261603
| 28> H   1.95379538 2.44888847 0.43317418
| 29> H   1.43892555 2.24238481 2.05661842
| 30> H   -0.53607231 3.36338899 1.03778734
| 31> H   0.47223633 3.00274445 -0.31036397
| 32> H   -1.12348394 3.62616701 -0.62811192
| 33> H   -0.44071832 -1.26400422 -0.58782564
| 34> H   -2.01330408 -0.8565238 2.0783899
| 35> H   3.35120122 -2.33833283 0.08607854
| 36> H   -3.32739741 -0.21651754 -1.6448457
| 37> *
| 38>
| 39>                          ****END OF INPUT****

CARTESIAN COORDINATES (ANGSTROEM)
---------------------------------
  O      4.160512   -0.246249    1.117988
  O     -2.175916    1.908503   -2.092174
  O      1.334134   -2.869638   -1.192881
  O     -3.611024   -1.577555    0.388984
  N      0.453567   -0.990590   -0.229497
  N     -1.938237   -0.309200    1.246369
  N      2.604712   -1.700941    0.293261
  N     -2.663784    0.020175   -0.928686
  C      1.889657    0.437966    1.058945
  C     -1.117228    1.606833   -0.006508
  C      0.509251   -0.209580    0.997490
  C     -0.846803    0.633468    1.108863
  C      2.137107    1.838966    1.323883
  C     -0.566677    2.965181    0.028466
  C      2.993665   -0.490554    0.858644
  C     -1.993769    1.235909   -1.091841
  C      1.428639   -1.927063   -0.439942
  C     -2.802338   -0.690119    0.259611
  H      0.484955   -0.916318    1.841610
  H     -0.760213    1.207061    2.036994
  H      3.169581    2.008822    1.626160
  H      1.953795    2.448888    0.433174
  H      1.438926    2.242385    2.056618
  H     -0.536072    3.363389    1.037787
  H      0.472236    3.002744   -0.310364
  H     -1.123484    3.626167   -0.628112
  H     -0.440718   -1.264004   -0.587826
  H     -2.013304   -0.856524    2.078390
  H      3.351201   -2.338333    0.086079
  H     -3.327397   -0.216518   -1.644846

 Total Charge           Charge          ....    0
 Multiplicity           Mult            ....    3
 Number of Electrons    NEL             ....  132
 Basis Dimension        Dim             ....  882

ORBITAL ENERGIES
----------------
                 SPIN UP ORBITALS
  NO   OCC          E(Eh)            E(eV)
   0   1.0000     -19.343114      -526.3529
   1   1.0000     -19.337932      -526.2119
   2   1.0000     -19.326854      -525.9104
   3   1.0000     -19.320895      -525.7483
   4   1.0000     -14.570468      -396.4826
   5   1.0000     -14.570073      -396.4718
   6   1.0000     -14.562546      -396.2670
   7   1.0000     -14.558515      -396.1573
   8   1.0000     -10.513572      -286.0888
   9   1.0000     -10.504505      -285.8421
  10   1.0000     -10.489454      -285.4326
  11   1.0000     -10.483313      -285.2655
  12   1.0000     -10.460964      -284.6573
  13   1.0000     -10.450618      -284.3758
  14   1.0000     -10.429224      -283.7936
  15   1.0000     -10.420418      -283.5540
  16   1.0000     -10.378258      -282.4068
  17   1.0000     -10.377178      -282.3774
  18   1.0000      -1.228565       -33.4310
  19   1.0000      -1.219410       -33.1818
  20   1.0000      -1.205298       -32.7978
  21   1.0000      -1.197460       -32.5845
  22   1.0000      -1.125760       -30.6335
  23   1.0000      -1.104613       -30.0581
  24   1.0000      -1.072377       -29.1809
  25   1.0000      -1.058654       -28.8074
  26   1.0000      -0.986231       -26.8367
  27   1.0000      -0.965449       -26.2712
  28   1.0000      -0.899243       -24.4696
  29   1.0000      -0.850183       -23.1347
  30   1.0000      -0.839742       -22.8506
  31   1.0000      -0.798804       -21.7366
  32   1.0000      -0.793673       -21.5969
  33   1.0000      -0.784673       -21.3520
  34   1.0000      -0.707553       -19.2535
  35   1.0000      -0.701875       -19.0990
  36   1.0000      -0.697716       -18.9858
  37   1.0000      -0.679436       -18.4884
  38   1.0000      -0.650807       -17.7093
  39   1.0000      -0.640592       -17.4314
  40   1.0000      -0.630866       -17.1667
  41   1.0000      -0.610620       -16.6158
  42   1.0000      -0.605656       -16.4807
  43   1.0000      -0.588997       -16.0274
  44   1.0000      -0.585404       -15.9297
  45   1.0000      -0.577534       -15.7155
  46   1.0000      -0.573083       -15.5944
  47   1.0000      -0.569929       -15.5086
  48   1.0000      -0.567709       -15.4482
  49   1.0000      -0.561530       -15.2800
  50   1.0000      -0.555698       -15.1213
  51   1.0000      -0.545780       -14.8514
  52   1.0000      -0.543757       -14.7964
  53   1.0000      -0.526213       -14.3190
  54   1.0000      -0.516685       -14.0597
  55   1.0000      -0.516301       -14.0493
  56   1.0000      -0.498130       -13.5548
  57   1.0000      -0.429247       -11.6804
  58   1.0000      -0.427828       -11.6418
  59   1.0000      -0.414085       -11.2678
  60   1.0000      -0.408486       -11.1155
  61   1.0000      -0.402949       -10.9648
  62   1.0000      -0.399916       -10.8823
  63   1.0000      -0.391497       -10.6532
  64   1.0000      -0.385347       -10.4858
  65   1.0000      -0.350312        -9.5325
  66   1.0000      -0.340147        -9.2559
  67   0.0000       0.006571         0.1788
  68   0.0000       0.027888         0.7589
  69   0.0000       0.032240         0.8773
  70   0.0000       0.032905         0.8954
  71   0.0000       0.053961         1.4684

                 SPIN DOWN ORBITALS
  NO   OCC          E(Eh)            E(eV)
   0   1.0000     -19.338581      -526.2295
   1   1.0000     -19.333524      -526.0919
   2   1.0000     -19.326751      -525.9076
   3   1.0000     -19.320744      -525.7442
   4   1.0000     -14.570324      -396.4787
   5   1.0000     -14.569574      -396.4583
   6   1.0000     -14.562227      -396.2584
   7   1.0000     -14.557858      -396.1394
   8   1.0000     -10.513605      -286.0897
   9   1.0000     -10.504533      -285.8429
  10   1.0000     -10.490521      -285.4616
  11   1.0000     -10.484305      -285.2924
  12   1.0000     -10.461719      -284.6779
  13   1.0000     -10.450137      -284.3627
  14   1.0000     -10.417931      -283.4863
  15   1.0000     -10.408899      -283.2405
  16   1.0000     -10.378821      -282.4221
  17   1.0000     -10.377738      -282.3926
  18   1.0000      -1.226993       -33.3882
  19   1.0000      -1.217469       -33.1290
  20   1.0000      -1.199984       -32.6532
  21   1.0000      -1.192505       -32.4497
  22   1.0000      -1.123575       -30.5740
  23   1.0000      -1.102266       -29.9942
  24   1.0000      -1.070712       -29.1356
  25   1.0000      -1.057106       -28.7653
  26   1.0000      -0.972812       -26.4716
  27   1.0000      -0.947749       -25.7896
  28   1.0000      -0.895328       -24.3631
  29   1.0000      -0.844848       -22.9895
  30   1.0000      -0.830013       -22.5858
  31   1.0000      -0.795793       -21.6546
  32   1.0000      -0.790359       -21.5068
  33   1.0000      -0.783232       -21.3128
  34   1.0000      -0.702695       -19.1213
  35   1.0000      -0.695298       -18.9200
  36   1.0000      -0.692091       -18.8328
  37   1.0000      -0.671807       -18.2808
  38   1.0000      -0.643989       -17.5238
  39   1.0000      -0.630722       -17.1628
  40   1.0000      -0.627035       -17.0625
  41   1.0000      -0.604467       -16.4484
  42   1.0000      -0.600197       -16.3322
  43   1.0000      -0.583624       -15.8812
  44   1.0000      -0.578381       -15.7385
  45   1.0000      -0.570041       -15.5116
  46   1.0000      -0.567651       -15.4466
  47   1.0000      -0.563745       -15.3403
  48   1.0000      -0.560978       -15.2650
  49   1.0000      -0.553725       -15.0676
  50   1.0000      -0.546317       -14.8660
  51   1.0000      -0.539305       -14.6752
  52   1.0000      -0.533156       -14.5079
  53   1.0000      -0.516978       -14.0677
  54   1.0000      -0.510409       -13.8889
  55   1.0000      -0.506955       -13.7950
  56   1.0000      -0.493227       -13.4214
  57   1.0000      -0.425707       -11.5841
  58   1.0000      -0.423274       -11.5179
  59   1.0000      -0.401813       -10.9339
  60   1.0000      -0.400101       -10.8873
  61   1.0000      -0.396802       -10.7975
  62   1.0000      -0.394993       -10.7483
  63   1.0000      -0.386283       -10.5113
  64   1.0000      -0.382418       -10.4061
  65   0.0000      -0.068525        -1.8647
  66   0.0000      -0.053790        -1.4637
  67   0.0000       0.006057         0.1648
  68   0.0000       0.027605         0.7512
  69   0.0000       0.032187         0.8758

----------------------------------------------------------------------------------------------------
          SPIN FLIP ABSORPTION SPECTRUM VIA TRANSITION ELECTRIC DIPOLE MOMENTS
----------------------------------------------------------------------------------------------------
     Transition      Energy     Energy  Wavelength fosc(D2)      D2        DX        DY        DZ
                      (eV)      (cm-1)    (nm)                 (au**2)    (au)      (au)      (au)
----------------------------------------------------------------------------------------------------
  1-3A  ->  2-3A    0.027667     223.2  44812.7   0.000000291   0.00043   0.01770  -0.00703   0.00821

Dispersion correction             ... done (  0.0 sec)

MULLIKEN ATOMIC CHARGES AND SPIN DENSITIES
------------------------------------------
   0 O :   -0.633134    0.153571
   1 O :   -0.672154   -0.162839
   2 O :   -0.632917    0.002397
   3 O :   -0.640859   -0.004426
   4 N :   -0.198160    0.026522
   5 N :   -0.199647   -0.024264
   6 N :   -0.034353    0.017392
   7 N :   -0.004642   -0.025163
   8 C :    0.129000    0.442354
   9 C :    1.436831    0.275839
  10 C :    0.591084   -0.001928
  11 C :   -0.223827   -0.386233
  12 C :   -1.373551    0.018126
  13 C :   -1.485325   -0.046403
  14 C :    0.454152    0.103634
  15 C :   -0.085754   -0.484723
  16 C :    0.277400   -0.008488
  17 C :    0.436525    0.018307
  18 H :    0.353323    0.055149
  19 H :    0.511071   -0.007407
  20 H :    0.318281    0.014096
  21 H :    0.189050    0.043966
  22 H :    0.273634    0.002955
  23 H :    0.357458    0.016096
  24 H :    0.243256   -0.014740
  25 H :    0.327421   -0.025861
  26 H :    0.132436   -0.003906
  27 H :    0.035445    0.001779
  28 H :    0.078334   -0.001639
  29 H :    0.039621    0.005836
Sum of atomic charges       :    0.0000000

LOEWDIN ATOMIC CHARGES AND SPIN DENSITIES
-----------------------------------------
   0 O :    0.093912    0.138093
   1 O :    0.085964   -0.144772
   2 O :    0.095985    0.004033
   3 O :    0.095148   -0.004537
   4 N :    0.284117    0.014619
   5 N :    0.275585   -0.005040
   6 N :    0.322470    0.010631
   7 N :    0.320141   -0.021923
   8 C :   -0.003593    0.497155
   9 C :    0.020037   -0.470915
  10 C :   -0.078492    0.025867
  11 C :   -0.093798   -0.058631
  12 C :    0.181132    0.087059
  13 C :    0.186882   -0.076835
  14 C :   -0.397160    0.077722
  15 C :   -0.412121   -0.089302
  16 C :   -0.466754    0.001199
  17 C :   -0.497087   -0.001455
  18 H :    0.055539    0.016771
  19 H :    0.050890   -0.008095
  20 H :    0.009011    0.002228
  21 H :   -0.013778    0.029865
  22 H :    0.000685    0.013496
  23 H :    0.007165   -0.009992
  24 H :   -0.011417   -0.025005
  25 H :    0.007825   -0.003166
  26 H :   -0.051269    0.001751
  27 H :   -0.031755   -0.000021
  28 H :   -0.020649    0.001013
  29 H :   -0.014614   -0.001813

  Mayer bond orders larger than 0.100000
B(  0-O ,  8-C ) :   0.1088 B(  0-O , 14-C ) :   1.3649 B(  1-O , 15-C ) :   1.3200
B(  2-O , 16-C ) :   1.6021 B(  3-O , 17-C ) :   1.6043 B(  4-N ,  8-C ) :   0.3354
B(  4-N , 10-C ) :   0.1029 B(  4-N , 11-C ) :   0.1695 B(  4-N , 16-C ) :   1.1926
B(  4-N , 26-H ) :   0.9916 B(  5-N , 10-C ) :   0.1927 B(  5-N , 11-C ) :   0.2859
B(  5-N , 17-C ) :   1.0785 B(  5-N , 27-H ) :   1.1376 B(  6-N ,  8-C ) :  -0.1297
B(  6-N , 14-C ) :   1.0214 B(  6-N , 16-C ) :   0.9446 B(  6-N , 28-H ) :   1.0559
B(  7-N , 15-C ) :   1.0008 B(  7-N , 17-C ) :   0.9970 B(  7-N , 29-H ) :   1.1038
B(  8-C , 10-C ) :  -0.5116 B(  8-C , 11-C ) :   0.1956 B(  8-C , 12-C ) :   0.4073
B(  8-C , 14-C ) :   0.8048 B(  8-C , 22-H ) :  -0.1104 B(  9-C , 10-C ) :   0.1350
B(  9-C , 11-C ) :   0.2813 B(  9-C , 13-C ) :   0.1970 B(  9-C , 15-C ) :   0.2507
B(  9-C , 19-H ) :  -0.1221 B(  9-C , 23-H ) :  -0.1374 B( 10-C , 11-C ) :   0.6811
B( 10-C , 16-C ) :  -0.1396 B( 10-C , 18-H ) :   0.8700 B( 11-C , 13-C ) :  -0.2156
B( 11-C , 15-C ) :   0.2597 B( 11-C , 17-C ) :  -0.1419 B( 11-C , 19-H ) :   0.7997
B( 12-C , 13-C ) :   0.1030 B( 12-C , 14-C ) :  -0.1744 B( 12-C , 20-H ) :   1.0196
B( 12-C , 21-H ) :   0.9030 B( 12-C , 22-H ) :   1.0010 B( 13-C , 23-H ) :   1.0043
B( 13-C , 24-H ) :   0.8604 B( 13-C , 25-H ) :   0.9450

Dispersion correction           -0.056759965
FINAL SINGLE POINT ENERGY      -908.795152413315

DIPOLE MOMENT
-------------

Method             : TDA/CIS
Type of density    : Electron Density
Level              : Relaxed density
State              :   1
Multiplicity       :   3
Irrep              :   0
Energy             :     0.0000000000000000 Eh
Relativity type    :
Basis              : AO
                                X                 Y                 Z
Electronic contribution:     -2.633708374     -10.238493598      -4.103389852
Nuclear contribution   :      2.672042657      11.895076733       5.967717097
                        -----------------------------------------
Total Dipole Moment    :      0.038334283       1.656583135       1.864327245
                        -----------------------------------------
Magnitude (a.u.)       :      2.494284121
Magnitude (Debye)      :      6.339966390

Rotational constants in cm-1:             0.021473             0.010715             0.008709
Rotational constants in MHz :           643.734601           321.223629           261.099412

                             ****ORCA TERMINATED NORMALLY****
TOTAL RUN TIME: 0 days 0 hours 4 minutes 22 seconds 134 msec
