                         Program Version 6.0.0  -   RELEASE  -
|  1> ! Engrad wB97M-D3BJ def2-TZVPPD
|  2> %pal nprocs 8 end%pal nprocs 16 end
|  3> %tddft nroots 2 Iroot 2
|  4>  sf true
|  5> end
|  6> *xyz 0 3
|  7> O   0.45409864231302 0.95462743041267 -0.00031103675034
|  8> C   0.74251161933393 -0.35747034371983 -2.611429104e-05
|  9> C   -0.66256891714732 -0.56318255840828 0.00010399081105
| 10> H   1.27056374675313 -0.71783035645936 0.89018233423023
| 11> H   1.27027334125713 -0.71828810063277 -0.89022928410169
| 12> H   -1.21196898508218 -0.55368870315928 -0.92732458850199
| 13> H   -1.21184127976871 -0.55340756630985 0.92760469860378
| 14> *
| 15>
| 16>                          ****END OF INPUT****

CARTESIAN COORDINATES (ANGSTROEM)
---------------------------------
  O      0.454099    0.954627   -0.000311
  C      0.742512   -0.357470   -0.000026
  C     -0.662569   -0.563183    0.000104
  H      1.270564   -0.717830    0.890182
  H      1.270273   -0.718288   -0.890229
  H     -1.211969   -0.553689   -0.927325
  H     -1.211841   -0.553408    0.927605

 Total Charge           Charge          ....    0
 Multiplicity           Mult            ....    3
 Number of Electrons    NEL             ....   24
 Basis Dimension        Dim             ....  182

ORBITAL ENERGIES
----------------
                 SPIN UP ORBITALS
  NO   OCC          E(Eh)            E(eV)
   0   1.0000     -19.413822      -528.2770
   1   1.0000     -10.407484      -283.2020
   2   1.0000     -10.336362      -281.2667
   3   1.0000      -1.221975       -33.2516
   4   1.0000      -0.864239       -23.5171
   5   1.0000      -0.743206       -20.2237
   6   1.0000      -0.648851       -17.6561
   7   1.0000      -0.612142       -16.6572
   8   1.0000      -0.550113       -14.9693
   9   1.0000      -0.503980       -13.7140
  10   1.0000      -0.457450       -12.4478
  11   1.0000      -0.442986       -12.0543
  12   1.0000      -0.256994        -6.9932
  13   0.0000       0.040652         1.1062
  14   0.0000       0.063716         1.7338
  15   0.0000       0.072545         1.9740
  16   0.0000       0.085700         2.3320
  17   0.0000       0.116103         3.1593

                 SPIN DOWN ORBITALS
  NO   OCC          E(Eh)            E(eV)
   0   1.0000     -19.384529      -527.4798
   1   1.0000     -10.408586      -283.2320
   2   1.0000     -10.323885      -280.9272
   3   1.0000      -1.160285       -31.5730
   4   1.0000      -0.829850       -22.5814
   5   1.0000      -0.722422       -19.6581
   6   1.0000      -0.604465       -16.4483
   7   1.0000      -0.575385       -15.6570
   8   1.0000      -0.525069       -14.2878
   9   1.0000      -0.472221       -12.8498
  10   1.0000      -0.393998       -10.7212
  11   0.0000      -0.079022        -2.1503
  12   0.0000       0.037998         1.0340
  13   0.0000       0.040122         1.0918
  14   0.0000       0.063810         1.7364
  15   0.0000       0.070848         1.9279

----------------------------------------------------------------------------------------------------
          SPIN FLIP ABSORPTION SPECTRUM VIA TRANSITION ELECTRIC DIPOLE MOMENTS
----------------------------------------------------------------------------------------------------
     Transition      Energy     Energy  Wavelength fosc(D2)      D2        DX        DY        DZ
                      (eV)      (cm-1)    (nm)                 (au**2)    (au)      (au)      (au)
----------------------------------------------------------------------------------------------------
  1-3A  ->  2-3A    4.211925   33971.5   294.4   0.209054589   2.02591   0.93482   1.07332  -0.00017

Dispersion correction             ... done (  0.0 sec)

MULLIKEN ATOMIC CHARGES AND SPIN DENSITIES
------------------------------------------
   0 O :   -0.444472   -0.210934
   1 C :   -0.025707   -0.157242
   2 C :   -0.460230    0.299288
   3 H :    0.223378    0.015886
   4 H :    0.223408    0.016293
   5 H :    0.241719    0.018358
   6 H :    0.241904    0.018351
Sum of atomic charges       :   -0.0000000

LOEWDIN ATOMIC CHARGES AND SPIN DENSITIES
-----------------------------------------
   0 O :   -0.045587   -0.169502
   1 C :   -0.228654   -0.123092
   2 C :    0.254672    0.232409
   3 H :    0.033918   -0.009273
   4 H :    0.034090   -0.008922
   5 H :   -0.024210    0.039172
   6 H :   -0.024228    0.039208

  Mayer bond orders larger than 0.100000
B(  0-O ,  1-C ) :   0.8095 B(  0-O ,  2-C ) :   0.7244 B(  1-C ,  2-C ) :   0.7442
B(  1-C ,  3-H ) :   0.9843 B(  1-C ,  4-H ) :   0.9836 B(  2-C ,  5-H ) :   0.9653
B(  2-C ,  6-H ) :   0.9652

Dispersion correction           -0.005564925
FINAL SINGLE POINT ENERGY      -153.663488738200

DIPOLE MOMENT
-------------

Method             : TDA/CIS
Type of density    : Electron Density
Level              : Relaxed density
State              :   2
Multiplicity       :   3
Irrep              :   0
Energy             :     0.0000000000000000 Eh
Relativity type    :
Basis              : AO
                                X                 Y                 Z
Electronic contribution:      0.456292543       1.574776325      -0.000938853
Nuclear contribution   :     -0.597025222      -2.513110464       0.000539631
                        -----------------------------------------
Total Dipole Moment    :     -0.140732679      -0.938334138      -0.000399221
                        -----------------------------------------
Magnitude (a.u.)       :      0.948829174
Magnitude (Debye)      :      2.411732097

Rotational constants in cm-1:             1.019947             0.535440             0.407700
Rotational constants in MHz :         30577.245113         16052.092981         12222.538923

                             ****ORCA TERMINATED NORMALLY****
TOTAL RUN TIME: 0 days 0 hours 0 minutes 16 seconds 946 msec
