                         Program Version 6.0.0  -   RELEASE  -
|  1> ! Engrad def2-TZVPPD wB97M-D3BJ
|  2> %pal nprocs 8 end%pal nprocs 32 end
|  3>  %tddft nroots 2 Iroot 1
|  4> sf true
|  5> end
|  6> *xyz 0 3
|  7> O   2.40015781248973 -0.39434895266992 -1.11454362151769
|  8> O   0.06938775796616 2.91080331430691 -2.0042128402036
|  9> O   0.18347114551011 -3.84107024766277 0.77388244052374
| 10> O   -2.05065543406959 -1.00105644558624 -1.55743878348312
| 11> N   0.41662720325971 -1.9536079120964 2.01562826985439
| 12> N   -1.37698711004493 -0.29366716505536 0.47835339426365
| 13> N   1.0849215522248 -1.99698751627131 -0.20818315168231
| 14> N   -0.72032107794108 0.82257358600838 -1.53758257396953
| 15> C   1.4968087437919 0.03840807844265 1.02563630392888
| 16> C   -0.47815886881236 2.86517587231977 -0.00823346704005
| 17> C   0.5829962675173 -0.53336029841989 2.0676159597131
| 18> C   -0.47499420147378 0.29734914226022 1.34808439333243
| 19> C   2.30619221009788 1.26353709496141 1.27333143036546
| 20> C   -1.73255578538437 3.62182273588687 0.16453002268854
| 21> C   1.71356599213584 -0.75467678789109 -0.1828265983356
| 22> C   -0.40639229732572 2.10708179182583 -1.19805569604099
| 23> C   0.52967213679627 -2.68579618937183 0.86381207546676
| 24> C   -1.43836547854508 -0.19637923684942 -0.90105358216287
| 25> H   0.79172081505945 -0.20493833073763 3.0783280566521
| 26> H   -0.53270889382078 1.34378911267774 1.59432149300864
| 27> H   2.4826971651965 1.80170572438051 0.34757246660948
| 28> H   1.79949803924865 1.93112584566154 1.96596038198762
| 29> H   3.27239332821428 0.9917314330012 1.70334309107242
| 30> H   -2.37834482870666 2.91629580007613 0.71172734623756
| 31> H   -1.62008814918904 4.50198074012578 0.79011845170317
| 32> H   -2.24995262334329 3.86261846601979 -0.76611197213875
| 33> H   -0.03676988532293 -2.43343927152397 2.77217525399378
| 34> H   -1.7921288269062 -1.1659885720504 0.77296345276096
| 35> H   1.23022409832759 -2.55126666084686 -1.03704875993064
| 36> H   -0.61931080695047 0.64558484907824 -2.52749323765762
| 37> *
| 38>
| 39>                          ****END OF INPUT****

CARTESIAN COORDINATES (ANGSTROEM)
---------------------------------
  O      2.400158   -0.394349   -1.114544
  O      0.069388    2.910803   -2.004213
  O      0.183471   -3.841070    0.773882
  O     -2.050655   -1.001056   -1.557439
  N      0.416627   -1.953608    2.015628
  N     -1.376987   -0.293667    0.478353
  N      1.084922   -1.996988   -0.208183
  N     -0.720321    0.822574   -1.537583
  C      1.496809    0.038408    1.025636
  C     -0.478159    2.865176   -0.008233
  C      0.582996   -0.533360    2.067616
  C     -0.474994    0.297349    1.348084
  C      2.306192    1.263537    1.273331
  C     -1.732556    3.621823    0.164530
  C      1.713566   -0.754677   -0.182827
  C     -0.406392    2.107082   -1.198056
  C      0.529672   -2.685796    0.863812
  C     -1.438365   -0.196379   -0.901054
  H      0.791721   -0.204938    3.078328
  H     -0.532709    1.343789    1.594321
  H      2.482697    1.801706    0.347572
  H      1.799498    1.931126    1.965960
  H      3.272393    0.991731    1.703343
  H     -2.378345    2.916296    0.711727
  H     -1.620088    4.501981    0.790118
  H     -2.249953    3.862618   -0.766112
  H     -0.036770   -2.433439    2.772175
  H     -1.792129   -1.165989    0.772963
  H      1.230224   -2.551267   -1.037049
  H     -0.619311    0.645585   -2.527493

 Total Charge           Charge          ....    0
 Multiplicity           Mult            ....    3
 Number of Electrons    NEL             ....  132
 Basis Dimension        Dim             ....  882

ORBITAL ENERGIES
----------------
                 SPIN UP ORBITALS
  NO   OCC          E(Eh)            E(eV)
   0   1.0000     -19.339920      -526.2660
   1   1.0000     -19.336670      -526.1775
   2   1.0000     -19.324574      -525.8484
   3   1.0000     -19.320438      -525.7358
   4   1.0000     -14.580929      -396.7672
   5   1.0000     -14.578868      -396.7112
   6   1.0000     -14.564563      -396.3219
   7   1.0000     -14.561992      -396.2519
   8   1.0000     -10.523314      -286.3539
   9   1.0000     -10.506745      -285.9031
  10   1.0000     -10.487129      -285.3693
  11   1.0000     -10.480912      -285.2001
  12   1.0000     -10.450513      -284.3729
  13   1.0000     -10.447465      -284.2900
  14   1.0000     -10.411101      -283.3005
  15   1.0000     -10.400919      -283.0234
  16   1.0000     -10.374481      -282.3040
  17   1.0000     -10.364788      -282.0402
  18   1.0000      -1.233773       -33.5727
  19   1.0000      -1.219491       -33.1840
  20   1.0000      -1.209296       -32.9066
  21   1.0000      -1.193085       -32.4655
  22   1.0000      -1.124529       -30.6000
  23   1.0000      -1.099514       -29.9193
  24   1.0000      -1.080101       -29.3910
  25   1.0000      -1.061402       -28.8822
  26   1.0000      -0.977703       -26.6047
  27   1.0000      -0.935865       -25.4662
  28   1.0000      -0.882140       -24.0042
  29   1.0000      -0.829325       -22.5671
  30   1.0000      -0.815980       -22.2039
  31   1.0000      -0.807114       -21.9627
  32   1.0000      -0.793364       -21.5885
  33   1.0000      -0.782902       -21.3039
  34   1.0000      -0.728324       -19.8187
  35   1.0000      -0.698414       -19.0048
  36   1.0000      -0.690797       -18.7975
  37   1.0000      -0.657161       -17.8822
  38   1.0000      -0.645058       -17.5529
  39   1.0000      -0.639124       -17.3915
  40   1.0000      -0.616781       -16.7835
  41   1.0000      -0.610281       -16.6066
  42   1.0000      -0.599074       -16.3016
  43   1.0000      -0.591759       -16.1026
  44   1.0000      -0.578895       -15.7525
  45   1.0000      -0.571787       -15.5591
  46   1.0000      -0.567572       -15.4444
  47   1.0000      -0.558742       -15.2041
  48   1.0000      -0.555423       -15.1138
  49   1.0000      -0.552924       -15.0458
  50   1.0000      -0.549223       -14.9451
  51   1.0000      -0.543299       -14.7839
  52   1.0000      -0.528829       -14.3902
  53   1.0000      -0.515144       -14.0178
  54   1.0000      -0.506443       -13.7810
  55   1.0000      -0.495715       -13.4891
  56   1.0000      -0.448784       -12.2120
  57   1.0000      -0.433160       -11.7869
  58   1.0000      -0.416975       -11.3465
  59   1.0000      -0.414643       -11.2830
  60   1.0000      -0.409328       -11.1384
  61   1.0000      -0.397582       -10.8188
  62   1.0000      -0.395618       -10.7653
  63   1.0000      -0.388540       -10.5727
  64   1.0000      -0.382548       -10.4097
  65   1.0000      -0.336529        -9.1574
  66   1.0000      -0.293584        -7.9888
  67   0.0000      -0.007938        -0.2160
  68   0.0000       0.012799         0.3483
  69   0.0000       0.030259         0.8234
  70   0.0000       0.035015         0.9528
  71   0.0000       0.040842         1.1114

                 SPIN DOWN ORBITALS
  NO   OCC          E(Eh)            E(eV)
   0   1.0000     -19.336686      -526.1780
   1   1.0000     -19.332476      -526.0634
   2   1.0000     -19.324531      -525.8472
   3   1.0000     -19.320431      -525.7357
   4   1.0000     -14.580954      -396.7679
   5   1.0000     -14.578989      -396.7145
   6   1.0000     -14.564493      -396.3200
   7   1.0000     -14.561976      -396.2515
   8   1.0000     -10.523324      -286.3542
   9   1.0000     -10.506746      -285.9031
  10   1.0000     -10.487762      -285.3865
  11   1.0000     -10.480925      -285.2005
  12   1.0000     -10.450377      -284.3692
  13   1.0000     -10.446835      -284.2728
  14   1.0000     -10.410962      -283.2967
  15   1.0000     -10.374648      -282.3085
  16   1.0000     -10.373839      -282.2865
  17   1.0000     -10.364718      -282.0383
  18   1.0000      -1.232861       -33.5478
  19   1.0000      -1.219378       -33.1810
  20   1.0000      -1.198182       -32.6042
  21   1.0000      -1.193009       -32.4634
  22   1.0000      -1.124280       -30.5932
  23   1.0000      -1.098779       -29.8993
  24   1.0000      -1.078359       -29.3436
  25   1.0000      -1.061294       -28.8793
  26   1.0000      -0.977249       -26.5923
  27   1.0000      -0.907572       -24.6963
  28   1.0000      -0.881675       -23.9916
  29   1.0000      -0.827899       -22.5283
  30   1.0000      -0.813002       -22.1229
  31   1.0000      -0.803193       -21.8560
  32   1.0000      -0.786628       -21.4052
  33   1.0000      -0.780253       -21.2318
  34   1.0000      -0.718588       -19.5538
  35   1.0000      -0.696587       -18.9551
  36   1.0000      -0.689373       -18.7588
  37   1.0000      -0.654542       -17.8110
  38   1.0000      -0.642001       -17.4697
  39   1.0000      -0.636835       -17.3292
  40   1.0000      -0.614176       -16.7126
  41   1.0000      -0.597586       -16.2612
  42   1.0000      -0.590923       -16.0798
  43   1.0000      -0.585245       -15.9253
  44   1.0000      -0.572837       -15.5877
  45   1.0000      -0.567355       -15.4385
  46   1.0000      -0.558357       -15.1937
  47   1.0000      -0.555196       -15.1077
  48   1.0000      -0.552382       -15.0311
  49   1.0000      -0.549884       -14.9631
  50   1.0000      -0.538240       -14.6463
  51   1.0000      -0.531578       -14.4650
  52   1.0000      -0.528543       -14.3824
  53   1.0000      -0.514710       -14.0060
  54   1.0000      -0.496269       -13.5042
  55   1.0000      -0.493929       -13.4405
  56   1.0000      -0.436252       -11.8710
  57   1.0000      -0.430382       -11.7113
  58   1.0000      -0.415479       -11.3058
  59   1.0000      -0.402808       -10.9610
  60   1.0000      -0.395182       -10.7534
  61   1.0000      -0.392565       -10.6822
  62   1.0000      -0.386693       -10.5224
  63   1.0000      -0.382423       -10.4063
  64   1.0000      -0.334879        -9.1125
  65   0.0000      -0.061177        -1.6647
  66   0.0000      -0.007813        -0.2126
  67   0.0000       0.013301         0.3619
  68   0.0000       0.030640         0.8338
  69   0.0000       0.034761         0.9459

----------------------------------------------------------------------------------------------------
          SPIN FLIP ABSORPTION SPECTRUM VIA TRANSITION ELECTRIC DIPOLE MOMENTS
----------------------------------------------------------------------------------------------------
     Transition      Energy     Energy  Wavelength fosc(D2)      D2        DX        DY        DZ
                      (eV)      (cm-1)    (nm)                 (au**2)    (au)      (au)      (au)
----------------------------------------------------------------------------------------------------
  1-3A  ->  2-3A    2.317313   18690.4   535.0   0.000717431   0.01264  -0.05684  -0.05695   0.07850

Dispersion correction             ... done (  0.1 sec)

MULLIKEN ATOMIC CHARGES AND SPIN DENSITIES
------------------------------------------
   0 O :   -0.679842   -0.000976
   1 O :   -0.603224   -0.031634
   2 O :   -0.648937   -0.000067
   3 O :   -0.630511   -0.000871
   4 N :   -0.254931   -0.000742
   5 N :   -0.124864    0.007039
   6 N :    0.035239    0.000287
   7 N :   -0.019616   -0.019449
   8 C :    0.770412    0.000562
   9 C :   -0.118615    0.217939
  10 C :    0.545968   -0.003918
  11 C :   -0.707727   -0.049686
  12 C :   -1.492189    0.024070
  13 C :   -0.705355    0.112589
  14 C :    0.320484   -0.002859
  15 C :    0.776439   -0.205700
  16 C :    0.409437    0.000552
  17 C :    0.486644    0.025263
  18 H :    0.346530    0.004267
  19 H :    0.352579   -0.051655
  20 H :    0.271660   -0.000013
  21 H :    0.295383   -0.014662
  22 H :    0.399621   -0.005601
  23 H :    0.225549    0.002594
  24 H :    0.222688   -0.015821
  25 H :    0.325161    0.004539
  26 H :    0.051262   -0.000264
  27 H :    0.085238   -0.001656
  28 H :    0.035033    0.000087
  29 H :    0.030484    0.005782
Sum of atomic charges       :    0.0000000

LOEWDIN ATOMIC CHARGES AND SPIN DENSITIES
-----------------------------------------
   0 O :    0.096601   -0.000132
   1 O :    0.104757   -0.038821
   2 O :    0.089456   -0.000011
   3 O :    0.108264   -0.000780
   4 N :    0.279832   -0.000164
   5 N :    0.256728   -0.000309
   6 N :    0.333854   -0.000107
   7 N :    0.348345    0.000623
   8 C :   -0.081643   -0.000822
   9 C :    0.139821    0.058137
  10 C :   -0.137445   -0.000346
  11 C :    0.079136   -0.002951
  12 C :    0.175316   -0.004627
  13 C :    0.114351    0.002962
  14 C :   -0.408266   -0.000102
  15 C :   -0.517835   -0.007032
  16 C :   -0.488771   -0.000023
  17 C :   -0.453897   -0.000325
  18 H :    0.054082    0.000008
  19 H :   -0.029307   -0.002828
  20 H :   -0.003693   -0.000999
  21 H :   -0.007332   -0.001888
  22 H :    0.006223   -0.000617
  23 H :    0.011838    0.000890
  24 H :   -0.014991    0.000296
  25 H :    0.005637   -0.000073
  26 H :   -0.027667   -0.000016
  27 H :   -0.024724   -0.000063
  28 H :   -0.007595   -0.000010
  29 H :   -0.001073    0.000130

  Mayer bond orders larger than 0.100000
B(  0-O ,  8-C ) :  -0.1020 B(  0-O , 14-C ) :   1.5031 B(  1-O ,  9-C ) :   0.3905
B(  1-O , 15-C ) :   1.0852 B(  2-O , 16-C ) :   1.5825 B(  3-O , 17-C ) :   1.5179
B(  4-N ,  8-C ) :   0.2040 B(  4-N , 10-C ) :   0.3717 B(  4-N , 16-C ) :   1.0994
B(  4-N , 26-H ) :   1.1018 B(  5-N , 11-C ) :   0.6807 B(  5-N , 17-C ) :   0.9739
B(  5-N , 19-H ) :  -0.1257 B(  5-N , 27-H ) :   1.0452 B(  6-N ,  8-C ) :  -0.1084
B(  6-N , 10-C ) :   0.1732 B(  6-N , 14-C ) :   1.0577 B(  6-N , 16-C ) :   0.9528
B(  6-N , 28-H ) :   1.1093 B(  7-N , 15-C ) :   0.9720 B(  7-N , 17-C ) :   0.9568
B(  7-N , 29-H ) :   1.1530 B(  8-C , 10-C ) :   0.4948 B(  8-C , 11-C ) :   0.6455
B(  8-C , 12-C ) :   0.3991 B(  8-C , 14-C ) :   0.7056 B(  8-C , 18-H ) :  -0.1286
B(  8-C , 19-H ) :  -0.1245 B(  8-C , 20-H ) :  -0.1265 B(  9-C , 11-C ) :  -0.1188
B(  9-C , 13-C ) :   0.5442 B(  9-C , 15-C ) :   0.6348 B( 10-C , 11-C ) :   0.7121
B( 10-C , 12-C ) :  -0.1348 B( 10-C , 14-C ) :  -0.1342 B( 10-C , 16-C ) :  -0.1082
B( 10-C , 18-H ) :   1.0555 B( 11-C , 14-C ) :   0.1519 B( 11-C , 17-C ) :  -0.1276
B( 11-C , 19-H ) :   1.0193 B( 12-C , 20-H ) :   1.0567 B( 12-C , 21-H ) :   0.9691
B( 12-C , 22-H ) :   0.7835 B( 13-C , 23-H ) :   0.9082 B( 13-C , 24-H ) :   1.0622
B( 13-C , 25-H ) :   0.9213

Dispersion correction           -0.056434075
FINAL SINGLE POINT ENERGY      -908.704680078071

DIPOLE MOMENT
-------------

Method             : TDA/CIS
Type of density    : Electron Density
Level              : Relaxed density
State              :   1
Multiplicity       :   3
Irrep              :   0
Energy             :     0.0000000000000000 Eh
Relativity type    :
Basis              : AO
                                X                 Y                 Z
Electronic contribution:     -0.063072414      -9.952289703      -6.052418235
Nuclear contribution   :     -0.875714689      10.914016807       8.275732406
                        -----------------------------------------
Total Dipole Moment    :     -0.938787104       0.961727104       2.223314171
                        -----------------------------------------
Magnitude (a.u.)       :      2.597954224
Magnitude (Debye)      :      6.603474851

Rotational constants in cm-1:             0.022694             0.011854             0.010818
Rotational constants in MHz :           680.350280           355.386706           324.322336

                             ****ORCA TERMINATED NORMALLY****
TOTAL RUN TIME: 0 days 0 hours 6 minutes 33 seconds 183 msec
