                         Program Version 6.0.0  -   RELEASE  -
|  1> ! Engrad def2-TZVPPD wB97M-D3BJ
|  2> %pal nprocs 8 end%pal nprocs 64 end
|  3> %tddft
|  4>  Iroot 1 Nroots 3
|  5> sf true
|  6> end
|  7> *xyz 0 3
|  8> O   1.26512882 0.73036527 0.50261806
|  9> C   -0.04139544 0.33790252 0.19086694
| 10> C   0.005758 -0.96246911 -0.54474118
| 11> H   -0.60630177 1.10361514 -0.30088377
| 12> H   -0.71155576 0.25737621 1.12092097
| 13> H   -0.77265692 -1.68435529 -0.55492493
| 14> H   1.04094558 -1.08340802 -0.87404738
| 15> *
| 16>
| 17>                          ****END OF INPUT****

CARTESIAN COORDINATES (ANGSTROEM)
---------------------------------
  O      1.265129    0.730365    0.502618
  C     -0.041395    0.337903    0.190867
  C      0.005758   -0.962469   -0.544741
  H     -0.606302    1.103615   -0.300884
  H     -0.711556    0.257376    1.120921
  H     -0.772657   -1.684355   -0.554925
  H      1.040946   -1.083408   -0.874047

 Total Charge           Charge          ....    0
 Multiplicity           Mult            ....    3
 Number of Electrons    NEL             ....   24
 Basis Dimension        Dim             ....  182

ORBITAL ENERGIES
----------------
                 SPIN UP ORBITALS
  NO   OCC          E(Eh)            E(eV)
   0   1.0000     -19.394544      -527.7524
   1   1.0000     -10.415988      -283.4335
   2   1.0000     -10.362208      -281.9700
   3   1.0000      -1.160962       -31.5914
   4   1.0000      -0.874296       -23.7908
   5   1.0000      -0.741313       -20.1721
   6   1.0000      -0.603703       -16.4276
   7   1.0000      -0.598051       -16.2738
   8   1.0000      -0.543266       -14.7830
   9   1.0000      -0.507722       -13.8158
  10   1.0000      -0.451032       -12.2732
  11   1.0000      -0.419357       -11.4113
  12   1.0000      -0.316226        -8.6050
  13   0.0000       0.040150         1.0926
  14   0.0000       0.060843         1.6556
  15   0.0000       0.080251         2.1837
  16   0.0000       0.084303         2.2940
  17   0.0000       0.109329         2.9750

                 SPIN DOWN ORBITALS
  NO   OCC          E(Eh)            E(eV)
   0   1.0000     -19.371279      -527.1193
   1   1.0000     -10.417462      -283.4736
   2   1.0000     -10.349113      -281.6137
   3   1.0000      -1.107037       -30.1240
   4   1.0000      -0.842661       -22.9300
   5   1.0000      -0.714989       -19.4558
   6   1.0000      -0.585752       -15.9391
   7   1.0000      -0.542746       -14.7689
   8   1.0000      -0.519186       -14.1278
   9   1.0000      -0.490597       -13.3498
  10   1.0000      -0.389543       -10.6000
  11   0.0000      -0.059008        -1.6057
  12   0.0000       0.005869         0.1597
  13   0.0000       0.039132         1.0648
  14   0.0000       0.060429         1.6444
  15   0.0000       0.080378         2.1872

----------------------------------------------------------------------------------------------------
          SPIN FLIP ABSORPTION SPECTRUM VIA TRANSITION ELECTRIC DIPOLE MOMENTS
----------------------------------------------------------------------------------------------------
     Transition      Energy     Energy  Wavelength fosc(D2)      D2        DX        DY        DZ
                      (eV)      (cm-1)    (nm)                 (au**2)    (au)      (au)      (au)
----------------------------------------------------------------------------------------------------
  1-3A  ->  2-3A    0.196252    1582.9  6317.6   0.000373873   0.07776  -0.06711  -0.23832  -0.12829
  1-3A  ->  3-3A    0.738473    5956.2  1678.9   0.031178455   1.72330   0.85477   0.84386   0.52969

Dispersion correction             ... done (  0.1 sec)

MULLIKEN ATOMIC CHARGES AND SPIN DENSITIES
------------------------------------------
   0 O :   -0.498773   -0.355508
   1 C :   -0.012750   -0.025444
   2 C :   -0.410167    0.294035
   3 H :    0.234472    0.066055
   4 H :    0.223564   -0.028775
   5 H :    0.235365    0.009213
   6 H :    0.228290    0.040425
Sum of atomic charges       :   -0.0000000

LOEWDIN ATOMIC CHARGES AND SPIN DENSITIES
-----------------------------------------
   0 O :   -0.103116   -0.374963
   1 C :   -0.259381    0.015839
   2 C :    0.361561    0.283598
   3 H :    0.006020    0.033840
   4 H :    0.079538   -0.026940
   5 H :   -0.057370    0.032460
   6 H :   -0.027252    0.036167

  Mayer bond orders larger than 0.100000
B(  0-O ,  1-C ) :   1.0108 B(  0-O ,  2-C ) :   0.3255 B(  1-C ,  2-C ) :   0.9332
B(  1-C ,  3-H ) :   0.9469 B(  1-C ,  4-H ) :   0.8649 B(  2-C ,  5-H ) :   0.9655
B(  2-C ,  6-H ) :   0.9581

Dispersion correction           -0.005553049
FINAL SINGLE POINT ENERGY      -153.750830898234

DIPOLE MOMENT
-------------

Method             : TDA/CIS
Type of density    : Electron Density
Level              : Relaxed density
State              :   1
Multiplicity       :   3
Irrep              :   0
Energy             :     0.0000000000000000 Eh
Relativity type    :
Basis              : AO
                                X                 Y                 Z
Electronic contribution:      1.329053045       0.804482092       0.434449668
Nuclear contribution   :     -2.569915055      -1.545502450      -0.835574958
                        -----------------------------------------
Total Dipole Moment    :     -1.240862010      -0.741020358      -0.401125290
                        -----------------------------------------
Magnitude (a.u.)       :      1.499917064
Magnitude (Debye)      :      3.812486192

Rotational constants in cm-1:             1.334162             0.369502             0.306078
Rotational constants in MHz :         39997.165182         11077.383682          9176.001861

                             ****ORCA TERMINATED NORMALLY****
TOTAL RUN TIME: 0 days 0 hours 0 minutes 28 seconds 146 msec
