                         Program Version 6.0.0  -   RELEASE  -
|  1> ! Opt wB97M-D3BJ def2-TZVPPD
|  2> %pal nprocs 8 end %pal nprocs 64 end
|  3> %geom
|  4> Constraints
|  5>     {A 2 1 0 140.84745762711864 C }
|  6> end
|  7> MaxIter 200
|  8> end
|  9> *xyz 0 1
| 10> O   1.8618274507742272 0.4993736772399767 0.0
| 11> C   0.7509 -0.4065 0.0
| 12> C   -0.7502 -0.4076 0.0
| 13> H   1.2625 -0.6786 0.9136
| 14> H   1.2625 -0.6787 -0.9136
| 15> H   -1.2614 -0.6806 -0.9136
| 16> H   -1.2614 -0.6805 0.9136
| 17> *
| 18>
| 19>                          ****END OF INPUT****
 Total Charge           Charge          ....    0
 Multiplicity           Mult            ....    1
 Number of Electrons    NEL             ....   24
Dispersion correction           -0.005300560
FINAL SINGLE POINT ENERGY      -153.684863547165
Dispersion correction             ... done (  0.1 sec)
Dispersion correction           -0.005395910
FINAL SINGLE POINT ENERGY      -153.706543239524
Dispersion correction             ... done (  0.1 sec)
Dispersion correction           -0.005464471
FINAL SINGLE POINT ENERGY      -153.716575579425
Dispersion correction             ... done (  0.1 sec)
FINAL SINGLE POINT ENERGY      -153.723858328817
FINAL SINGLE POINT ENERGY      -153.731802159326
FINAL SINGLE POINT ENERGY      -153.745073055811
FINAL SINGLE POINT ENERGY      -153.762639241713
FINAL SINGLE POINT ENERGY      -153.791438716489
FINAL SINGLE POINT ENERGY      -153.816384552289
FINAL SINGLE POINT ENERGY      -153.843907138062
FINAL SINGLE POINT ENERGY      -153.919415351755
FINAL SINGLE POINT ENERGY      -153.920006909140
FINAL SINGLE POINT ENERGY      -153.920426881021
FINAL SINGLE POINT ENERGY      -153.920537718146
FINAL SINGLE POINT ENERGY      -153.920599572047
FINAL SINGLE POINT ENERGY      -153.920913157045
FINAL SINGLE POINT ENERGY      -153.920959262078
Dispersion correction             ... done (  0.1 sec)
Dispersion correction           -0.005500398
FINAL SINGLE POINT ENERGY      -153.920991503330
Dispersion correction             ... done (  0.1 sec)
Dispersion correction           -0.005499830
FINAL SINGLE POINT ENERGY      -153.920994244802
Dispersion correction             ... done (  0.1 sec)
                    ***********************HURRAY********************

CARTESIAN COORDINATES (ANGSTROEM)
---------------------------------
  O      1.637241    0.954516   -0.002585
  C      0.966270   -0.016418    0.207783
  C     -0.304913   -0.671231   -0.243124
  H      1.381872   -0.695664    0.996542
  H     -0.034369   -1.669893   -0.583592
  H     -0.856839   -0.146140   -1.020037
  H     -0.924535   -0.788296    0.645013

 Multiplicity           Mult            ....    1
 Number of Electrons    NEL             ....   24
 Basis Dimension        Dim             ....  182

ORBITAL ENERGIES
----------------

  NO   OCC          E(Eh)            E(eV)
   0   2.0000     -19.343420      -526.3612
   1   2.0000     -10.445794      -284.2445
   2   2.0000     -10.367356      -282.1101
   3   2.0000      -1.190582       -32.3974
   4   2.0000      -0.896619       -24.3983
   5   2.0000      -0.695918       -18.9369
   6   2.0000      -0.595960       -16.2169
   7   2.0000      -0.566926       -15.4268
   8   2.0000      -0.561603       -15.2820
   9   2.0000      -0.511015       -13.9054
  10   2.0000      -0.481555       -13.1038
  11   2.0000      -0.362146        -9.8545
  12   0.0000       0.033984         0.9247
  13   0.0000       0.057962         1.5772
  14   0.0000       0.059199         1.6109
  15   0.0000       0.081261         2.2112
  16   0.0000       0.085032         2.3138

MULLIKEN ATOMIC CHARGES
-----------------------
   0 O :   -0.467041
   1 C :    0.227894
   2 C :   -0.688569
   3 H :    0.206319
   4 H :    0.240191
   5 H :    0.240768
   6 H :    0.240438
Sum of atomic charges:   -0.0000000

LOEWDIN ATOMIC CHARGES
----------------------
   0 O :    0.078100
   1 C :   -0.245737
   2 C :    0.172585
   3 H :    0.019255
   4 H :   -0.007097
   5 H :   -0.010024
   6 H :   -0.007083

  Mayer bond orders larger than 0.100000
B(  0-O ,  1-C ) :   1.7723 B(  1-C ,  2-C ) :   0.7502 B(  1-C ,  3-H ) :   1.0135
B(  2-C ,  4-H ) :   0.9862 B(  2-C ,  5-H ) :   0.9622 B(  2-C ,  6-H ) :   0.9856

Dispersion correction           -0.005499314
FINAL SINGLE POINT ENERGY      -153.920994948327

DIPOLE MOMENT
-------------

Method             : SCF
Type of density    : Electron Density
Multiplicity       :   1
Irrep              :   0
Energy             :  -153.9154956338578870 Eh
Relativity type    :
Basis              : AO
                                X                 Y                 Z
Electronic contribution:      2.478878259       2.488260923       0.010418067
Nuclear contribution   :     -3.264957678      -3.397053704       0.072113155
                        -----------------------------------------
Total Dipole Moment    :     -0.786079419      -0.908792780       0.082531222
                        -----------------------------------------
Magnitude (a.u.)       :      1.204423751
Magnitude (Debye)      :      3.061401882

Rotational constants in cm-1:             2.428321             0.305167             0.285340
Rotational constants in MHz :         72799.241637          9148.667957          8554.276565

                             ****ORCA TERMINATED NORMALLY****
TOTAL RUN TIME: 0 days 0 hours 5 minutes 51 seconds 503 msec
