                         Program Version 6.0.0  -   RELEASE  -
|  1> ! Engrad def2-TZVPPD wB97M-D3BJ
|  2> %pal nprocs 8 end%pal nprocs 64 end
|  3> %tddft
|  4>  Iroot 2 Nroots 3
|  5> sf true
|  6> end
|  7> *xyz 0 3
|  8> O   3.62287782 -0.81627578 -0.53748303
|  9> O   -1.33236148 1.23925272 -2.63722299
| 10> O   -0.42634751 -2.79087662 -0.59396634
| 11> O   -3.45023022 -0.76231944 0.84112844
| 12> N   -0.02825343 -1.34231646 1.04959338
| 13> N   -1.84410924 0.85521314 1.2021201
| 14> N   1.51221932 -1.61032116 -0.65370446
| 15> N   -2.14456615 -0.01753013 -0.92006861
| 16> C   1.95748497 0.11640665 0.93971789
| 17> C   -0.26118473 1.53728727 -0.55036107
| 18> C   0.50783374 -0.01331901 1.39758937
| 19> C   -0.37478328 1.12965049 0.89503819
| 20> C   2.86114026 1.16789619 1.52658735
| 21> C   0.59678813 2.57744985 -0.98142299
| 22> C   2.46998721 -0.79739152 -0.09620491
| 23> C   -1.30845052 1.00997282 -1.44795835
| 24> C   0.31460315 -1.98489866 -0.09202934
| 25> C   -2.56476795 0.00481865 0.44009887
| 26> H   0.57287445 0.02696301 2.52011645
| 27> H   -0.1602773 2.03990643 1.46198815
| 28> H   3.84036344 1.25769136 1.10480806
| 29> H   2.35027244 2.12731182 1.41903793
| 30> H   2.86981127 0.85223601 2.5658944
| 31> H   0.568029 2.69931385 -2.08102281
| 32> H   0.32029251 3.53021712 -0.4463162
| 33> H   1.61478476 2.28762952 -0.61490653
| 34> H   -0.88439092 -1.4765784 1.58214449
| 35> H   -2.05166363 0.8447894 2.19984439
| 36> H   1.79289758 -2.22706533 -1.44523331
| 37> H   -2.94755641 -0.34948843 -1.40882294
| 38> *
| 39>
| 40>                          ****END OF INPUT****

CARTESIAN COORDINATES (ANGSTROEM)
---------------------------------
  O      3.622878   -0.816276   -0.537483
  O     -1.332361    1.239253   -2.637223
  O     -0.426348   -2.790877   -0.593966
  O     -3.450230   -0.762319    0.841128
  N     -0.028253   -1.342316    1.049593
  N     -1.844109    0.855213    1.202120
  N      1.512219   -1.610321   -0.653704
  N     -2.144566   -0.017530   -0.920069
  C      1.957485    0.116407    0.939718
  C     -0.261185    1.537287   -0.550361
  C      0.507834   -0.013319    1.397589
  C     -0.374783    1.129650    0.895038
  C      2.861140    1.167896    1.526587
  C      0.596788    2.577450   -0.981423
  C      2.469987   -0.797392   -0.096205
  C     -1.308451    1.009973   -1.447958
  C      0.314603   -1.984899   -0.092029
  C     -2.564768    0.004819    0.440099
  H      0.572874    0.026963    2.520116
  H     -0.160277    2.039906    1.461988
  H      3.840363    1.257691    1.104808
  H      2.350272    2.127312    1.419038
  H      2.869811    0.852236    2.565894
  H      0.568029    2.699314   -2.081023
  H      0.320293    3.530217   -0.446316
  H      1.614785    2.287630   -0.614907
  H     -0.884391   -1.476578    1.582144
  H     -2.051664    0.844789    2.199844
  H      1.792898   -2.227065   -1.445233
  H     -2.947556   -0.349488   -1.408823

 Total Charge           Charge          ....    0
 Multiplicity           Mult            ....    3
 Number of Electrons    NEL             ....  132
 Basis Dimension        Dim             ....  882

ORBITAL ENERGIES
----------------
                 SPIN UP ORBITALS
  NO   OCC          E(Eh)            E(eV)
   0   1.0000     -19.336141      -526.1631
   1   1.0000     -19.335439      -526.1440
   2   1.0000     -19.324404      -525.8438
   3   1.0000     -19.310439      -525.4638
   4   1.0000     -14.568939      -396.4410
   5   1.0000     -14.566214      -396.3668
   6   1.0000     -14.556837      -396.1117
   7   1.0000     -14.554533      -396.0490
   8   1.0000     -10.506397      -285.8936
   9   1.0000     -10.499265      -285.6995
  10   1.0000     -10.486142      -285.3424
  11   1.0000     -10.481954      -285.2285
  12   1.0000     -10.454357      -284.4775
  13   1.0000     -10.453557      -284.4557
  14   1.0000     -10.429418      -283.7989
  15   1.0000     -10.419438      -283.5273
  16   1.0000     -10.383636      -282.5531
  17   1.0000     -10.381640      -282.4988
  18   1.0000      -1.218612       -33.1601
  19   1.0000      -1.212175       -32.9850
  20   1.0000      -1.193478       -32.4762
  21   1.0000      -1.190127       -32.3850
  22   1.0000      -1.114214       -30.3193
  23   1.0000      -1.093857       -29.7654
  24   1.0000      -1.062626       -28.9155
  25   1.0000      -1.046977       -28.4897
  26   1.0000      -0.991043       -26.9677
  27   1.0000      -0.962196       -26.1827
  28   1.0000      -0.898114       -24.4389
  29   1.0000      -0.844730       -22.9863
  30   1.0000      -0.828191       -22.5362
  31   1.0000      -0.799340       -21.7511
  32   1.0000      -0.788176       -21.4474
  33   1.0000      -0.767244       -20.8778
  34   1.0000      -0.705004       -19.1841
  35   1.0000      -0.694758       -18.9053
  36   1.0000      -0.682051       -18.5596
  37   1.0000      -0.667822       -18.1724
  38   1.0000      -0.655556       -17.8386
  39   1.0000      -0.636215       -17.3123
  40   1.0000      -0.607835       -16.5400
  41   1.0000      -0.607160       -16.5217
  42   1.0000      -0.597454       -16.2575
  43   1.0000      -0.586104       -15.9487
  44   1.0000      -0.582705       -15.8562
  45   1.0000      -0.572765       -15.5857
  46   1.0000      -0.569206       -15.4889
  47   1.0000      -0.563080       -15.3222
  48   1.0000      -0.560957       -15.2644
  49   1.0000      -0.558393       -15.1946
  50   1.0000      -0.547485       -14.8978
  51   1.0000      -0.538738       -14.6598
  52   1.0000      -0.527023       -14.3410
  53   1.0000      -0.522394       -14.2151
  54   1.0000      -0.516312       -14.0496
  55   1.0000      -0.512995       -13.9593
  56   1.0000      -0.491766       -13.3816
  57   1.0000      -0.421481       -11.4691
  58   1.0000      -0.418544       -11.3892
  59   1.0000      -0.412304       -11.2193
  60   1.0000      -0.405032       -11.0215
  61   1.0000      -0.398621       -10.8470
  62   1.0000      -0.392851       -10.6900
  63   1.0000      -0.386718       -10.5231
  64   1.0000      -0.381794       -10.3892
  65   1.0000      -0.345377        -9.3982
  66   1.0000      -0.336337        -9.1522
  67   0.0000       0.003950         0.1075
  68   0.0000       0.026164         0.7120
  69   0.0000       0.030883         0.8404
  70   0.0000       0.036950         1.0055
  71   0.0000       0.052307         1.4234

                 SPIN DOWN ORBITALS
  NO   OCC          E(Eh)            E(eV)
   0   1.0000     -19.331594      -526.0394
   1   1.0000     -19.331145      -526.0272
   2   1.0000     -19.324272      -525.8402
   3   1.0000     -19.310301      -525.4600
   4   1.0000     -14.568547      -396.4303
   5   1.0000     -14.565471      -396.3466
   6   1.0000     -14.556787      -396.1103
   7   1.0000     -14.554232      -396.0408
   8   1.0000     -10.506434      -285.8946
   9   1.0000     -10.499320      -285.7010
  10   1.0000     -10.487246      -285.3725
  11   1.0000     -10.483083      -285.2592
  12   1.0000     -10.454321      -284.4765
  13   1.0000     -10.453364      -284.4505
  14   1.0000     -10.417744      -283.4812
  15   1.0000     -10.408078      -283.2182
  16   1.0000     -10.384123      -282.5664
  17   1.0000     -10.382179      -282.5135
  18   1.0000      -1.217115       -33.1194
  19   1.0000      -1.208848       -32.8944
  20   1.0000      -1.189613       -32.3710
  21   1.0000      -1.185207       -32.2511
  22   1.0000      -1.111919       -30.2568
  23   1.0000      -1.091756       -29.7082
  24   1.0000      -1.060882       -28.8681
  25   1.0000      -1.045775       -28.4570
  26   1.0000      -0.977990       -26.6125
  27   1.0000      -0.945597       -25.7310
  28   1.0000      -0.893054       -24.3012
  29   1.0000      -0.838823       -22.8255
  30   1.0000      -0.818806       -22.2808
  31   1.0000      -0.794419       -21.6172
  32   1.0000      -0.785994       -21.3880
  33   1.0000      -0.765727       -20.8365
  34   1.0000      -0.699744       -19.0410
  35   1.0000      -0.688296       -18.7295
  36   1.0000      -0.676341       -18.4042
  37   1.0000      -0.659073       -17.9343
  38   1.0000      -0.644816       -17.5463
  39   1.0000      -0.633243       -17.2314
  40   1.0000      -0.603750       -16.4289
  41   1.0000      -0.601664       -16.3721
  42   1.0000      -0.589468       -16.0402
  43   1.0000      -0.578168       -15.7327
  44   1.0000      -0.576181       -15.6787
  45   1.0000      -0.566529       -15.4160
  46   1.0000      -0.564012       -15.3475
  47   1.0000      -0.557713       -15.1761
  48   1.0000      -0.554808       -15.0971
  49   1.0000      -0.548806       -14.9338
  50   1.0000      -0.541708       -14.7406
  51   1.0000      -0.531960       -14.4754
  52   1.0000      -0.516361       -14.0509
  53   1.0000      -0.512268       -13.9395
  54   1.0000      -0.511291       -13.9129
  55   1.0000      -0.505195       -13.7471
  56   1.0000      -0.486357       -13.2345
  57   1.0000      -0.418419       -11.3858
  58   1.0000      -0.413727       -11.2581
  59   1.0000      -0.402696       -10.9579
  60   1.0000      -0.393825       -10.7165
  61   1.0000      -0.391876       -10.6635
  62   1.0000      -0.385993       -10.5034
  63   1.0000      -0.382415       -10.4060
  64   1.0000      -0.378255       -10.2928
  65   0.0000      -0.059296        -1.6135
  66   0.0000      -0.056218        -1.5298
  67   0.0000       0.003664         0.0997
  68   0.0000       0.025906         0.7049
  69   0.0000       0.030679         0.8348

----------------------------------------------------------------------------------------------------
          SPIN FLIP ABSORPTION SPECTRUM VIA TRANSITION ELECTRIC DIPOLE MOMENTS
----------------------------------------------------------------------------------------------------
     Transition      Energy     Energy  Wavelength fosc(D2)      D2        DX        DY        DZ
                      (eV)      (cm-1)    (nm)                 (au**2)    (au)      (au)      (au)
----------------------------------------------------------------------------------------------------
  1-3A  ->  2-1A    0.019001     153.3  65250.6   0.000000583   0.00125   0.03505  -0.00473  -0.00084
  1-3A  ->  3-3A    2.136470   17231.8   580.3   0.000442372   0.00845  -0.04544  -0.04884   0.06326

Dispersion correction             ... done (  0.1 sec)

MULLIKEN ATOMIC CHARGES AND SPIN DENSITIES
------------------------------------------
   0 O :   -0.695387   -0.144319
   1 O :   -0.639916    0.145602
   2 O :   -0.650611   -0.005648
   3 O :   -0.659012    0.001390
   4 N :   -0.197774   -0.007309
   5 N :   -0.362159    0.014558
   6 N :   -0.024382   -0.021833
   7 N :    0.150709    0.016133
   8 C :    1.030328    0.505368
   9 C :   -0.204085    0.299308
  10 C :   -0.371689   -0.533311
  11 C :    0.649167    0.104603
  12 C :   -1.194287    0.014406
  13 C :   -1.342147    0.076158
  14 C :   -0.078382   -0.586571
  15 C :    0.357656    0.065766
  16 C :    0.512640    0.047571
  17 C :    0.253850   -0.005146
  18 H :    0.533483   -0.046912
  19 H :    0.601355    0.010683
  20 H :    0.243798   -0.005614
  21 H :    0.367203    0.018510
  22 H :    0.429031   -0.011504
  23 H :    0.323606    0.013977
  24 H :    0.308637    0.022412
  25 H :    0.211800    0.000724
  26 H :    0.121848    0.002296
  27 H :    0.130415   -0.000154
  28 H :    0.111634    0.010522
  29 H :    0.082669   -0.001667
Sum of atomic charges       :    0.0000000

LOEWDIN ATOMIC CHARGES AND SPIN DENSITIES
-----------------------------------------
   0 O :    0.059417   -0.125997
   1 O :    0.100455    0.129003
   2 O :    0.097430   -0.004735
   3 O :    0.061694    0.001449
   4 N :    0.284000   -0.001621
   5 N :    0.271692    0.006672
   6 N :    0.307378   -0.018446
   7 N :    0.334599    0.010043
   8 C :    0.013136   -0.447050
   9 C :   -0.058536    0.439426
  10 C :   -0.115958   -0.033478
  11 C :   -0.083372    0.031220
  12 C :    0.204794   -0.058601
  13 C :    0.166803    0.075741
  14 C :   -0.407382   -0.077472
  15 C :   -0.359074    0.063518
  16 C :   -0.517027   -0.000234
  17 C :   -0.488937    0.000079
  18 H :    0.076204   -0.010085
  19 H :    0.049184    0.006542
  20 H :   -0.005986    0.000906
  21 H :   -0.009965   -0.013119
  22 H :    0.003581   -0.019314
  23 H :    0.020701   -0.000421
  24 H :    0.042591    0.029785
  25 H :    0.006790    0.016316
  26 H :   -0.026954   -0.000210
  27 H :   -0.022327    0.000470
  28 H :    0.033098   -0.001401
  29 H :   -0.038028    0.001013

  Mayer bond orders larger than 0.100000
B(  0-O , 14-C ) :   1.3587 B(  1-O , 15-C ) :   1.3321 B(  2-O , 16-C ) :   1.5575
B(  3-O , 17-C ) :   1.5866 B(  4-N ,  8-C ) :   0.1417 B(  4-N ,  9-C ) :   0.1019
B(  4-N , 10-C ) :   0.5063 B(  4-N , 16-C ) :   0.9631 B(  4-N , 26-H ) :   1.0273
B(  5-N ,  9-C ) :   0.3543 B(  5-N , 10-C ) :   0.1273 B(  5-N , 17-C ) :   1.1294
B(  5-N , 27-H ) :   1.0066 B(  6-N ,  8-C ) :  -0.1040 B(  6-N , 10-C ) :   0.1525
B(  6-N , 14-C ) :   1.0861 B(  6-N , 16-C ) :   0.9575 B(  6-N , 28-H ) :   1.0479
B(  7-N , 11-C ) :   0.1399 B(  7-N , 15-C ) :   0.9756 B(  7-N , 17-C ) :   0.9993
B(  7-N , 29-H ) :   1.0006 B(  8-C , 10-C ) :   0.4544 B(  8-C , 11-C ) :   0.2534
B(  8-C , 12-C ) :   0.5605 B(  8-C , 14-C ) :   0.2040 B(  8-C , 18-H ) :  -0.1634
B(  9-C , 10-C ) :   0.3292 B(  9-C , 11-C ) :  -0.5871 B(  9-C , 13-C ) :   0.3683
B(  9-C , 14-C ) :   0.1066 B(  9-C , 15-C ) :   0.9582 B(  9-C , 19-H ) :  -0.1927
B(  9-C , 23-H ) :  -0.1075 B( 10-C , 11-C ) :   0.6266 B( 10-C , 14-C ) :   0.3947
B( 10-C , 18-H ) :   0.7634 B( 11-C , 13-C ) :  -0.2008 B( 11-C , 15-C ) :  -0.1260
B( 11-C , 17-C ) :  -0.1465 B( 11-C , 19-H ) :   0.7973 B( 12-C , 20-H ) :   1.1265
B( 12-C , 21-H ) :   0.8157 B( 12-C , 22-H ) :   0.8200 B( 13-C , 15-C ) :  -0.1084
B( 13-C , 23-H ) :   0.9901 B( 13-C , 24-H ) :   0.8727 B( 13-C , 25-H ) :   1.0954
B( 14-C , 16-C ) :  -0.1133 B( 15-C , 17-C ) :  -0.1004

Dispersion correction           -0.058676163
FINAL SINGLE POINT ENERGY      -908.770400248272

DIPOLE MOMENT
-------------

Method             : TDA/CIS
Type of density    : Electron Density
Level              : Relaxed density
State              :   2
Multiplicity       :   3
Irrep              :   0
Energy             :     0.0000000000000000 Eh
Relativity type    :
Basis              : AO
                                X                 Y                 Z
Electronic contribution:     -6.648996409      -9.166675780      -4.455818084
Nuclear contribution   :      7.454206275      11.330293641       6.665298530
                        -----------------------------------------
Total Dipole Moment    :      0.805209866       2.163617861       2.209480445
                        -----------------------------------------
Magnitude (a.u.)       :      3.195529536
Magnitude (Debye)      :      8.122390583

Rotational constants in cm-1:             0.020623             0.013082             0.011578
Rotational constants in MHz :           618.269705           392.173633           347.086550

                             ****ORCA TERMINATED NORMALLY****
TOTAL RUN TIME: 0 days 0 hours 5 minutes 31 seconds 2 msec
