                         Program Version 6.0.0  -   RELEASE  -
|  1> ! Engrad def2-TZVPPD wB97M-D3BJ
|  2> %pal nprocs 8 end%pal nprocs 64 end
|  3> %tddft Nroots 2 Iroot 2
|  4> sf true
|  5> end
|  6> *xyz 0 3
|  7> O   3.22866886 0.91916831 -0.31787232
|  8> O   -1.07659084 0.86652727 -2.57608419
|  9> O   0.65971725 -2.65445109 -1.05929293
| 10> O   -3.25096975 -1.67458839 0.37392026
| 11> N   0.19157824 -1.42148529 0.85125944
| 12> N   -2.14126128 0.20611017 1.16797909
| 13> N   1.88664171 -0.80065621 -0.66270542
| 14> N   -1.81327015 -0.48863594 -1.00502122
| 15> C   1.58378198 0.49505968 1.34736552
| 16> C   -0.56386308 1.4062556 -0.32386861
| 17> C   0.27404971 -0.1260858 1.5264727
| 18> C   -0.90995892 0.94660404 1.02464311
| 19> C   2.15639144 1.41787867 2.32274794
| 20> C   0.27114857 2.60875587 -0.55687354
| 21> C   2.30363052 0.25298787 0.11926273
| 22> C   -1.13485917 0.59638818 -1.40658226
| 23> C   0.91441609 -1.66865879 -0.38625257
| 24> C   -2.45772528 -0.76888525 0.23237379
| 25> H   0.01850302 -0.19659104 2.58963763
| 26> H   -1.01441849 1.79889693 1.66783648
| 27> H   3.03571814 0.91307082 2.74791858
| 28> H   2.41477864 2.31349718 1.73547679
| 29> H   1.47596609 1.64367513 3.16112793
| 30> H   0.60191951 2.642745 -1.5878376
| 31> H   -0.3959583 3.41942593 -0.2951232
| 32> H   1.17523451 2.61038594 -0.02305449
| 33> H   -0.72654776 -1.81309261 0.94062673
| 34> H   -2.80637819 0.43363638 1.83581132
| 35> H   2.23041764 -0.86068582 -1.58812744
| 36> H   -1.97939707 -1.25401799 -1.71305422
| 37> *
| 38>
| 39>                          ****END OF INPUT****

CARTESIAN COORDINATES (ANGSTROEM)
---------------------------------
  O      3.228669    0.919168   -0.317872
  O     -1.076591    0.866527   -2.576084
  O      0.659717   -2.654451   -1.059293
  O     -3.250970   -1.674588    0.373920
  N      0.191578   -1.421485    0.851259
  N     -2.141261    0.206110    1.167979
  N      1.886642   -0.800656   -0.662705
  N     -1.813270   -0.488636   -1.005021
  C      1.583782    0.495060    1.347366
  C     -0.563863    1.406256   -0.323869
  C      0.274050   -0.126086    1.526473
  C     -0.909959    0.946604    1.024643
  C      2.156391    1.417879    2.322748
  C      0.271149    2.608756   -0.556874
  C      2.303631    0.252988    0.119263
  C     -1.134859    0.596388   -1.406582
  C      0.914416   -1.668659   -0.386253
  C     -2.457725   -0.768885    0.232374
  H      0.018503   -0.196591    2.589638
  H     -1.014418    1.798897    1.667836
  H      3.035718    0.913071    2.747919
  H      2.414779    2.313497    1.735477
  H      1.475966    1.643675    3.161128
  H      0.601920    2.642745   -1.587838
  H     -0.395958    3.419426   -0.295123
  H      1.175235    2.610386   -0.023054
  H     -0.726548   -1.813093    0.940627
  H     -2.806378    0.433636    1.835811
  H      2.230418   -0.860686   -1.588127
  H     -1.979397   -1.254018   -1.713054

 Total Charge           Charge          ....    0
 Multiplicity           Mult            ....    3
 Number of Electrons    NEL             ....  132
 Basis Dimension        Dim             ....  882

ORBITAL ENERGIES
----------------
                 SPIN UP ORBITALS
  NO   OCC          E(Eh)            E(eV)
   0   1.0000     -19.338067      -526.2156
   1   1.0000     -19.337295      -526.1946
   2   1.0000     -19.323534      -525.8201
   3   1.0000     -19.323209      -525.8113
   4   1.0000     -14.569410      -396.4538
   5   1.0000     -14.563657      -396.2972
   6   1.0000     -14.560111      -396.2008
   7   1.0000     -14.554919      -396.0595
   8   1.0000     -10.517645      -286.1997
   9   1.0000     -10.509644      -285.9820
  10   1.0000     -10.485397      -285.3222
  11   1.0000     -10.471136      -284.9341
  12   1.0000     -10.444269      -284.2030
  13   1.0000     -10.442683      -284.1599
  14   1.0000     -10.416834      -283.4565
  15   1.0000     -10.409466      -283.2560
  16   1.0000     -10.382713      -282.5280
  17   1.0000     -10.366302      -282.0814
  18   1.0000      -1.227012       -33.3887
  19   1.0000      -1.222898       -33.2768
  20   1.0000      -1.201708       -32.7001
  21   1.0000      -1.196762       -32.5655
  22   1.0000      -1.123629       -30.5755
  23   1.0000      -1.102775       -30.0080
  24   1.0000      -1.065308       -28.9885
  25   1.0000      -1.056648       -28.7529
  26   1.0000      -0.987121       -26.8609
  27   1.0000      -0.961218       -26.1561
  28   1.0000      -0.883200       -24.0331
  29   1.0000      -0.848503       -23.0889
  30   1.0000      -0.830036       -22.5864
  31   1.0000      -0.801890       -21.8205
  32   1.0000      -0.796197       -21.6656
  33   1.0000      -0.791175       -21.5290
  34   1.0000      -0.710384       -19.3305
  35   1.0000      -0.705051       -19.1854
  36   1.0000      -0.688397       -18.7322
  37   1.0000      -0.666171       -18.1274
  38   1.0000      -0.659182       -17.9372
  39   1.0000      -0.643450       -17.5092
  40   1.0000      -0.627648       -17.0792
  41   1.0000      -0.604478       -16.4487
  42   1.0000      -0.595525       -16.2051
  43   1.0000      -0.586853       -15.9691
  44   1.0000      -0.585756       -15.9392
  45   1.0000      -0.569277       -15.4908
  46   1.0000      -0.566735       -15.4216
  47   1.0000      -0.565468       -15.3872
  48   1.0000      -0.562793       -15.3144
  49   1.0000      -0.557617       -15.1735
  50   1.0000      -0.549342       -14.9484
  51   1.0000      -0.542480       -14.7616
  52   1.0000      -0.534363       -14.5407
  53   1.0000      -0.528972       -14.3941
  54   1.0000      -0.519833       -14.1454
  55   1.0000      -0.505194       -13.7470
  56   1.0000      -0.496691       -13.5156
  57   1.0000      -0.425707       -11.5841
  58   1.0000      -0.422386       -11.4937
  59   1.0000      -0.415359       -11.3025
  60   1.0000      -0.409232       -11.1358
  61   1.0000      -0.402025       -10.9397
  62   1.0000      -0.396482       -10.7888
  63   1.0000      -0.392474       -10.6798
  64   1.0000      -0.381042       -10.3687
  65   1.0000      -0.342593        -9.3224
  66   1.0000      -0.315953        -8.5975
  67   0.0000       0.007024         0.1911
  68   0.0000       0.028569         0.7774
  69   0.0000       0.034157         0.9295
  70   0.0000       0.037600         1.0232
  71   0.0000       0.051786         1.4092

                 SPIN DOWN ORBITALS
  NO   OCC          E(Eh)            E(eV)
   0   1.0000     -19.337152      -526.1906
   1   1.0000     -19.333870      -526.1014
   2   1.0000     -19.323142      -525.8094
   3   1.0000     -19.319799      -525.7185
   4   1.0000     -14.568669      -396.4336
   5   1.0000     -14.563265      -396.2866
   6   1.0000     -14.559437      -396.1824
   7   1.0000     -14.554649      -396.0521
   8   1.0000     -10.517698      -286.2011
   9   1.0000     -10.509709      -285.9837
  10   1.0000     -10.486158      -285.3429
  11   1.0000     -10.472125      -284.9610
  12   1.0000     -10.443348      -284.1780
  13   1.0000     -10.441985      -284.1408
  14   1.0000     -10.405933      -283.1598
  15   1.0000     -10.398145      -282.9479
  16   1.0000     -10.383182      -282.5407
  17   1.0000     -10.366663      -282.0913
  18   1.0000      -1.224909       -33.3315
  19   1.0000      -1.220478       -33.2109
  20   1.0000      -1.197534       -32.5866
  21   1.0000      -1.193390       -32.4738
  22   1.0000      -1.120939       -30.5023
  23   1.0000      -1.100194       -29.9378
  24   1.0000      -1.062787       -28.9199
  25   1.0000      -1.054841       -28.7037
  26   1.0000      -0.973057       -26.4782
  27   1.0000      -0.944631       -25.7047
  28   1.0000      -0.878160       -23.8960
  29   1.0000      -0.842862       -22.9354
  30   1.0000      -0.822039       -22.3688
  31   1.0000      -0.797432       -21.6992
  32   1.0000      -0.793537       -21.5932
  33   1.0000      -0.789345       -21.4792
  34   1.0000      -0.704438       -19.1687
  35   1.0000      -0.698689       -19.0123
  36   1.0000      -0.682211       -18.5639
  37   1.0000      -0.659098       -17.9350
  38   1.0000      -0.649154       -17.6644
  39   1.0000      -0.639865       -17.4116
  40   1.0000      -0.618195       -16.8219
  41   1.0000      -0.599468       -16.3124
  42   1.0000      -0.590563       -16.0700
  43   1.0000      -0.578527       -15.7425
  44   1.0000      -0.577385       -15.7114
  45   1.0000      -0.564063       -15.3489
  46   1.0000      -0.560396       -15.2492
  47   1.0000      -0.558614       -15.2007
  48   1.0000      -0.557230       -15.1630
  49   1.0000      -0.549552       -14.9541
  50   1.0000      -0.542752       -14.7690
  51   1.0000      -0.536293       -14.5933
  52   1.0000      -0.527402       -14.3513
  53   1.0000      -0.519022       -14.1233
  54   1.0000      -0.508570       -13.8389
  55   1.0000      -0.500015       -13.6061
  56   1.0000      -0.492256       -13.3950
  57   1.0000      -0.421117       -11.4592
  58   1.0000      -0.418993       -11.4014
  59   1.0000      -0.407792       -11.0966
  60   1.0000      -0.399393       -10.8680
  61   1.0000      -0.393274       -10.7015
  62   1.0000      -0.389610       -10.6018
  63   1.0000      -0.386213       -10.5094
  64   1.0000      -0.366183        -9.9644
  65   0.0000      -0.062282        -1.6948
  66   0.0000      -0.046392        -1.2624
  67   0.0000       0.006568         0.1787
  68   0.0000       0.029069         0.7910
  69   0.0000       0.033687         0.9167

----------------------------------------------------------------------------------------------------
          SPIN FLIP ABSORPTION SPECTRUM VIA TRANSITION ELECTRIC DIPOLE MOMENTS
----------------------------------------------------------------------------------------------------
     Transition      Energy     Energy  Wavelength fosc(D2)      D2        DX        DY        DZ
                      (eV)      (cm-1)    (nm)                 (au**2)    (au)      (au)      (au)
----------------------------------------------------------------------------------------------------
  1-3A  ->  2-3A    0.068458     552.2  18111.0   0.000021791   0.01299  -0.10883   0.01008  -0.03237

Dispersion correction             ... done (  0.1 sec)

MULLIKEN ATOMIC CHARGES AND SPIN DENSITIES
------------------------------------------
   0 O :   -0.688162    0.066403
   1 O :   -0.676073   -0.055558
   2 O :   -0.652335    0.001469
   3 O :   -0.623009    0.000636
   4 N :   -0.323009    0.009434
   5 N :   -0.139447    0.000265
   6 N :    0.076968   -0.009957
   7 N :   -0.056176   -0.012692
   8 C :   -0.127168    0.326735
   9 C :    0.871900    0.331339
  10 C :    0.432378   -0.074104
  11 C :   -0.050430   -0.259886
  12 C :   -1.377817   -0.006373
  13 C :   -1.267692   -0.029639
  14 C :    0.624982   -0.032331
  15 C :    0.027178   -0.321100
  16 C :    0.353888    0.004996
  17 C :    0.400922    0.010776
  18 H :    0.495235    0.008575
  19 H :    0.503263   -0.011886
  20 H :    0.323057    0.015776
  21 H :    0.298266    0.010970
  22 H :    0.340956    0.000656
  23 H :    0.260954    0.001993
  24 H :    0.446505    0.010075
  25 H :    0.271606    0.013474
  26 H :    0.167378   -0.001940
  27 H :   -0.008046   -0.000984
  28 H :   -0.010329   -0.002237
  29 H :    0.104254    0.005112
Sum of atomic charges       :   -0.0000000

LOEWDIN ATOMIC CHARGES AND SPIN DENSITIES
-----------------------------------------
   0 O :    0.095474    0.055561
   1 O :    0.101727   -0.049160
   2 O :    0.087884    0.001148
   3 O :    0.101532    0.000430
   4 N :    0.299780   -0.000013
   5 N :    0.297419    0.001350
   6 N :    0.340743   -0.002558
   7 N :    0.291992   -0.012660
   8 C :   -0.079658    0.198992
   9 C :   -0.009604   -0.184538
  10 C :   -0.082120   -0.000734
  11 C :   -0.074566   -0.006451
  12 C :    0.188160    0.030667
  13 C :    0.227775   -0.027868
  14 C :   -0.408054    0.030715
  15 C :   -0.466613   -0.036284
  16 C :   -0.446710   -0.000880
  17 C :   -0.464303   -0.000047
  18 H :    0.052030   -0.000929
  19 H :    0.047370   -0.001219
  20 H :    0.023933    0.011078
  21 H :    0.006869    0.007155
  22 H :    0.014081    0.000054
  23 H :    0.015019    0.000641
  24 H :    0.013287   -0.010210
  25 H :   -0.054185   -0.003841
  26 H :   -0.081692    0.000255
  27 H :   -0.071695    0.000036
  28 H :   -0.013203   -0.000071
  29 H :    0.047325   -0.000617

  Mayer bond orders larger than 0.100000
B(  0-O , 14-C ) :   1.3559 B(  1-O , 15-C ) :   1.4068 B(  2-O , 16-C ) :   1.5525
B(  3-O , 17-C ) :   1.6330 B(  4-N ,  8-C ) :   0.3185 B(  4-N , 10-C ) :   0.2747
B(  4-N , 16-C ) :   0.9802 B(  4-N , 18-H ) :  -0.1246 B(  4-N , 26-H ) :   0.9069
B(  5-N , 11-C ) :   0.5144 B(  5-N , 17-C ) :   1.0650 B(  5-N , 27-H ) :   1.1278
B(  6-N , 14-C ) :   1.0443 B(  6-N , 16-C ) :   0.9410 B(  6-N , 28-H ) :   1.1325
B(  7-N ,  9-C ) :  -0.1496 B(  7-N , 10-C ) :  -0.1000 B(  7-N , 11-C ) :   0.1973
B(  7-N , 15-C ) :   1.0569 B(  7-N , 17-C ) :   0.9202 B(  7-N , 29-H ) :   1.0689
B(  8-C , 10-C ) :   0.1930 B(  8-C , 11-C ) :   0.2541 B(  8-C , 12-C ) :   0.5751
B(  8-C , 14-C ) :   0.7400 B(  8-C , 16-C ) :   0.1833 B(  8-C , 18-H ) :  -0.1596
B(  8-C , 22-H ) :  -0.1191 B(  9-C , 10-C ) :   0.1303 B(  9-C , 11-C ) :   0.3824
B(  9-C , 13-C ) :   0.6216 B(  9-C , 15-C ) :   0.4683 B(  9-C , 19-H ) :  -0.1123
B(  9-C , 23-H ) :  -0.1138 B( 10-C , 11-C ) :   0.6934 B( 10-C , 12-C ) :  -0.1035
B( 10-C , 16-C ) :  -0.1986 B( 10-C , 18-H ) :   0.8658 B( 11-C , 19-H ) :   0.7606
B( 12-C , 20-H ) :   0.9201 B( 12-C , 21-H ) :   0.8823 B( 12-C , 22-H ) :   1.0024
B( 13-C , 23-H ) :   1.1591 B( 13-C , 24-H ) :   0.7918 B( 13-C , 25-H ) :   0.7905

Dispersion correction           -0.061687277
FINAL SINGLE POINT ENERGY      -908.767466127567

DIPOLE MOMENT
-------------

Method             : TDA/CIS
Type of density    : Electron Density
Level              : Relaxed density
State              :   2
Multiplicity       :   3
Irrep              :   0
Energy             :     0.0000000000000000 Eh
Relativity type    :
Basis              : AO
                                X                 Y                 Z
Electronic contribution:     -3.768203806      -9.178143411      -6.156918696
Nuclear contribution   :      3.762739521      10.971365465       8.653100677
                        -----------------------------------------
Total Dipole Moment    :     -0.005464285       1.793222054       2.496181981
                        -----------------------------------------
Magnitude (a.u.)       :      3.073532117
Magnitude (Debye)      :      7.812297787

Rotational constants in cm-1:             0.021471             0.013635             0.013000
Rotational constants in MHz :           643.675951           408.778670           389.739666

                             ****ORCA TERMINATED NORMALLY****
TOTAL RUN TIME: 0 days 0 hours 4 minutes 34 seconds 83 msec
