                         Program Version 6.0.0  -   RELEASE  -
|  1> ! Engrad def2-TZVPPD wB97M-D3BJ
|  2> %pal nprocs 8 end%pal nprocs 32 end
|  3>  %tddft nroots 2 Iroot 1
|  4> sf true
|  5> end
|  6> *xyz 0 3
|  7> O   2.92208578662245 1.25217806829608 -0.5020641956436
|  8> O   -0.53799634157908 0.42658179196274 -1.84925283212584
|  9> O   1.41978358425086 -2.83324731364303 -1.81397203242583
| 10> O   -3.09280884373844 -1.3645109668443 1.43954049548164
| 11> N   0.79592721190645 -2.03813269187284 0.22608691993804
| 12> N   -2.37556473112106 0.78751177144744 1.66372841896123
| 13> N   2.21454638321221 -0.81134542001938 -1.10888447785475
| 14> N   -1.91583245847588 -0.38917022364442 -0.25419305123655
| 15> C   1.51450846813542 0.09089254077858 1.01302078520651
| 16> C   -0.98894388531299 1.82005139064742 0.02169033827162
| 17> C   0.83310008925137 -1.04951115999997 1.1789702359491
| 18> C   -1.65670338263799 1.86092547292703 1.17883420976286
| 19> C   1.61257052923412 1.15989853880238 2.05293428565064
| 20> C   -0.18106074567645 2.95494600050344 -0.52012745429553
| 21> C   2.27184957792073 0.26411220510156 -0.23011092270225
| 22> C   -1.09541419940265 0.60593483470335 -0.78850428314481
| 23> C   1.47044266764146 -1.96323045820741 -0.97713106254733
| 24> C   -2.51190300726511 -0.40227827149626 0.98611151051305
| 25> H   0.26294422790688 -1.25456207256586 2.07322028786359
| 26> H   -1.64169354591879 2.7292806291765 1.81972912698417
| 27> H   1.3430766565868 2.128490426308 1.639683069392
| 28> H   0.95786618099321 0.93959282261673 2.89351546052789
| 29> H   2.6344225193211 1.24568940554361 2.41874099418346
| 30> H   -0.55903034853271 3.26054062665816 -1.49382656864752
| 31> H   -0.21653192812655 3.80789633271868 0.15403731806337
| 32> H   0.85751239092342 2.66123948651745 -0.65981824933807
| 33> H   0.26104394463705 -2.8751932581608 0.37176267644944
| 34> H   -2.83069450214384 0.82993594709802 2.55730990168477
| 35> H   2.67557154099655 -0.68984816383762 -1.99657261130696
| 36> H   -1.99047383960854 -1.23966829151537 -0.78985829361438
| 37> *
| 38>
| 39>                          ****END OF INPUT****

CARTESIAN COORDINATES (ANGSTROEM)
---------------------------------
  O      2.922086    1.252178   -0.502064
  O     -0.537996    0.426582   -1.849253
  O      1.419784   -2.833247   -1.813972
  O     -3.092809   -1.364511    1.439540
  N      0.795927   -2.038133    0.226087
  N     -2.375565    0.787512    1.663728
  N      2.214546   -0.811345   -1.108884
  N     -1.915832   -0.389170   -0.254193
  C      1.514508    0.090893    1.013021
  C     -0.988944    1.820051    0.021690
  C      0.833100   -1.049511    1.178970
  C     -1.656703    1.860925    1.178834
  C      1.612571    1.159899    2.052934
  C     -0.181061    2.954946   -0.520127
  C      2.271850    0.264112   -0.230111
  C     -1.095414    0.605935   -0.788504
  C      1.470443   -1.963230   -0.977131
  C     -2.511903   -0.402278    0.986112
  H      0.262944   -1.254562    2.073220
  H     -1.641694    2.729281    1.819729
  H      1.343077    2.128490    1.639683
  H      0.957866    0.939593    2.893515
  H      2.634423    1.245689    2.418741
  H     -0.559030    3.260541   -1.493827
  H     -0.216532    3.807896    0.154037
  H      0.857512    2.661239   -0.659818
  H      0.261044   -2.875193    0.371763
  H     -2.830695    0.829936    2.557310
  H      2.675572   -0.689848   -1.996573
  H     -1.990474   -1.239668   -0.789858

 Total Charge           Charge          ....    0
 Multiplicity           Mult            ....    3
 Number of Electrons    NEL             ....  132
 Basis Dimension        Dim             ....  882

ORBITAL ENERGIES
----------------
                 SPIN UP ORBITALS
  NO   OCC          E(Eh)            E(eV)
   0   1.0000     -19.328297      -525.9497
   1   1.0000     -19.327986      -525.9412
   2   1.0000     -19.326129      -525.8907
   3   1.0000     -19.315482      -525.6010
   4   1.0000     -14.592590      -397.0846
   5   1.0000     -14.586021      -396.9058
   6   1.0000     -14.571985      -396.5239
   7   1.0000     -14.545353      -395.7992
   8   1.0000     -10.515073      -286.1297
   9   1.0000     -10.505690      -285.8743
  10   1.0000     -10.481273      -285.2099
  11   1.0000     -10.454393      -284.4785
  12   1.0000     -10.434918      -283.9486
  13   1.0000     -10.405527      -283.1488
  14   1.0000     -10.395110      -282.8653
  15   1.0000     -10.382723      -282.5282
  16   1.0000     -10.368874      -282.1514
  17   1.0000     -10.352850      -281.7154
  18   1.0000      -1.228033       -33.4165
  19   1.0000      -1.221875       -33.2489
  20   1.0000      -1.196412       -32.5560
  21   1.0000      -1.185865       -32.2690
  22   1.0000      -1.124606       -30.6021
  23   1.0000      -1.122555       -30.5463
  24   1.0000      -1.071961       -29.1695
  25   1.0000      -1.056952       -28.7611
  26   1.0000      -0.973887       -26.5008
  27   1.0000      -0.958885       -26.0926
  28   1.0000      -0.856215       -23.2988
  29   1.0000      -0.848889       -23.0995
  30   1.0000      -0.813128       -22.1263
  31   1.0000      -0.807387       -21.9701
  32   1.0000      -0.796335       -21.6694
  33   1.0000      -0.786738       -21.4082
  34   1.0000      -0.700046       -19.0492
  35   1.0000      -0.697700       -18.9854
  36   1.0000      -0.694242       -18.8913
  37   1.0000      -0.688874       -18.7452
  38   1.0000      -0.644296       -17.5322
  39   1.0000      -0.635658       -17.2971
  40   1.0000      -0.628313       -17.0973
  41   1.0000      -0.607050       -16.5187
  42   1.0000      -0.599446       -16.3117
  43   1.0000      -0.591390       -16.0925
  44   1.0000      -0.572390       -15.5755
  45   1.0000      -0.567905       -15.4535
  46   1.0000      -0.566580       -15.4174
  47   1.0000      -0.553263       -15.0550
  48   1.0000      -0.549715       -14.9585
  49   1.0000      -0.541976       -14.7479
  50   1.0000      -0.529629       -14.4119
  51   1.0000      -0.526009       -14.3134
  52   1.0000      -0.521033       -14.1780
  53   1.0000      -0.516862       -14.0645
  54   1.0000      -0.508083       -13.8256
  55   1.0000      -0.500574       -13.6213
  56   1.0000      -0.490739       -13.3537
  57   1.0000      -0.479194       -13.0395
  58   1.0000      -0.421044       -11.4572
  59   1.0000      -0.415503       -11.3064
  60   1.0000      -0.408008       -11.1025
  61   1.0000      -0.396319       -10.7844
  62   1.0000      -0.389902       -10.6098
  63   1.0000      -0.386227       -10.5098
  64   1.0000      -0.383113       -10.4250
  65   1.0000      -0.348403        -9.4805
  66   1.0000      -0.206604        -5.6220
  67   0.0000       0.011156         0.3036
  68   0.0000       0.018987         0.5167
  69   0.0000       0.028235         0.7683
  70   0.0000       0.038057         1.0356
  71   0.0000       0.042124         1.1463

                 SPIN DOWN ORBITALS
  NO   OCC          E(Eh)            E(eV)
   0   1.0000     -19.328273      -525.9491
   1   1.0000     -19.326116      -525.8904
   2   1.0000     -19.325981      -525.8867
   3   1.0000     -19.309432      -525.4364
   4   1.0000     -14.587288      -396.9403
   5   1.0000     -14.585891      -396.9023
   6   1.0000     -14.571940      -396.5226
   7   1.0000     -14.544485      -395.7756
   8   1.0000     -10.515067      -286.1295
   9   1.0000     -10.506145      -285.8867
  10   1.0000     -10.481257      -285.2095
  11   1.0000     -10.454056      -284.4693
  12   1.0000     -10.434648      -283.9412
  13   1.0000     -10.395980      -282.8890
  14   1.0000     -10.384889      -282.5872
  15   1.0000     -10.382776      -282.5297
  16   1.0000     -10.369361      -282.1646
  17   1.0000     -10.352836      -281.7150
  18   1.0000      -1.227880       -33.4123
  19   1.0000      -1.217446       -33.1284
  20   1.0000      -1.196347       -32.5543
  21   1.0000      -1.176828       -32.0231
  22   1.0000      -1.124323       -30.5944
  23   1.0000      -1.111412       -30.2431
  24   1.0000      -1.071784       -29.1647
  25   1.0000      -1.051566       -28.6146
  26   1.0000      -0.960576       -26.1386
  27   1.0000      -0.948022       -25.7970
  28   1.0000      -0.848829       -23.0978
  29   1.0000      -0.844971       -22.9928
  30   1.0000      -0.812825       -22.1181
  31   1.0000      -0.797166       -21.6920
  32   1.0000      -0.795550       -21.6480
  33   1.0000      -0.779835       -21.2204
  34   1.0000      -0.697476       -18.9793
  35   1.0000      -0.694335       -18.8938
  36   1.0000      -0.688097       -18.7241
  37   1.0000      -0.680633       -18.5210
  38   1.0000      -0.643990       -17.5239
  39   1.0000      -0.627073       -17.0635
  40   1.0000      -0.620886       -16.8952
  41   1.0000      -0.600254       -16.3337
  42   1.0000      -0.593667       -16.1545
  43   1.0000      -0.582857       -15.8603
  44   1.0000      -0.568295       -15.4641
  45   1.0000      -0.560985       -15.2652
  46   1.0000      -0.558826       -15.2064
  47   1.0000      -0.552344       -15.0300
  48   1.0000      -0.542657       -14.7665
  49   1.0000      -0.536552       -14.6003
  50   1.0000      -0.521070       -14.1790
  51   1.0000      -0.519187       -14.1278
  52   1.0000      -0.515418       -14.0252
  53   1.0000      -0.505599       -13.7581
  54   1.0000      -0.502074       -13.6621
  55   1.0000      -0.497185       -13.5291
  56   1.0000      -0.478490       -13.0204
  57   1.0000      -0.445646       -12.1266
  58   1.0000      -0.420794       -11.4504
  59   1.0000      -0.411226       -11.1900
  60   1.0000      -0.403525       -10.9805
  61   1.0000      -0.389725       -10.6049
  62   1.0000      -0.375596       -10.2205
  63   1.0000      -0.374046       -10.1783
  64   1.0000      -0.348736        -9.4896
  65   0.0000      -0.104725        -2.8497
  66   0.0000       0.010771         0.2931
  67   0.0000       0.020421         0.5557
  68   0.0000       0.026715         0.7269
  69   0.0000       0.035594         0.9686

----------------------------------------------------------------------------------------------------
          SPIN FLIP ABSORPTION SPECTRUM VIA TRANSITION ELECTRIC DIPOLE MOMENTS
----------------------------------------------------------------------------------------------------
     Transition      Energy     Energy  Wavelength fosc(D2)      D2        DX        DY        DZ
                      (eV)      (cm-1)    (nm)                 (au**2)    (au)      (au)      (au)
----------------------------------------------------------------------------------------------------
  1-3A  ->  2-3A    4.244710   34235.9   292.1   0.001737900   0.01671   0.05953   0.09543  -0.06373

Dispersion correction             ... done (  0.0 sec)

MULLIKEN ATOMIC CHARGES AND SPIN DENSITIES
------------------------------------------
   0 O :   -0.694162    0.032478
   1 O :   -0.661419   -0.000044
   2 O :   -0.650802    0.008110
   3 O :   -0.666170    0.000162
   4 N :   -0.021743    0.054062
   5 N :   -0.022688    0.000867
   6 N :    0.003091    0.001646
   7 N :   -0.012844   -0.004283
   8 C :    1.140868    0.491075
   9 C :    0.509192   -0.008119
  10 C :   -0.334281   -0.439890
  11 C :    0.128092   -0.016355
  12 C :   -1.493429   -0.014420
  13 C :   -1.376771    0.018651
  14 C :    0.269986   -0.211547
  15 C :    0.503170    0.010227
  16 C :    0.530644    0.019815
  17 C :    0.478317   -0.002285
  18 H :    0.252497    0.047925
  19 H :    0.167786   -0.000780
  20 H :    0.214441    0.002550
  21 H :    0.314637    0.012028
  22 H :    0.409335    0.004416
  23 H :    0.372754    0.000637
  24 H :    0.320131    0.000701
  25 H :    0.196673   -0.006316
  26 H :    0.027938   -0.001977
  27 H :    0.018470   -0.000128
  28 H :    0.029972    0.002896
  29 H :    0.046315   -0.002100
Sum of atomic charges       :    0.0000000

LOEWDIN ATOMIC CHARGES AND SPIN DENSITIES
-----------------------------------------
   0 O :    0.076396    0.029129
   1 O :    0.104618    0.000786
   2 O :    0.094079    0.006739
   3 O :    0.075115    0.000010
   4 N :    0.293789    0.024956
   5 N :    0.280808    0.000059
   6 N :    0.340517   -0.000326
   7 N :    0.333277   -0.001000
   8 C :   -0.137345   -0.034656
   9 C :   -0.145875   -0.000482
  10 C :    0.050102   -0.031782
  11 C :    0.052089   -0.001193
  12 C :    0.176369   -0.003397
  13 C :    0.183908    0.000204
  14 C :   -0.410592    0.010538
  15 C :   -0.397169   -0.000499
  16 C :   -0.470539    0.000801
  17 C :   -0.489492   -0.000231
  18 H :    0.039331   -0.002125
  19 H :    0.037812   -0.000060
  20 H :   -0.018662   -0.000155
  21 H :   -0.005303    0.000308
  22 H :    0.004531   -0.000337
  23 H :    0.004200    0.000023
  24 H :   -0.002793    0.000012
  25 H :   -0.020930    0.000151
  26 H :   -0.015406    0.002370
  27 H :   -0.021806    0.000011
  28 H :   -0.003367    0.000208
  29 H :   -0.007661   -0.000063

  Mayer bond orders larger than 0.100000
B(  0-O , 14-C ) :   1.4135 B(  1-O , 15-C ) :   1.4346 B(  2-O , 16-C ) :   1.5582
B(  3-O , 17-C ) :   1.5503 B(  4-N , 10-C ) :   0.9446 B(  4-N , 16-C ) :   0.9975
B(  4-N , 26-H ) :   1.1492 B(  5-N , 11-C ) :   0.9649 B(  5-N , 17-C ) :   1.0435
B(  5-N , 27-H ) :   1.1476 B(  6-N , 14-C ) :   1.0204 B(  6-N , 16-C ) :   0.9908
B(  6-N , 28-H ) :   1.0987 B(  7-N , 15-C ) :   1.0258 B(  7-N , 17-C ) :   0.9575
B(  7-N , 29-H ) :   1.1029 B(  8-C , 10-C ) :   0.9657 B(  8-C , 12-C ) :   0.2868
B(  8-C , 14-C ) :   0.5681 B(  8-C , 18-H ) :  -0.1295 B(  9-C , 11-C ) :   1.1576
B(  9-C , 13-C ) :   0.3523 B(  9-C , 15-C ) :   0.8681 B(  9-C , 24-H ) :  -0.1018
B(  9-C , 25-H ) :  -0.1019 B( 10-C , 12-C ) :  -0.1489 B( 10-C , 18-H ) :   1.1123
B( 11-C , 13-C ) :  -0.1896 B( 11-C , 19-H ) :   1.0687 B( 12-C , 20-H ) :   1.0467
B( 12-C , 21-H ) :   1.0188 B( 12-C , 22-H ) :   0.8488 B( 13-C , 23-H ) :   0.8950
B( 13-C , 24-H ) :   1.0665 B( 13-C , 25-H ) :   0.9758

Dispersion correction           -0.057543457
FINAL SINGLE POINT ENERGY      -908.924573881964

DIPOLE MOMENT
-------------

Method             : TDA/CIS
Type of density    : Electron Density
Level              : Relaxed density
State              :   1
Multiplicity       :   3
Irrep              :   0
Energy             :     0.0000000000000000 Eh
Relativity type    :
Basis              : AO
                                X                 Y                 Z
Electronic contribution:     -2.101031172      -9.832354116      -5.343924396
Nuclear contribution   :      1.179794000      10.726799940       7.502019916
                        -----------------------------------------
Total Dipole Moment    :     -0.921237172       0.894445824       2.158095520
                        -----------------------------------------
Magnitude (a.u.)       :      2.511192452
Magnitude (Debye)      :      6.382943952

Rotational constants in cm-1:             0.019604             0.013528             0.010975
Rotational constants in MHz :           587.716248           405.571004           329.009364

                             ****ORCA TERMINATED NORMALLY****
TOTAL RUN TIME: 0 days 0 hours 35 minutes 42 seconds 167 msec
