                         Program Version 6.0.0  -   RELEASE  -
|  1> ! Engrad def2-TZVPPD wB97M-D3BJ
|  2> %pal nprocs 8 end%pal nprocs 32 end
|  3> %tddft Nroots 2 Iroot 1
|  4> sf true
|  5> end
|  6> *xyz 0 3
|  7> O   0.18942711 0.92064988 0.00064435
|  8> C   0.65998951 -0.35909048 -0.00216171
|  9> C   -0.73903383 -0.62530428 0.00117426
| 10> H   1.22356977 -0.63025121 0.89244797
| 11> H   1.23011019 -0.63623742 -0.90086649
| 12> H   -1.27489064 -0.68061625 -0.9191622
| 13> H   -1.26884888 -0.67377609 0.93068215
| 14> *
| 15>
| 16>                          ****END OF INPUT****

CARTESIAN COORDINATES (ANGSTROEM)
---------------------------------
  O      0.189427    0.920650    0.000644
  C      0.659990   -0.359090   -0.002162
  C     -0.739034   -0.625304    0.001174
  H      1.223570   -0.630251    0.892448
  H      1.230110   -0.636237   -0.900866
  H     -1.274891   -0.680616   -0.919162
  H     -1.268849   -0.673776    0.930682

 Total Charge           Charge          ....    0
 Multiplicity           Mult            ....    3
 Number of Electrons    NEL             ....   24
 Basis Dimension        Dim             ....  182

ORBITAL ENERGIES
----------------
                 SPIN UP ORBITALS
  NO   OCC          E(Eh)            E(eV)
   0   1.0000     -19.422325      -528.5083
   1   1.0000     -10.409945      -283.2690
   2   1.0000     -10.334286      -281.2102
   3   1.0000      -1.228346       -33.4250
   4   1.0000      -0.860416       -23.4131
   5   1.0000      -0.748495       -20.3676
   6   1.0000      -0.652497       -17.7554
   7   1.0000      -0.615920       -16.7600
   8   1.0000      -0.546146       -14.8614
   9   1.0000      -0.502999       -13.6873
  10   1.0000      -0.467048       -12.7090
  11   1.0000      -0.451686       -12.2910
  12   1.0000      -0.234196        -6.3728
  13   0.0000       0.040224         1.0946
  14   0.0000       0.063389         1.7249
  15   0.0000       0.072542         1.9740
  16   0.0000       0.085568         2.3284
  17   0.0000       0.114636         3.1194

                 SPIN DOWN ORBITALS
  NO   OCC          E(Eh)            E(eV)
   0   1.0000     -19.391505      -527.6697
   1   1.0000     -10.410912      -283.2953
   2   1.0000     -10.322134      -280.8796
   3   1.0000      -1.163697       -31.6658
   4   1.0000      -0.825730       -22.4693
   5   1.0000      -0.728871       -19.8336
   6   1.0000      -0.607214       -16.5231
   7   1.0000      -0.579267       -15.7627
   8   1.0000      -0.518591       -14.1116
   9   1.0000      -0.474349       -12.9077
  10   1.0000      -0.402001       -10.9390
  11   0.0000      -0.083044        -2.2597
  12   0.0000       0.037606         1.0233
  13   0.0000       0.048291         1.3141
  14   0.0000       0.062569         1.7026
  15   0.0000       0.070075         1.9068

----------------------------------------------------------------------------------------------------
          SPIN FLIP ABSORPTION SPECTRUM VIA TRANSITION ELECTRIC DIPOLE MOMENTS
----------------------------------------------------------------------------------------------------
     Transition      Energy     Energy  Wavelength fosc(D2)      D2        DX        DY        DZ
                      (eV)      (cm-1)    (nm)                 (au**2)    (au)      (au)      (au)
----------------------------------------------------------------------------------------------------
  1-3A  ->  2-3A    3.709394   29918.3   334.2   0.001813601   0.01996  -0.00304  -0.00461  -0.14116

Dispersion correction             ... done (  0.1 sec)

MULLIKEN ATOMIC CHARGES AND SPIN DENSITIES
------------------------------------------
   0 O :   -0.465252   -0.011886
   1 C :   -0.135533   -0.067910
   2 C :   -0.357817   -0.004087
   3 H :    0.219441    0.029436
   4 H :    0.222020    0.029423
   5 H :    0.258957    0.012635
   6 H :    0.258185    0.012390
Sum of atomic charges       :    0.0000000

LOEWDIN ATOMIC CHARGES AND SPIN DENSITIES
-----------------------------------------
   0 O :   -0.070392   -0.048269
   1 C :   -0.263737   -0.009101
   2 C :    0.288537    0.044585
   3 H :    0.025675    0.004799
   4 H :    0.032051    0.004549
   5 H :   -0.008051    0.001753
   6 H :   -0.004082    0.001684

  Mayer bond orders larger than 0.100000
B(  0-O ,  1-C ) :   0.7322 B(  0-O ,  2-C ) :   0.9133 B(  1-C ,  2-C ) :   0.7924
B(  1-C ,  3-H ) :   1.0337 B(  1-C ,  4-H ) :   1.0271 B(  2-C ,  5-H ) :   0.9296
B(  2-C ,  6-H ) :   0.9309

Dispersion correction           -0.005384728
FINAL SINGLE POINT ENERGY      -153.831496302100

DIPOLE MOMENT
-------------

Method             : TDA/CIS
Type of density    : Electron Density
Level              : Relaxed density
State              :   1
Multiplicity       :   3
Irrep              :   0
Energy             :     0.0000000000000000 Eh
Relativity type    :
Basis              : AO
                                X                 Y                 Z
Electronic contribution:     -0.054728474       1.229307368      -0.000489395
Nuclear contribution   :     -0.251918378      -2.467816194       0.002784527
                        -----------------------------------------
Total Dipole Moment    :     -0.306646851      -1.238508825       0.002295131
                        -----------------------------------------
Magnitude (a.u.)       :      1.275908174
Magnitude (Debye)      :      3.243100846

Rotational constants in cm-1:             0.960197             0.576458             0.420295
Rotational constants in MHz :         28785.979770         17281.768743         12600.117872

                             ****ORCA TERMINATED NORMALLY****
TOTAL RUN TIME: 0 days 0 hours 0 minutes 18 seconds 12 msec
