                         Program Version 6.0.0  -   RELEASE  -
|  1> ! Engrad def2-TZVPPD wB97M-D3BJ
|  2> %pal nprocs 8 end%pal nprocs 64 end
|  3> %tddft
|  4>  Iroot 2 Nroots 3
|  5> sf true
|  6> end
|  7> *xyz 0 3
|  8> O   0.65459883 0.95522349 -0.62493581
|  9> C   0.87976728 -0.11552208 0.22028219
| 10> C   -0.36878182 -0.71923497 0.68276207
| 11> H   1.47820356 0.35664373 1.00300088
| 12> H   1.3063948 -0.94093595 -0.29394713
| 13> H   -0.61736171 -0.34686537 1.61028689
| 14> H   -1.07146365 -1.32470898 -0.02507111
| 15> *
| 16>
| 17>                          ****END OF INPUT****

CARTESIAN COORDINATES (ANGSTROEM)
---------------------------------
  O      0.654599    0.955223   -0.624936
  C      0.879767   -0.115522    0.220282
  C     -0.368782   -0.719235    0.682762
  H      1.478204    0.356644    1.003001
  H      1.306395   -0.940936   -0.293947
  H     -0.617362   -0.346865    1.610287
  H     -1.071464   -1.324709   -0.025071

 Total Charge           Charge          ....    0
 Multiplicity           Mult            ....    3
 Number of Electrons    NEL             ....   24
 Basis Dimension        Dim             ....  182

ORBITAL ENERGIES
----------------
                 SPIN UP ORBITALS
  NO   OCC          E(Eh)            E(eV)
   0   1.0000     -19.387029      -527.5479
   1   1.0000     -10.402723      -283.0725
   2   1.0000     -10.367121      -282.1037
   3   1.0000      -1.166037       -31.7295
   4   1.0000      -0.887165       -24.1410
   5   1.0000      -0.727277       -19.7902
   6   1.0000      -0.639979       -17.4147
   7   1.0000      -0.571099       -15.5404
   8   1.0000      -0.548288       -14.9197
   9   1.0000      -0.525952       -14.3119
  10   1.0000      -0.437899       -11.9158
  11   1.0000      -0.408898       -11.1267
  12   1.0000      -0.329156        -8.9568
  13   0.0000       0.041451         1.1279
  14   0.0000       0.061841         1.6828
  15   0.0000       0.073500         2.0000
  16   0.0000       0.089154         2.4260
  17   0.0000       0.115478         3.1423

                 SPIN DOWN ORBITALS
  NO   OCC          E(Eh)            E(eV)
   0   1.0000     -19.361840      -526.8625
   1   1.0000     -10.403915      -283.1049
   2   1.0000     -10.353886      -281.7436
   3   1.0000      -1.109444       -30.1895
   4   1.0000      -0.853257       -23.2183
   5   1.0000      -0.700875       -19.0718
   6   1.0000      -0.612748       -16.6737
   7   1.0000      -0.534838       -14.5537
   8   1.0000      -0.527219       -14.3463
   9   1.0000      -0.487868       -13.2756
  10   1.0000      -0.377350       -10.2682
  11   0.0000      -0.053149        -1.4463
  12   0.0000      -0.003973        -0.1081
  13   0.0000       0.040715         1.1079
  14   0.0000       0.062817         1.7093
  15   0.0000       0.073622         2.0033

----------------------------------------------------------------------------------------------------
          SPIN FLIP ABSORPTION SPECTRUM VIA TRANSITION ELECTRIC DIPOLE MOMENTS
----------------------------------------------------------------------------------------------------
     Transition      Energy     Energy  Wavelength fosc(D2)      D2        DX        DY        DZ
                      (eV)      (cm-1)    (nm)                 (au**2)    (au)      (au)      (au)
----------------------------------------------------------------------------------------------------
  1-3A  ->  2-3A    0.280590    2263.1  4418.7   0.000019534   0.00284  -0.00486  -0.04059  -0.03421
  1-3A  ->  3-1A    1.165672    9401.8  1063.6   0.017266257   0.60459  -0.32618  -0.53578   0.45950

Dispersion correction             ... done (  0.2 sec)

MULLIKEN ATOMIC CHARGES AND SPIN DENSITIES
------------------------------------------
   0 O :   -0.331630    0.811349
   1 C :   -0.021519    0.178984
   2 C :   -0.290025   -0.841694
   3 H :    0.215519    0.027539
   4 H :    0.186075   -0.006814
   5 H :    0.102754   -0.086511
   6 H :    0.138824   -0.082853
Sum of atomic charges       :   -0.0000000

LOEWDIN ATOMIC CHARGES AND SPIN DENSITIES
-----------------------------------------
   0 O :    0.061517    0.761836
   1 C :   -0.253804   -0.004540
   2 C :    0.284679   -0.630738
   3 H :    0.034243    0.026282
   4 H :   -0.007717    0.007638
   5 H :   -0.127059   -0.098165
   6 H :    0.008141   -0.062314

  Mayer bond orders larger than 0.100000
B(  0-O ,  1-C ) :   0.9016 B(  1-C ,  2-C ) :   0.7526 B(  1-C ,  3-H ) :   0.9729
B(  1-C ,  4-H ) :   0.9422 B(  2-C ,  5-H ) :   1.0925 B(  2-C ,  6-H ) :   1.0453

Dispersion correction           -0.005605342
FINAL SINGLE POINT ENERGY      -153.731908969181

DIPOLE MOMENT
-------------

Method             : TDA/CIS
Type of density    : Electron Density
Level              : Relaxed density
State              :   2
Multiplicity       :   3
Irrep              :   0
Energy             :     0.0000000000000000 Eh
Relativity type    :
Basis              : AO
                                X                 Y                 Z
Electronic contribution:      0.609850219       1.891517970      -1.526939852
Nuclear contribution   :     -0.477302987      -2.357337593       1.872874784
                        -----------------------------------------
Total Dipole Moment    :      0.132547233      -0.465819623       0.345934932
                        -----------------------------------------
Magnitude (a.u.)       :      0.595170285
Magnitude (Debye)      :      1.512802639

Rotational constants in cm-1:             1.395690             0.358235             0.322228
Rotational constants in MHz :         41841.732548         10739.610073          9660.138420

                             ****ORCA TERMINATED NORMALLY****
TOTAL RUN TIME: 0 days 0 hours 0 minutes 28 seconds 73 msec
