                         Program Version 6.0.0  -   RELEASE  -
|  1> ! Engrad wB97M-D3BJ def2-TZVPPD
|  2> %pal nprocs 8 end%pal nprocs 16 end
|  3> %tddft nroots 2 Iroot 1
|  4>  sf true
|  5> end
|  6> *xyz 0 3
|  7> O   0.78313929573231 1.00838830686175 -2.022855085e-05
|  8> C   0.77207896607288 -0.3303750358789 -7.832134712e-05
|  9> C   -0.64287093049032 -0.59806761955674 2.14887312e-05
| 10> H   1.26309305862482 -0.77159933553777 0.88096863115691
| 11> H   1.26293324415508 -0.77153212945332 -0.8812917598973
| 12> H   -1.20409560255148 -0.53525868568755 -0.92299412971078
| 13> H   -1.2034169324275 -0.5341401754055 0.92339431961794
| 14> *
| 15>
| 16>                          ****END OF INPUT****

CARTESIAN COORDINATES (ANGSTROEM)
---------------------------------
  O      0.783139    1.008388   -0.000020
  C      0.772079   -0.330375   -0.000078
  C     -0.642871   -0.598068    0.000021
  H      1.263093   -0.771599    0.880969
  H      1.262933   -0.771532   -0.881292
  H     -1.204096   -0.535259   -0.922994
  H     -1.203417   -0.534140    0.923394

 Total Charge           Charge          ....    0
 Multiplicity           Mult            ....    3
 Number of Electrons    NEL             ....   24
 Basis Dimension        Dim             ....  182

ORBITAL ENERGIES
----------------
                 SPIN UP ORBITALS
  NO   OCC          E(Eh)            E(eV)
   0   1.0000     -19.395942      -527.7904
   1   1.0000     -10.407063      -283.1906
   2   1.0000     -10.350614      -281.6545
   3   1.0000      -1.194003       -32.4905
   4   1.0000      -0.874696       -23.8017
   5   1.0000      -0.735600       -20.0167
   6   1.0000      -0.635200       -17.2847
   7   1.0000      -0.594686       -16.1822
   8   1.0000      -0.555406       -15.1134
   9   1.0000      -0.514495       -14.0001
  10   1.0000      -0.439664       -11.9639
  11   1.0000      -0.424023       -11.5383
  12   1.0000      -0.308853        -8.4043
  13   0.0000       0.041180         1.1206
  14   0.0000       0.063339         1.7236
  15   0.0000       0.073766         2.0073
  16   0.0000       0.086947         2.3660
  17   0.0000       0.117303         3.1920

                 SPIN DOWN ORBITALS
  NO   OCC          E(Eh)            E(eV)
   0   1.0000     -19.370022      -527.0851
   1   1.0000     -10.408375      -283.2263
   2   1.0000     -10.337781      -281.3053
   3   1.0000      -1.137575       -30.9550
   4   1.0000      -0.840972       -22.8840
   5   1.0000      -0.712009       -19.3747
   6   1.0000      -0.596143       -16.2219
   7   1.0000      -0.561232       -15.2719
   8   1.0000      -0.533455       -14.5161
   9   1.0000      -0.477542       -12.9946
  10   1.0000      -0.384171       -10.4538
  11   0.0000      -0.066019        -1.7965
  12   0.0000       0.011060         0.3010
  13   0.0000       0.040065         1.0902
  14   0.0000       0.064032         1.7424
  15   0.0000       0.073229         1.9927

----------------------------------------------------------------------------------------------------
          SPIN FLIP ABSORPTION SPECTRUM VIA TRANSITION ELECTRIC DIPOLE MOMENTS
----------------------------------------------------------------------------------------------------
     Transition      Energy     Energy  Wavelength fosc(D2)      D2        DX        DY        DZ
                      (eV)      (cm-1)    (nm)                 (au**2)    (au)      (au)      (au)
----------------------------------------------------------------------------------------------------
  1-3A  ->  2-3A    1.145619    9240.0  1082.2   0.000194189   0.00692   0.00005  -0.00004  -0.08318

Dispersion correction             ... done (  0.0 sec)

MULLIKEN ATOMIC CHARGES AND SPIN DENSITIES
------------------------------------------
   0 O :   -0.527023   -0.368018
   1 C :   -0.120941   -0.041301
   2 C :   -0.297834    0.258251
   3 H :    0.229454    0.040168
   4 H :    0.229479    0.040131
   5 H :    0.243376    0.035365
   6 H :    0.243489    0.035405
Sum of atomic charges       :   -0.0000000

LOEWDIN ATOMIC CHARGES AND SPIN DENSITIES
-----------------------------------------
   0 O :   -0.048884   -0.377392
   1 C :   -0.389594    0.019601
   2 C :    0.394459    0.280904
   3 H :    0.027923    0.007527
   4 H :    0.027943    0.007491
   5 H :   -0.005923    0.030934
   6 H :   -0.005924    0.030936

  Mayer bond orders larger than 0.100000
B(  0-O ,  1-C ) :   0.7955 B(  0-O ,  2-C ) :   0.7213 B(  1-C ,  2-C ) :   0.7653
B(  1-C ,  3-H ) :   1.0186 B(  1-C ,  4-H ) :   1.0185 B(  2-C ,  5-H ) :   0.9433
B(  2-C ,  6-H ) :   0.9433

Dispersion correction           -0.005648820
FINAL SINGLE POINT ENERGY      -153.781904250899

DIPOLE MOMENT
-------------

Method             : TDA/CIS
Type of density    : Electron Density
Level              : Relaxed density
State              :   1
Multiplicity       :   3
Irrep              :   0
Energy             :     0.0000000000000000 Eh
Relativity type    :
Basis              : AO
                                X                 Y                 Z
Electronic contribution:      0.283395537       1.266763709      -0.000136229
Nuclear contribution   :     -1.091712231      -2.636927650       0.000151411
                        -----------------------------------------
Total Dipole Moment    :     -0.808316693      -1.370163940       0.000015182
                        -----------------------------------------
Magnitude (a.u.)       :      1.590825289
Magnitude (Debye)      :      4.043556538

Rotational constants in cm-1:             1.201559             0.426133             0.358502
Rotational constants in MHz :         36021.839320         12775.160582         10747.605551

                             ****ORCA TERMINATED NORMALLY****
TOTAL RUN TIME: 0 days 0 hours 0 minutes 16 seconds 450 msec
