                         Program Version 6.0.0  -   RELEASE  -
|  1> ! Engrad def2-TZVPPD wB97M-D3BJ
|  2> %pal nprocs 8 end%pal nprocs 64 end
|  3> %tddft
|  4>  Iroot 2 Nroots 3
|  5> sf true
|  6> end
|  7> *xyz 0 3
|  8> O   -0.25257236 0.99077782 0.3594143
|  9> C   0.54195308 -0.10199786 0.5250455
| 10> C   1.02976646 -0.7623271 -0.73312651
| 11> H   -0.00414007 -0.79057687 1.30193114
| 12> H   1.36218885 0.19011359 1.12965622
| 13> H   0.71959993 -1.77417656 -0.90601194
| 14> H   1.58516367 -0.11756354 -1.4650029
| 15> *
| 16>
| 17>                          ****END OF INPUT****

CARTESIAN COORDINATES (ANGSTROEM)
---------------------------------
  O     -0.252572    0.990778    0.359414
  C      0.541953   -0.101998    0.525046
  C      1.029766   -0.762327   -0.733127
  H     -0.004140   -0.790577    1.301931
  H      1.362189    0.190114    1.129656
  H      0.719600   -1.774177   -0.906012
  H      1.585164   -0.117564   -1.465003

 Total Charge           Charge          ....    0
 Multiplicity           Mult            ....    3
 Number of Electrons    NEL             ....   24
 Basis Dimension        Dim             ....  182

ORBITAL ENERGIES
----------------
                 SPIN UP ORBITALS
  NO   OCC          E(Eh)            E(eV)
   0   1.0000     -19.385307      -527.5010
   1   1.0000     -10.414674      -283.3977
   2   1.0000     -10.373605      -282.2802
   3   1.0000      -1.168750       -31.8033
   4   1.0000      -0.872432       -23.7401
   5   1.0000      -0.735870       -20.0240
   6   1.0000      -0.612810       -16.6754
   7   1.0000      -0.583719       -15.8838
   8   1.0000      -0.549251       -14.9459
   9   1.0000      -0.524500       -14.2724
  10   1.0000      -0.428753       -11.6670
  11   1.0000      -0.410273       -11.1641
  12   1.0000      -0.329651        -8.9703
  13   0.0000       0.040674         1.1068
  14   0.0000       0.059963         1.6317
  15   0.0000       0.076350         2.0776
  16   0.0000       0.088089         2.3970
  17   0.0000       0.114002         3.1022

                 SPIN DOWN ORBITALS
  NO   OCC          E(Eh)            E(eV)
   0   1.0000     -19.361584      -526.8555
   1   1.0000     -10.415978      -283.4332
   2   1.0000     -10.360384      -281.9204
   3   1.0000      -1.115963       -30.3669
   4   1.0000      -0.839139       -22.8341
   5   1.0000      -0.708048       -19.2670
   6   1.0000      -0.581380       -15.8202
   7   1.0000      -0.550112       -14.9693
   8   1.0000      -0.527231       -14.3467
   9   1.0000      -0.489201       -13.3118
  10   1.0000      -0.380239       -10.3468
  11   0.0000      -0.052094        -1.4176
  12   0.0000      -0.003679        -0.1001
  13   0.0000       0.039751         1.0817
  14   0.0000       0.060378         1.6430
  15   0.0000       0.076254         2.0750

----------------------------------------------------------------------------------------------------
          SPIN FLIP ABSORPTION SPECTRUM VIA TRANSITION ELECTRIC DIPOLE MOMENTS
----------------------------------------------------------------------------------------------------
     Transition      Energy     Energy  Wavelength fosc(D2)      D2        DX        DY        DZ
                      (eV)      (cm-1)    (nm)                 (au**2)    (au)      (au)      (au)
----------------------------------------------------------------------------------------------------
  1-3A  ->  2-3A    0.152955    1233.7  8105.9   0.000353003   0.09420  -0.10147   0.20894   0.20062
  1-3A  ->  3-3A    0.785206    6333.1  1579.0   0.004440686   0.23084   0.23902  -0.40591  -0.09460

Dispersion correction             ... done (  0.1 sec)

MULLIKEN ATOMIC CHARGES AND SPIN DENSITIES
------------------------------------------
   0 O :   -0.342716    0.115241
   1 C :   -0.031227    0.061794
   2 C :   -0.382041   -0.116192
   3 H :    0.221543   -0.036343
   4 H :    0.161405    0.027305
   5 H :    0.185332   -0.018410
   6 H :    0.187704   -0.033395
Sum of atomic charges       :   -0.0000000

LOEWDIN ATOMIC CHARGES AND SPIN DENSITIES
-----------------------------------------
   0 O :    0.037483    0.105987
   1 C :   -0.298184   -0.000214
   2 C :    0.304861   -0.077305
   3 H :    0.064979   -0.029793
   4 H :   -0.011449    0.029636
   5 H :   -0.074845   -0.015473
   6 H :   -0.022845   -0.012839

  Mayer bond orders larger than 0.100000
B(  0-O ,  1-C ) :   0.8888 B(  0-O ,  2-C ) :   0.1511 B(  1-C ,  2-C ) :   0.7801
B(  1-C ,  3-H ) :   0.9682 B(  1-C ,  4-H ) :   0.9630 B(  2-C ,  5-H ) :   0.9889
B(  2-C ,  6-H ) :   0.9999

Dispersion correction           -0.005465366
FINAL SINGLE POINT ENERGY      -153.744051789296

DIPOLE MOMENT
-------------

Method             : TDA/CIS
Type of density    : Electron Density
Level              : Relaxed density
State              :   2
Multiplicity       :   3
Irrep              :   0
Energy             :     0.0000000000000000 Eh
Relativity type    :
Basis              : AO
                                X                 Y                 Z
Electronic contribution:     -1.277707331       1.941969700       0.255553196
Nuclear contribution   :      1.847982703      -2.576439202      -0.221110840
                        -----------------------------------------
Total Dipole Moment    :      0.570275373      -0.634469502       0.034442356
                        -----------------------------------------
Magnitude (a.u.)       :      0.853786756
Magnitude (Debye)      :      2.170153470

Rotational constants in cm-1:             1.444299             0.340661             0.302396
Rotational constants in MHz :         43298.981313         10212.748098          9065.608983

                             ****ORCA TERMINATED NORMALLY****
TOTAL RUN TIME: 0 days 0 hours 0 minutes 26 seconds 711 msec
