                         Program Version 6.0.0  -   RELEASE  -
|  1> ! Opt wB97M-D3BJ def2-TZVPPD
|  2> %pal nprocs 8 end %pal nprocs 64 end
|  3> %geom
|  4> Constraints
|  5>     {A 2 1 0 108.18181818181819 C }
|  6> end
|  7> MaxIter 500
|  8> end
|  9> *xyz 0 1
| 10> O   -0.0007 0.8141 0.0
| 11> C   0.7509 -0.4065 0.0
| 12> C   -0.7502 -0.4076 0.0
| 13> H   1.2625 -0.6786 0.9136
| 14> H   1.2625 -0.6787 -0.9136
| 15> H   -1.2614 -0.6806 -0.9136
| 16> H   -1.2614 -0.6805 0.9136
| 17> *
| 18>
| 19>                          ****END OF INPUT****
 Total Charge           Charge          ....    0
 Multiplicity           Mult            ....    1
 Number of Electrons    NEL             ....   24
Dispersion correction           -0.005799941
FINAL SINGLE POINT ENERGY      -153.694577646392
Dispersion correction             ... done (  0.1 sec)
Dispersion correction           -0.005687722
FINAL SINGLE POINT ENERGY      -153.749213863383
Dispersion correction             ... done (  0.1 sec)
Dispersion correction           -0.005625207
FINAL SINGLE POINT ENERGY      -153.765148179933
Dispersion correction             ... done (  0.1 sec)
FINAL SINGLE POINT ENERGY      -153.772966350497
FINAL SINGLE POINT ENERGY      -153.775403688400
FINAL SINGLE POINT ENERGY      -153.775885442284
FINAL SINGLE POINT ENERGY      -153.776027108852
FINAL SINGLE POINT ENERGY      -153.776110728214
FINAL SINGLE POINT ENERGY      -153.776129970708
FINAL SINGLE POINT ENERGY      -153.776138366144
FINAL SINGLE POINT ENERGY      -153.776145763182
FINAL SINGLE POINT ENERGY      -153.776149324804
FINAL SINGLE POINT ENERGY      -153.776155820364
FINAL SINGLE POINT ENERGY      -153.776168144165
FINAL SINGLE POINT ENERGY      -153.776190809351
FINAL SINGLE POINT ENERGY      -153.776219237701
FINAL SINGLE POINT ENERGY      -153.776252105935
Dispersion correction             ... done (  0.1 sec)
Dispersion correction           -0.005609094
FINAL SINGLE POINT ENERGY      -153.776276847369
Dispersion correction             ... done (  0.1 sec)
Dispersion correction           -0.005609373
FINAL SINGLE POINT ENERGY      -153.776281123244
Dispersion correction             ... done (  0.1 sec)
                    ***********************HURRAY********************

CARTESIAN COORDINATES (ANGSTROEM)
---------------------------------
  O      0.517921    1.102860    0.142035
  C      0.592875   -0.223478    0.008750
  C     -0.752510   -0.753335    0.005228
  H      1.180145   -0.730458    0.804121
  H      1.097436   -0.513165   -0.930748
  H     -1.265478   -1.046271   -0.903561
  H     -1.368189   -0.554553    0.874175

 Multiplicity           Mult            ....    1
 Number of Electrons    NEL             ....   24
 Basis Dimension        Dim             ....  182

ORBITAL ENERGIES
----------------

  NO   OCC          E(Eh)            E(eV)
   0   2.0000     -19.313534      -525.5480
   1   2.0000     -10.452823      -284.4358
   2   2.0000     -10.401107      -283.0285
   3   2.0000      -1.114576       -30.3291
   4   2.0000      -0.892151       -24.2767
   5   2.0000      -0.734802       -19.9950
   6   2.0000      -0.625245       -17.0138
   7   2.0000      -0.570873       -15.5342
   8   2.0000      -0.525036       -14.2869
   9   2.0000      -0.504504       -13.7282
  10   2.0000      -0.353683        -9.6242
  11   2.0000      -0.344259        -9.3678
  12   0.0000      -0.077936        -2.1208
  13   0.0000       0.033750         0.9184
  14   0.0000       0.060192         1.6379
  15   0.0000       0.076559         2.0833
  16   0.0000       0.098993         2.6937

MULLIKEN ATOMIC CHARGES
-----------------------
   0 O :   -0.536281
   1 C :   -0.116692
   2 C :   -0.177855
   3 H :    0.204684
   4 H :    0.211024
   5 H :    0.173757
   6 H :    0.241363
Sum of atomic charges:   -0.0000000

LOEWDIN ATOMIC CHARGES
----------------------
   0 O :   -0.039960
   1 C :   -0.417199
   2 C :    0.419283
   3 H :    0.030663
   4 H :    0.029970
   5 H :   -0.008435
   6 H :   -0.014321

  Mayer bond orders larger than 0.100000
B(  0-O ,  1-C ) :   0.8762 B(  0-O ,  2-C ) :   0.7323 B(  1-C ,  2-C ) :   0.8802
B(  1-C ,  3-H ) :   1.0113 B(  1-C ,  4-H ) :   1.0059 B(  2-C ,  5-H ) :   0.9780
B(  2-C ,  6-H ) :   0.9612

Dispersion correction           -0.005608922
FINAL SINGLE POINT ENERGY      -153.776282555434

DIPOLE MOMENT
-------------

Method             : SCF
Type of density    : Electron Density
Multiplicity       :   1
Irrep              :   0
Energy             :  -153.7706736334763491 Eh
Relativity type    :
Basis              : AO
                                X                 Y                 Z
Electronic contribution:      0.148021254       1.399717589       0.159419498
Nuclear contribution   :     -0.840390322      -2.912693077      -0.339516988
                        -----------------------------------------
Total Dipole Moment    :     -0.692369067      -1.512975488      -0.180097491
                        -----------------------------------------
Magnitude (a.u.)       :      1.673590410
Magnitude (Debye)      :      4.253928756

Rotational constants in cm-1:             1.325574             0.391106             0.338367
Rotational constants in MHz :         39739.712214         11725.054096         10143.990782

                             ****ORCA TERMINATED NORMALLY****
TOTAL RUN TIME: 0 days 0 hours 5 minutes 2 seconds 985 msec
