                         Program Version 6.0.0  -   RELEASE  -
|  1> ! EnGrad wB97M-D3BJ def2-TZVPPD
|  2> %pal nprocs 8 end%pal nprocs 16 end
|  3> %tddft
|  4>  sf true
|  5>  nroots 2 Iroot 2 end
|  6> *xyz 0 3
|  7> O   0.72291060986119 1.3549034221058 0.01158128508347
|  8> C   0.55078264903878 0.19414929040241 0.261204606898
|  9> C   -0.4523793993495 -0.79705292331829 -0.24169390213911
| 10> H   1.2365739153771 -0.27893978506978 0.99853634888549
| 11> H   0.08897947129913 -1.64294489737446 -0.66519422826919
| 12> H   -1.13111518027151 -0.37698279727498 -0.97922198069926
| 13> H   -1.01355206595519 -1.17153230947071 0.6147878702406
| 14> *
| 15>
| 16>                          ****END OF INPUT****

CARTESIAN COORDINATES (ANGSTROEM)
---------------------------------
  O      0.722911    1.354903    0.011581
  C      0.550783    0.194149    0.261205
  C     -0.452379   -0.797053   -0.241694
  H      1.236574   -0.278940    0.998536
  H      0.088979   -1.642945   -0.665194
  H     -1.131115   -0.376983   -0.979222
  H     -1.013552   -1.171532    0.614788

 Total Charge           Charge          ....    0
 Multiplicity           Mult            ....    3
 Number of Electrons    NEL             ....   24
 Basis Dimension        Dim             ....  182

ORBITAL ENERGIES
----------------
                 SPIN UP ORBITALS
  NO   OCC          E(Eh)            E(eV)
   0   1.0000     -19.407777      -528.1125
   1   1.0000     -10.379758      -282.4476
   2   1.0000     -10.368635      -282.1449
   3   1.0000      -1.244524       -33.8652
   4   1.0000      -0.885791       -24.1036
   5   1.0000      -0.716669       -19.5016
   6   1.0000      -0.632070       -17.1995
   7   1.0000      -0.588713       -16.0197
   8   1.0000      -0.581264       -15.8170
   9   1.0000      -0.516225       -14.0472
  10   1.0000      -0.515407       -14.0249
  11   1.0000      -0.429215       -11.6795
  12   1.0000      -0.218552        -5.9471
  13   0.0000       0.039420         1.0727
  14   0.0000       0.060013         1.6330
  15   0.0000       0.077975         2.1218
  16   0.0000       0.087655         2.3852
  17   0.0000       0.107042         2.9128

                 SPIN DOWN ORBITALS
  NO   OCC          E(Eh)            E(eV)
   0   1.0000     -19.380440      -527.3686
   1   1.0000     -10.369512      -282.1688
   2   1.0000     -10.366588      -282.0892
   3   1.0000      -1.187690       -32.3187
   4   1.0000      -0.866733       -23.5850
   5   1.0000      -0.671260       -18.2659
   6   1.0000      -0.585633       -15.9359
   7   1.0000      -0.541383       -14.7318
   8   1.0000      -0.535728       -14.5779
   9   1.0000      -0.498425       -13.5628
  10   1.0000      -0.471584       -12.8325
  11   0.0000      -0.083041        -2.2597
  12   0.0000       0.040176         1.0932
  13   0.0000       0.059678         1.6239
  14   0.0000       0.077671         2.1135
  15   0.0000       0.084658         2.3037

----------------------------------------------------------------------------------------------------
          SPIN FLIP ABSORPTION SPECTRUM VIA TRANSITION ELECTRIC DIPOLE MOMENTS
----------------------------------------------------------------------------------------------------
     Transition      Energy     Energy  Wavelength fosc(D2)      D2        DX        DY        DZ
                      (eV)      (cm-1)    (nm)                 (au**2)    (au)      (au)      (au)
----------------------------------------------------------------------------------------------------
  1-3A  ->  2-3A    4.622530   37283.2   268.2   0.000209095   0.00185   0.02663  -0.01098  -0.03188

Dispersion correction             ... done (  0.0 sec)

MULLIKEN ATOMIC CHARGES AND SPIN DENSITIES
------------------------------------------
   0 O :   -0.268528    0.571298
   1 C :    0.228349   -0.608057
   2 C :   -0.709470    0.127138
   3 H :    0.090413    0.012262
   4 H :    0.206123   -0.048421
   5 H :    0.248901   -0.002830
   6 H :    0.204211   -0.051391
Sum of atomic charges       :    0.0000000

LOEWDIN ATOMIC CHARGES AND SPIN DENSITIES
-----------------------------------------
   0 O :    0.158196    0.382748
   1 C :   -0.259097   -0.338000
   2 C :    0.133579   -0.017666
   3 H :    0.014682    0.010269
   4 H :   -0.019781   -0.021392
   5 H :   -0.007373    0.006985
   6 H :   -0.020205   -0.022944

  Mayer bond orders larger than 0.100000
B(  0-O ,  1-C ) :   1.2903 B(  1-C ,  2-C ) :   0.6192 B(  1-C ,  3-H ) :   1.0003
B(  2-C ,  4-H ) :   1.0127 B(  2-C ,  5-H ) :   0.9288 B(  2-C ,  6-H ) :   1.0139

Dispersion correction           -0.005519051
FINAL SINGLE POINT ENERGY      -153.753155745692

DIPOLE MOMENT
-------------

Method             : TDA/CIS
Type of density    : Electron Density
Level              : Relaxed density
State              :   2
Multiplicity       :   3
Irrep              :   0
Energy             :     0.0000000000000000 Eh
Relativity type    :
Basis              : AO
                                X                 Y                 Z
Electronic contribution:      1.546703824       3.562604316       0.081894757
Nuclear contribution   :     -1.777382387      -4.171201319      -0.062205893
                        -----------------------------------------
Total Dipole Moment    :     -0.230678563      -0.608597003       0.019688863
                        -----------------------------------------
Magnitude (a.u.)       :      0.651145577
Magnitude (Debye)      :      1.655080525

Rotational constants in cm-1:             2.127477             0.323440             0.296045
Rotational constants in MHz :         63780.153083          9696.477083          8875.190880

                             ****ORCA TERMINATED NORMALLY****
TOTAL RUN TIME: 0 days 0 hours 0 minutes 16 seconds 259 msec
