                         Program Version 6.0.0  -   RELEASE  -
|  1> ! Opt wB97M-D3BJ def2-TZVPPD
|  2> %pal nprocs 8 end %pal nprocs 64 end
|  3> %geom
|  4> Constraints
|  5>     {A 2 1 0 134.74576271186442 C }
|  6> end
|  7> MaxIter 200
|  8> end
|  9> *xyz 0 1
| 10> O   1.7592453541035145 0.6123260729181691 0.0
| 11> C   0.7509 -0.4065 0.0
| 12> C   -0.7502 -0.4076 0.0
| 13> H   1.2625 -0.6786 0.9136
| 14> H   1.2625 -0.6787 -0.9136
| 15> H   -1.2614 -0.6806 -0.9136
| 16> H   -1.2614 -0.6805 0.9136
| 17> *
| 18>
| 19>                          ****END OF INPUT****
 Total Charge           Charge          ....    0
 Multiplicity           Mult            ....    1
 Number of Electrons    NEL             ....   24
Dispersion correction           -0.005324338
FINAL SINGLE POINT ENERGY      -153.690150093800
Dispersion correction             ... done (  0.1 sec)
Dispersion correction           -0.005409820
FINAL SINGLE POINT ENERGY      -153.709755605720
Dispersion correction             ... done (  0.1 sec)
Dispersion correction           -0.005476253
FINAL SINGLE POINT ENERGY      -153.719199737008
Dispersion correction             ... done (  0.1 sec)
FINAL SINGLE POINT ENERGY      -153.725295246623
FINAL SINGLE POINT ENERGY      -153.734901198947
FINAL SINGLE POINT ENERGY      -153.746508351631
FINAL SINGLE POINT ENERGY      -153.760263799182
FINAL SINGLE POINT ENERGY      -153.782673882753
FINAL SINGLE POINT ENERGY      -153.819519049316
FINAL SINGLE POINT ENERGY      -153.818277520277
FINAL SINGLE POINT ENERGY      -153.927043335686
FINAL SINGLE POINT ENERGY      -153.927102245923
FINAL SINGLE POINT ENERGY      -153.927191649314
FINAL SINGLE POINT ENERGY      -153.927276994153
FINAL SINGLE POINT ENERGY      -153.927385436476
FINAL SINGLE POINT ENERGY      -153.927478315212
FINAL SINGLE POINT ENERGY      -153.927534423627
Dispersion correction             ... done (  0.1 sec)
Dispersion correction           -0.005512748
FINAL SINGLE POINT ENERGY      -153.927546451423
Dispersion correction             ... done (  0.1 sec)
Dispersion correction           -0.005512379
FINAL SINGLE POINT ENERGY      -153.927547478357
Dispersion correction             ... done (  0.1 sec)
                    ***********************HURRAY********************

CARTESIAN COORDINATES (ANGSTROEM)
---------------------------------
  O      1.525084    1.003981   -0.046073
  C      0.949790   -0.010127    0.234407
  C     -0.307149   -0.673523   -0.236202
  H      1.418681   -0.642894    1.024083
  H     -0.039539   -1.666515   -0.596842
  H     -0.832996   -0.121615   -1.011387
  H     -0.951726   -0.809481    0.632015

 Multiplicity           Mult            ....    1
 Number of Electrons    NEL             ....   24
 Basis Dimension        Dim             ....  182

ORBITAL ENERGIES
----------------

  NO   OCC          E(Eh)            E(eV)
   0   2.0000     -19.341816      -526.3176
   1   2.0000     -10.444290      -284.2036
   2   2.0000     -10.363195      -281.9969
   3   2.0000      -1.189790       -32.3758
   4   2.0000      -0.892439       -24.2845
   5   2.0000      -0.698161       -18.9979
   6   2.0000      -0.596907       -16.2427
   7   2.0000      -0.564793       -15.3688
   8   2.0000      -0.559298       -15.2193
   9   2.0000      -0.510029       -13.8786
  10   2.0000      -0.479648       -13.0519
  11   2.0000      -0.365620        -9.9490
  12   0.0000       0.035474         0.9653
  13   0.0000       0.057075         1.5531
  14   0.0000       0.059233         1.6118
  15   0.0000       0.081992         2.2311
  16   0.0000       0.085472         2.3258

MULLIKEN ATOMIC CHARGES
-----------------------
   0 O :   -0.472631
   1 C :    0.231268
   2 C :   -0.692841
   3 H :    0.223542
   4 H :    0.234943
   5 H :    0.240556
   6 H :    0.235164
Sum of atomic charges:   -0.0000000

LOEWDIN ATOMIC CHARGES
----------------------
   0 O :    0.076147
   1 C :   -0.243747
   2 C :    0.171705
   3 H :    0.021376
   4 H :   -0.008321
   5 H :   -0.008852
   6 H :   -0.008307

  Mayer bond orders larger than 0.100000
B(  0-O ,  1-C ) :   1.7706 B(  1-C ,  2-C ) :   0.7476 B(  1-C ,  3-H ) :   1.0006
B(  2-C ,  4-H ) :   0.9900 B(  2-C ,  5-H ) :   0.9593 B(  2-C ,  6-H ) :   0.9895

Dispersion correction           -0.005512341
FINAL SINGLE POINT ENERGY      -153.927547577963

DIPOLE MOMENT
-------------

Method             : SCF
Type of density    : Electron Density
Multiplicity       :   1
Irrep              :   0
Energy             :  -153.9220352374527749 Eh
Relativity type    :
Basis              : AO
                                X                 Y                 Z
Electronic contribution:      2.375538900       2.474354164       0.037507366
Nuclear contribution   :     -3.069828499      -3.417429425       0.104985810
                        -----------------------------------------
Total Dipole Moment    :     -0.694289599      -0.943075260       0.142493175
                        -----------------------------------------
Magnitude (a.u.)       :      1.179717466
Magnitude (Debye)      :      2.998603494

Rotational constants in cm-1:             2.220565             0.317170             0.292462
Rotational constants in MHz :         66570.872008          9508.519787          8767.787708

                             ****ORCA TERMINATED NORMALLY****
TOTAL RUN TIME: 0 days 0 hours 6 minutes 47 seconds 866 msec
