                         Program Version 6.0.0  -   RELEASE  -
|  1> ! EnGrad wB97M-D3BJ def2-TZVPPD
|  2> %pal nprocs 8 end%pal nprocs 16 end
|  3> %tddft
|  4>  sf true
|  5>  nroots 2 Iroot 1 end
|  6> *xyz 0 3
|  7> O   0.16740519280549 0.89786245554108 -0.00059017095855
|  8> C   0.66498037913586 -0.35949899241653 -4.034558777e-05
|  9> C   -0.73066861560407 -0.59986667616379 7.59607078e-05
| 10> H   1.22064706208977 -0.64857669457265 0.89570720493304
| 11> H   1.22051043335385 -0.64884881399733 -0.89578825092688
| 12> H   -1.27058114474579 -0.68087453063515 -0.9280003759995
| 13> H   -1.27009330703511 -0.67859674775563 0.92863597783185
| 14> *
| 15>
| 16>                          ****END OF INPUT****

CARTESIAN COORDINATES (ANGSTROEM)
---------------------------------
  O      0.167405    0.897862   -0.000590
  C      0.664980   -0.359499   -0.000040
  C     -0.730669   -0.599867    0.000076
  H      1.220647   -0.648577    0.895707
  H      1.220510   -0.648849   -0.895788
  H     -1.270581   -0.680875   -0.928000
  H     -1.270093   -0.678597    0.928636

 Total Charge           Charge          ....    0
 Multiplicity           Mult            ....    3
 Number of Electrons    NEL             ....   24
 Basis Dimension        Dim             ....  182

ORBITAL ENERGIES
----------------
                 SPIN UP ORBITALS
  NO   OCC          E(Eh)            E(eV)
   0   1.0000     -19.428832      -528.6854
   1   1.0000     -10.409813      -283.2654
   2   1.0000     -10.334719      -281.2220
   3   1.0000      -1.243478       -33.8368
   4   1.0000      -0.860008       -23.4020
   5   1.0000      -0.751224       -20.4418
   6   1.0000      -0.659355       -17.9420
   7   1.0000      -0.623310       -16.9611
   8   1.0000      -0.550863       -14.9897
   9   1.0000      -0.499416       -13.5898
  10   1.0000      -0.470462       -12.8019
  11   1.0000      -0.454077       -12.3561
  12   1.0000      -0.218127        -5.9355
  13   0.0000       0.039751         1.0817
  14   0.0000       0.063403         1.7253
  15   0.0000       0.071878         1.9559
  16   0.0000       0.085662         2.3310
  17   0.0000       0.114025         3.1028

                 SPIN DOWN ORBITALS
  NO   OCC          E(Eh)            E(eV)
   0   1.0000     -19.397475      -527.8321
   1   1.0000     -10.410689      -283.2893
   2   1.0000     -10.322842      -280.8988
   3   1.0000      -1.178571       -32.0705
   4   1.0000      -0.825331       -22.4584
   5   1.0000      -0.731443       -19.9036
   6   1.0000      -0.611161       -16.6305
   7   1.0000      -0.587015       -15.9735
   8   1.0000      -0.520957       -14.1760
   9   1.0000      -0.471052       -12.8180
  10   1.0000      -0.406217       -11.0537
  11   0.0000      -0.089061        -2.4235
  12   0.0000       0.036619         0.9965
  13   0.0000       0.052608         1.4315
  14   0.0000       0.061805         1.6818
  15   0.0000       0.068692         1.8692

----------------------------------------------------------------------------------------------------
          SPIN FLIP ABSORPTION SPECTRUM VIA TRANSITION ELECTRIC DIPOLE MOMENTS
----------------------------------------------------------------------------------------------------
     Transition      Energy     Energy  Wavelength fosc(D2)      D2        DX        DY        DZ
                      (eV)      (cm-1)    (nm)                 (au**2)    (au)      (au)      (au)
----------------------------------------------------------------------------------------------------
  1-3A  ->  2-3A    4.269690   34437.4   290.4   0.002579365   0.02466  -0.00010   0.00003   0.15703

Dispersion correction             ... done (  0.0 sec)

MULLIKEN ATOMIC CHARGES AND SPIN DENSITIES
------------------------------------------
   0 O :   -0.451065    0.018440
   1 C :   -0.137147   -0.073195
   2 C :   -0.365019   -0.014248
   3 H :    0.218508    0.028514
   4 H :    0.218491    0.028487
   5 H :    0.258057    0.005979
   6 H :    0.258175    0.006023
Sum of atomic charges       :   -0.0000000

LOEWDIN ATOMIC CHARGES AND SPIN DENSITIES
-----------------------------------------
   0 O :   -0.057990   -0.021515
   1 C :   -0.256906   -0.008742
   2 C :    0.253558    0.022939
   3 H :    0.029061    0.004933
   4 H :    0.029064    0.004933
   5 H :    0.001617   -0.001270
   6 H :    0.001595   -0.001278

  Mayer bond orders larger than 0.100000
B(  0-O ,  1-C ) :   0.7508 B(  0-O ,  2-C ) :   0.9065 B(  1-C ,  2-C ) :   0.7850
B(  1-C ,  3-H ) :   1.0338 B(  1-C ,  4-H ) :   1.0336 B(  2-C ,  5-H ) :   0.9318
B(  2-C ,  6-H ) :   0.9319

Dispersion correction           -0.005297133
FINAL SINGLE POINT ENERGY      -153.838989717211

DIPOLE MOMENT
-------------

Method             : TDA/CIS
Type of density    : Electron Density
Level              : Relaxed density
State              :   1
Multiplicity       :   3
Irrep              :   0
Energy             :     0.0000000000000000 Eh
Relativity type    :
Basis              : AO
                                X                 Y                 Z
Electronic contribution:     -0.029283282       1.298113010      -0.000730001
Nuclear contribution   :     -0.243889094      -2.493368353       0.001234663
                        -----------------------------------------
Total Dipole Moment    :     -0.273172375      -1.195255344       0.000504662
                        -----------------------------------------
Magnitude (a.u.)       :      1.226074524
Magnitude (Debye)      :      3.116433773

Rotational constants in cm-1:             0.949603             0.604977             0.433276
Rotational constants in MHz :         28468.369649         18136.748595         12989.272979

                             ****ORCA TERMINATED NORMALLY****
TOTAL RUN TIME: 0 days 0 hours 0 minutes 18 seconds 100 msec
