                         Program Version 6.0.0  -   RELEASE  -
|  1> ! Engrad def2-TZVPPD wB97M-D3BJ
|  2> %pal nprocs 8 end%pal nprocs 32 end
|  3>  %tddft nroots 2 Iroot 1
|  4> sf true
|  5> end
|  6> *xyz 0 3
|  7> O   3.14142477874779 0.48154170616223 -0.90114303435434
|  8> O   -0.53394753700264 1.43880266757781 -2.30872393159735
|  9> O   0.41408992179261 -3.07150608314247 -0.45646570598659
| 10> O   -3.07526010743076 -1.68993461636195 -0.33205467406517
| 11> N   0.3158793231125 -1.47848884214129 1.15568890655353
| 12> N   -2.14280868220327 -0.10620682038527 1.01063953152542
| 13> N   1.55838994590428 -1.13942065291781 -0.78742019805451
| 14> N   -1.4856122182978 -0.30880830470348 -1.20732152445142
| 15> C   1.68386828426789 0.52233950117428 0.94580215509785
| 16> C   -0.74219369683559 1.59350018035552 0.04756054306444
| 17> C   0.37707209397743 -0.096724661139 1.56822128992715
| 18> C   -0.99540326812779 0.71811876751945 1.26118852322436
| 19> C   2.41013168656482 1.5699180666177 1.67786762794527
| 20> C   -0.65406732062381 3.05731491829087 0.15223568271212
| 21> C   2.20169739337358 -0.00868966305499 -0.30389948870193
| 22> C   -0.88590627648792 0.94845435624867 -1.25604463904739
| 23> C   0.72643618667525 -1.97370035280193 -0.05706993682568
| 24> C   -2.29586049469181 -0.78287273997458 -0.17537155269208
| 25> H   0.5048309971988 -0.09750613359462 2.65386113859251
| 26> H   -1.20444134803728 1.34924794875844 2.12165353798319
| 27> H   3.31168100019676 1.8526097494871 1.14432255878972
| 28> H   1.78859340675526 2.46333206060917 1.81687703351847
| 29> H   2.66669385206983 1.22360074049148 2.68405824455494
| 30> H   -1.60083656729986 3.46716158516209 0.52233607025134
| 31> H   0.1085628537815 3.35465199992261 0.88017178710806
| 32> H   -0.42858537586004 3.49806923991432 -0.81348731024596
| 33> H   -0.3154319919734 -2.1016183704446 1.62875372421323
| 34> H   -2.69904741739306 -0.46329973482189 1.76693321688295
| 35> H   1.91732285963554 -1.52907717849362 -1.64345969683584
| 36> H   -1.61467228178884 -0.77580933431429 -2.0911098790863
| 37> *
| 38>
| 39>                          ****END OF INPUT****

CARTESIAN COORDINATES (ANGSTROEM)
---------------------------------
  O      3.141425    0.481542   -0.901143
  O     -0.533948    1.438803   -2.308724
  O      0.414090   -3.071506   -0.456466
  O     -3.075260   -1.689935   -0.332055
  N      0.315879   -1.478489    1.155689
  N     -2.142809   -0.106207    1.010640
  N      1.558390   -1.139421   -0.787420
  N     -1.485612   -0.308808   -1.207322
  C      1.683868    0.522340    0.945802
  C     -0.742194    1.593500    0.047561
  C      0.377072   -0.096725    1.568221
  C     -0.995403    0.718119    1.261189
  C      2.410132    1.569918    1.677868
  C     -0.654067    3.057315    0.152236
  C      2.201697   -0.008690   -0.303899
  C     -0.885906    0.948454   -1.256045
  C      0.726436   -1.973700   -0.057070
  C     -2.295860   -0.782873   -0.175372
  H      0.504831   -0.097506    2.653861
  H     -1.204441    1.349248    2.121654
  H      3.311681    1.852610    1.144323
  H      1.788593    2.463332    1.816877
  H      2.666694    1.223601    2.684058
  H     -1.600837    3.467162    0.522336
  H      0.108563    3.354652    0.880172
  H     -0.428585    3.498069   -0.813487
  H     -0.315432   -2.101618    1.628754
  H     -2.699047   -0.463300    1.766933
  H      1.917323   -1.529077   -1.643460
  H     -1.614672   -0.775809   -2.091110

 Total Charge           Charge          ....    0
 Multiplicity           Mult            ....    3
 Number of Electrons    NEL             ....  132
 Basis Dimension        Dim             ....  882

ORBITAL ENERGIES
----------------
                 SPIN UP ORBITALS
  NO   OCC          E(Eh)            E(eV)
   0   1.0000     -19.332647      -526.0681
   1   1.0000     -19.331303      -526.0315
   2   1.0000     -19.319567      -525.7121
   3   1.0000     -19.314157      -525.5649
   4   1.0000     -14.563749      -396.2998
   5   1.0000     -14.558784      -396.1646
   6   1.0000     -14.557831      -396.1387
   7   1.0000     -14.556580      -396.1047
   8   1.0000     -10.503774      -285.8222
   9   1.0000     -10.500190      -285.7247
  10   1.0000     -10.478419      -285.1323
  11   1.0000     -10.478090      -285.1233
  12   1.0000     -10.448000      -284.3045
  13   1.0000     -10.445093      -284.2254
  14   1.0000     -10.421553      -283.5849
  15   1.0000     -10.412912      -283.3497
  16   1.0000     -10.373652      -282.2814
  17   1.0000     -10.373432      -282.2754
  18   1.0000      -1.220585       -33.2138
  19   1.0000      -1.214632       -33.0518
  20   1.0000      -1.196940       -32.5704
  21   1.0000      -1.193901       -32.4877
  22   1.0000      -1.117016       -30.3956
  23   1.0000      -1.095192       -29.8017
  24   1.0000      -1.064639       -28.9703
  25   1.0000      -1.054317       -28.6894
  26   1.0000      -0.976198       -26.5637
  27   1.0000      -0.949929       -25.8489
  28   1.0000      -0.886512       -24.1232
  29   1.0000      -0.836647       -22.7663
  30   1.0000      -0.828055       -22.5325
  31   1.0000      -0.802437       -21.8354
  32   1.0000      -0.784491       -21.3471
  33   1.0000      -0.776693       -21.1349
  34   1.0000      -0.698112       -18.9966
  35   1.0000      -0.692702       -18.8494
  36   1.0000      -0.685942       -18.6654
  37   1.0000      -0.661785       -18.0081
  38   1.0000      -0.652222       -17.7479
  39   1.0000      -0.646442       -17.5906
  40   1.0000      -0.616593       -16.7783
  41   1.0000      -0.602881       -16.4052
  42   1.0000      -0.588749       -16.0207
  43   1.0000      -0.582690       -15.8558
  44   1.0000      -0.580992       -15.8096
  45   1.0000      -0.573111       -15.5951
  46   1.0000      -0.564994       -15.3743
  47   1.0000      -0.559069       -15.2130
  48   1.0000      -0.557101       -15.1595
  49   1.0000      -0.550472       -14.9791
  50   1.0000      -0.545994       -14.8572
  51   1.0000      -0.541351       -14.7309
  52   1.0000      -0.533319       -14.5123
  53   1.0000      -0.525260       -14.2931
  54   1.0000      -0.513214       -13.9652
  55   1.0000      -0.506644       -13.7865
  56   1.0000      -0.486387       -13.2353
  57   1.0000      -0.420111       -11.4318
  58   1.0000      -0.415994       -11.3198
  59   1.0000      -0.408048       -11.1036
  60   1.0000      -0.405841       -11.0435
  61   1.0000      -0.395629       -10.7656
  62   1.0000      -0.391865       -10.6632
  63   1.0000      -0.387464       -10.5434
  64   1.0000      -0.381997       -10.3947
  65   1.0000      -0.348681        -9.4881
  66   1.0000      -0.320507        -8.7214
  67   0.0000       0.006103         0.1661
  68   0.0000       0.028554         0.7770
  69   0.0000       0.031057         0.8451
  70   0.0000       0.039398         1.0721
  71   0.0000       0.056780         1.5451

                 SPIN DOWN ORBITALS
  NO   OCC          E(Eh)            E(eV)
   0   1.0000     -19.328413      -525.9529
   1   1.0000     -19.326667      -525.9053
   2   1.0000     -19.319342      -525.7060
   3   1.0000     -19.313998      -525.5606
   4   1.0000     -14.563198      -396.2848
   5   1.0000     -14.558453      -396.1557
   6   1.0000     -14.557460      -396.1286
   7   1.0000     -14.556284      -396.0966
   8   1.0000     -10.503790      -285.8226
   9   1.0000     -10.500208      -285.7252
  10   1.0000     -10.479411      -285.1593
  11   1.0000     -10.479176      -285.1529
  12   1.0000     -10.447854      -284.3006
  13   1.0000     -10.444933      -284.2211
  14   1.0000     -10.409884      -283.2673
  15   1.0000     -10.401110      -283.0286
  16   1.0000     -10.374270      -282.2982
  17   1.0000     -10.374001      -282.2909
  18   1.0000      -1.218902       -33.1680
  19   1.0000      -1.212656       -32.9981
  20   1.0000      -1.191879       -32.4327
  21   1.0000      -1.188823       -32.3495
  22   1.0000      -1.114648       -30.3311
  23   1.0000      -1.093095       -29.7446
  24   1.0000      -1.062977       -28.9251
  25   1.0000      -1.052916       -28.6513
  26   1.0000      -0.961564       -26.1655
  27   1.0000      -0.933148       -25.3923
  28   1.0000      -0.882128       -24.0039
  29   1.0000      -0.831682       -22.6312
  30   1.0000      -0.819163       -22.2906
  31   1.0000      -0.797072       -21.6894
  32   1.0000      -0.783173       -21.3112
  33   1.0000      -0.775144       -21.0927
  34   1.0000      -0.692090       -18.8327
  35   1.0000      -0.685988       -18.6667
  36   1.0000      -0.679789       -18.4980
  37   1.0000      -0.654101       -17.7990
  38   1.0000      -0.643929       -17.5222
  39   1.0000      -0.641548       -17.4574
  40   1.0000      -0.613955       -16.7066
  41   1.0000      -0.598404       -16.2834
  42   1.0000      -0.582403       -15.8480
  43   1.0000      -0.574454       -15.6317
  44   1.0000      -0.571027       -15.5384
  45   1.0000      -0.565697       -15.3934
  46   1.0000      -0.560076       -15.2404
  47   1.0000      -0.553814       -15.0700
  48   1.0000      -0.552486       -15.0339
  49   1.0000      -0.540436       -14.7060
  50   1.0000      -0.539325       -14.6758
  51   1.0000      -0.533836       -14.5264
  52   1.0000      -0.526719       -14.3328
  53   1.0000      -0.514773       -14.0077
  54   1.0000      -0.503452       -13.6996
  55   1.0000      -0.500611       -13.6223
  56   1.0000      -0.480788       -13.0829
  57   1.0000      -0.416188       -11.3251
  58   1.0000      -0.412472       -11.2239
  59   1.0000      -0.402370       -10.9490
  60   1.0000      -0.393149       -10.6981
  61   1.0000      -0.386765       -10.5244
  62   1.0000      -0.384132       -10.4528
  63   1.0000      -0.382009       -10.3950
  64   1.0000      -0.373396       -10.1606
  65   0.0000      -0.069084        -1.8799
  66   0.0000      -0.032800        -0.8925
  67   0.0000       0.005775         0.1571
  68   0.0000       0.028522         0.7761
  69   0.0000       0.030769         0.8373

----------------------------------------------------------------------------------------------------
          SPIN FLIP ABSORPTION SPECTRUM VIA TRANSITION ELECTRIC DIPOLE MOMENTS
----------------------------------------------------------------------------------------------------
     Transition      Energy     Energy  Wavelength fosc(D2)      D2        DX        DY        DZ
                      (eV)      (cm-1)    (nm)                 (au**2)    (au)      (au)      (au)
----------------------------------------------------------------------------------------------------
  1-3A  ->  2-3A    0.305915    2467.4  4052.9   0.000012463   0.00166   0.03421  -0.01867   0.01198

Dispersion correction             ... done (  0.1 sec)

MULLIKEN ATOMIC CHARGES AND SPIN DENSITIES
------------------------------------------
   0 O :   -0.683419   -0.011530
   1 O :   -0.673711    0.003570
   2 O :   -0.656324   -0.002136
   3 O :   -0.638018   -0.001652
   4 N :   -0.279045    0.012663
   5 N :   -0.298273    0.005338
   6 N :    0.075588   -0.006014
   7 N :    0.060583    0.011997
   8 C :    0.824540    0.668412
   9 C :    0.771762    0.564613
  10 C :   -0.322331   -0.391796
  11 C :    0.437327   -0.255382
  12 C :   -1.168749    0.086796
  13 C :   -1.249191    0.008703
  14 C :    0.021999   -0.460931
  15 C :   -0.201772   -0.375375
  16 C :    0.454651    0.026730
  17 C :    0.370150    0.017663
  18 H :    0.658301    0.012748
  19 H :    0.475866    0.002363
  20 H :    0.302917   -0.008943
  21 H :    0.268198    0.029781
  22 H :    0.330427    0.011419
  23 H :    0.338880    0.010313
  24 H :    0.260324    0.035916
  25 H :    0.326016   -0.006529
  26 H :    0.058942    0.001717
  27 H :    0.070968    0.000844
  28 H :    0.029179    0.007053
  29 H :    0.034216    0.001650
Sum of atomic charges       :    0.0000000

LOEWDIN ATOMIC CHARGES AND SPIN DENSITIES
-----------------------------------------
   0 O :    0.092408   -0.007718
   1 O :    0.099105    0.000616
   2 O :    0.093534   -0.001255
   3 O :    0.102223   -0.000742
   4 N :    0.267789   -0.000781
   5 N :    0.273754   -0.000161
   6 N :    0.324150   -0.001643
   7 N :    0.327310   -0.000284
   8 C :    0.017782   -0.005095
   9 C :   -0.012938    0.025874
  10 C :   -0.070596    0.000133
  11 C :   -0.097924    0.002098
  12 C :    0.184280   -0.003393
  13 C :    0.189594    0.001023
  14 C :   -0.417260   -0.006998
  15 C :   -0.413049   -0.001395
  16 C :   -0.496460   -0.000061
  17 C :   -0.485930   -0.000045
  18 H :    0.036001    0.000090
  19 H :    0.047074    0.000081
  20 H :   -0.000814    0.000012
  21 H :   -0.008212   -0.000613
  22 H :    0.012003   -0.000649
  23 H :    0.017234    0.000715
  24 H :   -0.012048    0.000436
  25 H :    0.003050   -0.000030
  26 H :   -0.028459   -0.000077
  27 H :   -0.028640   -0.000003
  28 H :   -0.008816   -0.000124
  29 H :   -0.006148   -0.000011

  Mayer bond orders larger than 0.100000
B(  0-O , 14-C ) :   1.3153 B(  1-O , 15-C ) :   1.4310 B(  2-O , 16-C ) :   1.5199
B(  3-O , 17-C ) :   1.5416 B(  4-N ,  5-N ) :   0.1133 B(  4-N ,  8-C ) :   0.2537
B(  4-N , 10-C ) :   0.3259 B(  4-N , 11-C ) :  -0.1036 B(  4-N , 16-C ) :   1.0352
B(  4-N , 26-H ) :   1.0985 B(  5-N ,  9-C ) :   0.3302 B(  5-N , 17-C ) :   1.1522
B(  5-N , 27-H ) :   1.0625 B(  6-N ,  8-C ) :  -0.1214 B(  6-N , 10-C ) :   0.1135
B(  6-N , 14-C ) :   1.0701 B(  6-N , 16-C ) :   0.9535 B(  6-N , 28-H ) :   1.1057
B(  7-N , 11-C ) :   0.1362 B(  7-N , 15-C ) :   0.9585 B(  7-N , 17-C ) :   0.9595
B(  7-N , 29-H ) :   1.0867 B(  8-C ,  9-C ) :   0.4773 B(  8-C , 10-C ) :   0.1885
B(  8-C , 11-C ) :  -0.2131 B(  8-C , 12-C ) :   0.5647 B(  8-C , 14-C ) :   0.4640
B(  8-C , 20-H ) :  -0.1108 B(  9-C , 11-C ) :   0.2698 B(  9-C , 13-C ) :   0.5365
B(  9-C , 15-C ) :   0.4561 B( 10-C , 11-C ) :   0.8049 B( 10-C , 15-C ) :   0.1388
B( 10-C , 16-C ) :  -0.1048 B( 10-C , 18-H ) :   0.6065 B( 11-C , 13-C ) :  -0.1065
B( 11-C , 15-C ) :  -0.1095 B( 11-C , 17-C ) :  -0.2006 B( 11-C , 19-H ) :   0.8759
B( 12-C , 20-H ) :   1.0301 B( 12-C , 21-H ) :   0.8289 B( 12-C , 22-H ) :   0.9546
B( 13-C , 23-H ) :   0.9099 B( 13-C , 24-H ) :   0.8920 B( 13-C , 25-H ) :   0.9913
B( 14-C , 15-C ) :   0.1367 B( 14-C , 16-C ) :  -0.1083 B( 15-C , 17-C ) :  -0.1282

Dispersion correction           -0.059167993
FINAL SINGLE POINT ENERGY      -908.806699602575

DIPOLE MOMENT
-------------

Method             : TDA/CIS
Type of density    : Electron Density
Level              : Relaxed density
State              :   1
Multiplicity       :   3
Irrep              :   0
Energy             :     0.0000000000000000 Eh
Relativity type    :
Basis              : AO
                                X                 Y                 Z
Electronic contribution:     -2.613378714     -10.211872907      -7.313504152
Nuclear contribution   :      2.320716483      11.828855447      10.152710567
                        -----------------------------------------
Total Dipole Moment    :     -0.292662231       1.616982540       2.839206415
                        -----------------------------------------
Magnitude (a.u.)       :      3.280453746
Magnitude (Debye)      :      8.338250771

Rotational constants in cm-1:             0.019183             0.015451             0.012529
Rotational constants in MHz :           575.099625           463.203773           375.612240

                             ****ORCA TERMINATED NORMALLY****
TOTAL RUN TIME: 0 days 0 hours 24 minutes 22 seconds 421 msec
