                         Program Version 6.0.0  -   RELEASE  -
|  1> ! Opt wB97M-D3BJ def2-TZVPPD
|  2> %pal nprocs 8 end %pal nprocs 64 end
|  3> %geom
|  4> Constraints
|  5>     {A 2 1 0 131.6949152542373 C }
|  6> end
|  7> MaxIter 200
|  8> end
|  9> *xyz 0 1
| 10> O   1.7035920824872055 0.6645484190577905 0.0
| 11> C   0.7509 -0.4065 0.0
| 12> C   -0.7502 -0.4076 0.0
| 13> H   1.2625 -0.6786 0.9136
| 14> H   1.2625 -0.6787 -0.9136
| 15> H   -1.2614 -0.6806 -0.9136
| 16> H   -1.2614 -0.6805 0.9136
| 17> *
| 18>
| 19>                          ****END OF INPUT****
 Total Charge           Charge          ....    0
 Multiplicity           Mult            ....    1
 Number of Electrons    NEL             ....   24
Dispersion correction           -0.005337106
FINAL SINGLE POINT ENERGY      -153.692072420838
Dispersion correction             ... done (  0.1 sec)
Dispersion correction           -0.005416647
FINAL SINGLE POINT ENERGY      -153.710688961972
Dispersion correction             ... done (  0.1 sec)
Dispersion correction           -0.005482079
FINAL SINGLE POINT ENERGY      -153.719814901656
Dispersion correction             ... done (  0.0 sec)
FINAL SINGLE POINT ENERGY      -153.725817687874
FINAL SINGLE POINT ENERGY      -153.735896155058
FINAL SINGLE POINT ENERGY      -153.749399792120
FINAL SINGLE POINT ENERGY      -153.764951551574
FINAL SINGLE POINT ENERGY      -153.787652379551
FINAL SINGLE POINT ENERGY      -153.805407424533
FINAL SINGLE POINT ENERGY      -153.829845347595
FINAL SINGLE POINT ENERGY      -153.929129369958
FINAL SINGLE POINT ENERGY      -153.929199422380
FINAL SINGLE POINT ENERGY      -153.929270691837
FINAL SINGLE POINT ENERGY      -153.929354827951
FINAL SINGLE POINT ENERGY      -153.929498653572
FINAL SINGLE POINT ENERGY      -153.929604052851
FINAL SINGLE POINT ENERGY      -153.929722026128
Dispersion correction             ... done (  0.1 sec)
Dispersion correction           -0.005520959
FINAL SINGLE POINT ENERGY      -153.929761949411
Dispersion correction             ... done (  0.1 sec)
Dispersion correction           -0.005519495
FINAL SINGLE POINT ENERGY      -153.929764262603
Dispersion correction             ... done (  0.1 sec)
                    ***********************HURRAY********************

CARTESIAN COORDINATES (ANGSTROEM)
---------------------------------
  O      1.468918    1.023154   -0.056652
  C      0.943262   -0.010894    0.249466
  C     -0.310185   -0.672026   -0.233416
  H      1.439781   -0.627647    1.031203
  H     -0.047080   -1.658633   -0.615210
  H     -0.823246   -0.097440   -1.000038
  H     -0.964957   -0.824466    0.624648

 Multiplicity           Mult            ....    1
 Number of Electrons    NEL             ....   24
 Basis Dimension        Dim             ....  182

ORBITAL ENERGIES
----------------

  NO   OCC          E(Eh)            E(eV)
   0   2.0000     -19.341040      -526.2964
   1   2.0000     -10.443705      -284.1877
   2   2.0000     -10.361225      -281.9433
   3   2.0000      -1.189346       -32.3638
   4   2.0000      -0.890013       -24.2185
   5   2.0000      -0.699434       -19.0326
   6   2.0000      -0.597374       -16.2554
   7   2.0000      -0.563612       -15.3367
   8   2.0000      -0.557810       -15.1788
   9   2.0000      -0.509496       -13.8641
  10   2.0000      -0.478629       -13.0242
  11   2.0000      -0.366885        -9.9834
  12   0.0000       0.036186         0.9847
  13   0.0000       0.056443         1.5359
  14   0.0000       0.059241         1.6120
  15   0.0000       0.082396         2.2421
  16   0.0000       0.085708         2.3322

MULLIKEN ATOMIC CHARGES
-----------------------
   0 O :   -0.474186
   1 C :    0.232636
   2 C :   -0.694998
   3 H :    0.230622
   4 H :    0.232382
   5 H :    0.241068
   6 H :    0.232476
Sum of atomic charges:   -0.0000000

LOEWDIN ATOMIC CHARGES
----------------------
   0 O :    0.074405
   1 C :   -0.240730
   2 C :    0.170964
   3 H :    0.022113
   4 H :   -0.009070
   5 H :   -0.008570
   6 H :   -0.009111

  Mayer bond orders larger than 0.100000
B(  0-O ,  1-C ) :   1.7703 B(  1-C ,  2-C ) :   0.7491 B(  1-C ,  3-H ) :   0.9950
B(  2-C ,  4-H ) :   0.9913 B(  2-C ,  5-H ) :   0.9582 B(  2-C ,  6-H ) :   0.9908

Dispersion correction           -0.005519394
FINAL SINGLE POINT ENERGY      -153.929764382485

DIPOLE MOMENT
-------------

Method             : SCF
Type of density    : Electron Density
Multiplicity       :   1
Irrep              :   0
Energy             :  -153.9242449881711252 Eh
Relativity type    :
Basis              : AO
                                X                 Y                 Z
Electronic contribution:      2.329631940       2.460016601       0.070405680
Nuclear contribution   :     -2.975398800      -3.416595526       0.094783672
                        -----------------------------------------
Total Dipole Moment    :     -0.645766861      -0.956578925       0.165189353
                        -----------------------------------------
Magnitude (a.u.)       :      1.165909774
Magnitude (Debye)      :      2.963507131

Rotational constants in cm-1:             2.123673             0.323747             0.296225
Rotational constants in MHz :         63666.125781          9705.686792          8880.604362

                             ****ORCA TERMINATED NORMALLY****
TOTAL RUN TIME: 0 days 0 hours 6 minutes 21 seconds 519 msec
