                         Program Version 6.0.0  -   RELEASE  -
|  1> ! opt def2-TZVPPD wB97M-D3BJ
|  2> %pal nprocs 8 end%pal nprocs 32 end
|  3> %geom Constraints
|  4> {B 9 8 2.7 C}
|  5> {A 8 9 11 34.0 C}
|  6> end
|  7> MaxIter 300
|  8> end
|  9> *xyz 0 1
| 10> O   2.98579685529314 0.88758230159078 -0.86184571092411
| 11> O   -0.03983205397054 0.68929041702508 -2.10362336723772
| 12> O   0.93431434349854 -3.13274393337945 -0.68767288184107
| 13> O   -3.75829998830163 -0.84727300865116 -0.0472717177755
| 14> N   0.21184538946282 -1.54604804365365 0.7617588924445
| 15> N   -2.13631993928911 0.03188773433438 1.27350571071531
| 16> N   2.02598672506387 -1.14318467211666 -0.64531219127023
| 17> N   -1.91814233924584 0.03137116037665 -1.04498946748291
| 18> C   1.18097737274226 0.71693507080484 0.70173889017321
| 19> C   -0.20686880480777 1.27024627933494 0.21345042231937
| 20> C   0.41441080275909 -0.34173258966541 1.52336266615173
| 21> C   -0.82922175114212 0.58960593673968 1.44434972027296
| 22> C   1.92822011286806 1.69488653817281 1.5963734975385
| 23> C   -0.37809776891576 2.77134929626422 0.04819649358288
| 24> C   2.1403947470937 0.1972384729179 -0.35038567829864
| 25> C   -0.67361678962426 0.6214190571346 -1.0793014500539
| 26> C   1.04142578622994 -2.02697492875068 -0.21027082435993
| 27> C   -2.68467002550422 -0.30396816036989 0.07167054343891
| 28> H   0.80817443950001 -0.54572267081061 2.51895215321335
| 29> H   -0.83785272399001 1.27240685039143 2.28901317073582
| 30> H   2.31167340578204 2.52284411740894 1.00913016264629
| 31> H   1.28982602448342 2.08257620823614 2.38710022492991
| 32> H   2.77390820759972 1.19140411795486 2.06045858523949
| 33> H   -1.41857211141493 3.00964947214868 -0.16882755561625
| 34> H   -0.09065531563179 3.29799318042223 0.95389844358819
| 35> H   0.23426221611057 3.12492645074476 -0.77764887675592
| 36> H   -0.46772570547622 -2.21560145172536 1.0787081584806
| 37> H   -2.71769301149571 -0.17090724573546 2.06627440900372
| 38> H   2.60065167263658 -1.49057255715425 -1.3966820077142
| 39> H   -2.27169977231386 -0.32388339999036 -1.91951041514436
| 40> *
| 41>
| 42>                          ****END OF INPUT****
 Total Charge           Charge          ....    0
 Multiplicity           Mult            ....    1
 Number of Electrons    NEL             ....  132
Dispersion correction           -0.055647780
FINAL SINGLE POINT ENERGY      -908.417071984654
Dispersion correction             ... done (  0.0 sec)
Dispersion correction           -0.055323601
FINAL SINGLE POINT ENERGY      -908.515199550212
Dispersion correction             ... done (  0.0 sec)
Dispersion correction           -0.055073442
FINAL SINGLE POINT ENERGY      -908.577147494959
Dispersion correction             ... done (  0.0 sec)
FINAL SINGLE POINT ENERGY      -908.632657876298
FINAL SINGLE POINT ENERGY      -908.676043011784
FINAL SINGLE POINT ENERGY      -908.698881005488
FINAL SINGLE POINT ENERGY      -908.710586792966
FINAL SINGLE POINT ENERGY      -908.717281353761
FINAL SINGLE POINT ENERGY      -908.723598189356
FINAL SINGLE POINT ENERGY      -908.726933088259
FINAL SINGLE POINT ENERGY      -908.749690650182
FINAL SINGLE POINT ENERGY      -908.749722963728
FINAL SINGLE POINT ENERGY      -908.749737908589
FINAL SINGLE POINT ENERGY      -908.749750391326
FINAL SINGLE POINT ENERGY      -908.749760881337
FINAL SINGLE POINT ENERGY      -908.749769445428
FINAL SINGLE POINT ENERGY      -908.749774259145
Dispersion correction             ... done (  0.0 sec)
Dispersion correction           -0.059462352
FINAL SINGLE POINT ENERGY      -908.749777062041
Dispersion correction             ... done (  0.0 sec)
Dispersion correction           -0.059465060
FINAL SINGLE POINT ENERGY      -908.749778834320
Dispersion correction             ... done (  0.0 sec)
                    ***********************HURRAY********************

CARTESIAN COORDINATES (ANGSTROEM)
---------------------------------
  O      2.158775    0.062422   -1.184897
  O     -0.362688    2.553822   -2.417985
  O      0.389899   -3.723635    0.517018
  O     -2.349589   -1.214335   -1.154160
  N      0.412688   -1.895793    1.862119
  N     -1.439123   -0.150610    0.611321
  N      1.100283   -1.747611   -0.353747
  N     -0.980686    0.513951   -1.627298
  C      1.116363    0.330455    0.937797
  C     -0.106743    2.424868   -0.248562
  C      0.567557   -0.498268    2.056452
  C     -0.367630    0.450160    1.332585
  C      2.088748    1.416971    1.326984
  C     -1.121308    3.300180    0.365000
  C      1.505937   -0.427566   -0.298572
  C     -0.525511    1.802243   -1.463885
  C      0.606842   -2.546868    0.677222
  C     -1.628405   -0.337228   -0.737694
  H      0.875540   -0.224680    3.053691
  H     -0.606403    1.352882    1.873798
  H      2.356607    2.012489    0.465436
  H      1.646967    2.068757    2.078114
  H      2.982930    0.958263    1.748094
  H     -2.130032    2.883701    0.433292
  H     -0.807277    3.739035    1.308193
  H     -1.175366    4.112617   -0.373589
  H      0.010501   -2.460919    2.587993
  H     -1.946788   -0.859964    1.116041
  H      1.336298   -2.250574   -1.194756
  H     -1.155785    0.270237   -2.591405

 Multiplicity           Mult            ....    1
 Number of Electrons    NEL             ....  132
 Basis Dimension        Dim             ....  882

ORBITAL ENERGIES
----------------

  NO   OCC          E(Eh)            E(eV)
   0   2.0000     -19.335870      -526.1558
   1   2.0000     -19.332412      -526.0617
   2   2.0000     -19.323390      -525.8162
   3   2.0000     -19.321976      -525.7777
   4   2.0000     -14.569344      -396.4520
   5   2.0000     -14.568628      -396.4325
   6   2.0000     -14.567263      -396.3954
   7   2.0000     -14.567179      -396.3931
   8   2.0000     -10.512093      -286.0486
   9   2.0000     -10.509695      -285.9833
  10   2.0000     -10.491356      -285.4843
  11   2.0000     -10.477947      -285.1194
  12   2.0000     -10.441732      -284.1340
  13   2.0000     -10.439886      -284.0837
  14   2.0000     -10.419889      -283.5396
  15   2.0000     -10.414645      -283.3969
  16   2.0000     -10.379753      -282.4474
  17   2.0000     -10.358279      -281.8631
  18   2.0000      -1.227642       -33.4058
  19   2.0000      -1.220829       -33.2204
  20   2.0000      -1.203480       -32.7483
  21   2.0000      -1.197516       -32.5861
  22   2.0000      -1.132092       -30.8058
  23   2.0000      -1.093061       -29.7437
  24   2.0000      -1.074830       -29.2476
  25   2.0000      -1.064586       -28.9689
  26   2.0000      -1.014628       -27.6094
  27   2.0000      -0.937037       -25.4981
  28   2.0000      -0.876691       -23.8560
  29   2.0000      -0.823361       -22.4048
  30   2.0000      -0.817442       -22.2437
  31   2.0000      -0.809727       -22.0338
  32   2.0000      -0.792478       -21.5644
  33   2.0000      -0.776730       -21.1359
  34   2.0000      -0.727559       -19.7979
  35   2.0000      -0.701735       -19.0952
  36   2.0000      -0.694228       -18.8909
  37   2.0000      -0.668342       -18.1865
  38   2.0000      -0.639054       -17.3895
  39   2.0000      -0.631633       -17.1876
  40   2.0000      -0.615387       -16.7455
  41   2.0000      -0.608896       -16.5689
  42   2.0000      -0.592889       -16.1333
  43   2.0000      -0.589064       -16.0292
  44   2.0000      -0.578277       -15.7357
  45   2.0000      -0.567033       -15.4298
  46   2.0000      -0.562586       -15.3087
  47   2.0000      -0.561316       -15.2742
  48   2.0000      -0.553571       -15.0634
  49   2.0000      -0.551303       -15.0017
  50   2.0000      -0.543644       -14.7933
  51   2.0000      -0.541259       -14.7284
  52   2.0000      -0.531850       -14.4724
  53   2.0000      -0.507011       -13.7965
  54   2.0000      -0.503281       -13.6950
  55   2.0000      -0.480020       -13.0620
  56   2.0000      -0.446265       -12.1435
  57   2.0000      -0.424770       -11.5586
  58   2.0000      -0.418971       -11.4008
  59   2.0000      -0.409296       -11.1375
  60   2.0000      -0.401502       -10.9254
  61   2.0000      -0.394739       -10.7414
  62   2.0000      -0.389938       -10.6108
  63   2.0000      -0.389359       -10.5950
  64   2.0000      -0.372688       -10.1414
  65   2.0000      -0.336710        -9.1624
  66   0.0000      -0.019727        -0.5368
  67   0.0000       0.008709         0.2370
  68   0.0000       0.028741         0.7821
  69   0.0000       0.033839         0.9208
  70   0.0000       0.036718         0.9992

MULLIKEN ATOMIC CHARGES
-----------------------
   0 O :   -0.628487
   1 O :   -0.646867
   2 O :   -0.647951
   3 O :   -0.663597
   4 N :   -0.129833
   5 N :   -0.083218
   6 N :    0.010312
   7 N :    0.073142
   8 C :    2.062022
   9 C :    0.329676
  10 C :   -0.374292
  11 C :   -0.860742
  12 C :   -1.644501
  13 C :   -1.312283
  14 C :   -0.065824
  15 C :    0.504806
  16 C :    0.454282
  17 C :    0.570225
  18 H :    0.242406
  19 H :    0.426921
  20 H :    0.351115
  21 H :    0.332344
  22 H :    0.470055
  23 H :    0.335196
  24 H :    0.304299
  25 H :    0.403623
  26 H :    0.035097
  27 H :    0.092880
  28 H :    0.038139
  29 H :    0.021052
Sum of atomic charges:    0.0000000

LOEWDIN ATOMIC CHARGES
----------------------
   0 O :    0.126628
   1 O :    0.098770
   2 O :    0.097440
   3 O :    0.096222
   4 N :    0.290354
   5 N :    0.288897
   6 N :    0.344695
   7 N :    0.335544
   8 C :   -0.221812
   9 C :    0.148181
  10 C :   -0.046934
  11 C :   -0.073458
  12 C :    0.188209
  13 C :    0.116340
  14 C :   -0.370990
  15 C :   -0.503533
  16 C :   -0.474382
  17 C :   -0.475908
  18 H :    0.056174
  19 H :    0.024800
  20 H :   -0.014310
  21 H :    0.004491
  22 H :    0.011093
  23 H :    0.004667
  24 H :   -0.014416
  25 H :    0.022332
  26 H :   -0.024353
  27 H :   -0.026119
  28 H :   -0.003959
  29 H :   -0.004663

  Mayer bond orders larger than 0.100000
B(  0-O ,  8-C ) :  -0.1734 B(  0-O , 14-C ) :   1.6390 B(  1-O ,  9-C ) :   0.2332
B(  1-O , 15-C ) :   1.1933 B(  2-O , 16-C ) :   1.5710 B(  3-O , 17-C ) :   1.4738
B(  4-N , 10-C ) :   0.6559 B(  4-N , 16-C ) :   1.0988 B(  4-N , 26-H ) :   1.1248
B(  5-N , 11-C ) :   0.7256 B(  5-N , 17-C ) :   0.9324 B(  5-N , 19-H ) :  -0.1263
B(  5-N , 27-H ) :   1.0611 B(  6-N , 14-C ) :   1.0559 B(  6-N , 16-C ) :   0.9411
B(  6-N , 28-H ) :   1.1071 B(  7-N , 15-C ) :   0.9718 B(  7-N , 17-C ) :   0.9789
B(  7-N , 29-H ) :   1.1038 B(  8-C ,  9-C ) :   0.2120 B(  8-C , 10-C ) :   0.4859
B(  8-C , 11-C ) :  -0.1174 B(  8-C , 14-C ) :   0.1780 B(  8-C , 21-H ) :  -0.1124
B(  9-C , 12-C ) :  -0.2090 B(  9-C , 13-C ) :   0.5589 B(  9-C , 15-C ) :   0.9738
B(  9-C , 20-H ) :  -0.1072 B( 10-C , 11-C ) :   0.6224 B( 10-C , 12-C ) :  -0.1248
B( 10-C , 16-C ) :  -0.1136 B( 10-C , 18-H ) :   1.1608 B( 11-C , 19-H ) :   1.0814
B( 12-C , 14-C ) :   0.1026 B( 12-C , 20-H ) :   1.0280 B( 12-C , 21-H ) :   1.0405
B( 12-C , 22-H ) :   0.7068 B( 13-C , 23-H ) :   0.9393 B( 13-C , 24-H ) :   1.0688
B( 13-C , 25-H ) :   0.8571 B( 15-C , 17-C ) :  -0.1233

Dispersion correction           -0.059466462
FINAL SINGLE POINT ENERGY      -908.749779753376

DIPOLE MOMENT
-------------

Method             : SCF
Type of density    : Electron Density
Multiplicity       :   1
Irrep              :   0
Energy             :  -908.6903132915023207 Eh
Relativity type    :
Basis              : AO
                                X                 Y                 Z
Electronic contribution:     -1.020426986      -9.900356362      -7.235066741
Nuclear contribution   :      0.766571739      10.847916514       9.927575835
                        -----------------------------------------
Total Dipole Moment    :     -0.253855247       0.947560152       2.692509095
                        -----------------------------------------
Magnitude (a.u.)       :      2.865644422
Magnitude (Debye)      :      7.283889261

Rotational constants in cm-1:             0.022525             0.013611             0.011993
Rotational constants in MHz :           675.268967           408.040923           359.552178

                             ****ORCA TERMINATED NORMALLY****
TOTAL RUN TIME: 0 days 1 hours 22 minutes 49 seconds 43 msec
