                         Program Version 6.0.0  -   RELEASE  -
|  1> ! EnGrad wB97M-D3BJ def2-TZVPPD
|  2> %pal nprocs 8 end%pal nprocs 16 end
|  3> %tddft
|  4>  sf true
|  5>  nroots 2 Iroot 1 end
|  6> *xyz 0 3
|  7> O   0.75507065016581 1.36322317291448 -0.01183291851211
|  8> C   0.54228635563523 0.20985890299698 0.23821414304882
|  9> C   -0.45479292680507 -0.80125919112323 -0.23674883568025
| 10> H   1.21160626694685 -0.26530904868737 0.99281835694189
| 11> H   0.09884328335854 -1.65850441765371 -0.61908483400803
| 12> H   -1.13478733738213 -0.42389730450785 -0.996495227212
| 13> H   -1.01602629191923 -1.14251211393932 0.63312931542167
| 14> *
| 15>
| 16>                          ****END OF INPUT****

CARTESIAN COORDINATES (ANGSTROEM)
---------------------------------
  O      0.755071    1.363223   -0.011833
  C      0.542286    0.209859    0.238214
  C     -0.454793   -0.801259   -0.236749
  H      1.211606   -0.265309    0.992818
  H      0.098843   -1.658504   -0.619085
  H     -1.134787   -0.423897   -0.996495
  H     -1.016026   -1.142512    0.633129

 Total Charge           Charge          ....    0
 Multiplicity           Mult            ....    3
 Number of Electrons    NEL             ....   24
 Basis Dimension        Dim             ....  182

ORBITAL ENERGIES
----------------
                 SPIN UP ORBITALS
  NO   OCC          E(Eh)            E(eV)
   0   1.0000     -19.406914      -528.0890
   1   1.0000     -10.380168      -282.4587
   2   1.0000     -10.369508      -282.1687
   3   1.0000      -1.243726       -33.8435
   4   1.0000      -0.887069       -24.1384
   5   1.0000      -0.716157       -19.4876
   6   1.0000      -0.630800       -17.1649
   7   1.0000      -0.589141       -16.0314
   8   1.0000      -0.580913       -15.8074
   9   1.0000      -0.516713       -14.0605
  10   1.0000      -0.516037       -14.0421
  11   1.0000      -0.427067       -11.6211
  12   1.0000      -0.217929        -5.9302
  13   0.0000       0.038763         1.0548
  14   0.0000       0.059897         1.6299
  15   0.0000       0.077792         2.1168
  16   0.0000       0.087543         2.3822
  17   0.0000       0.106697         2.9034

                 SPIN DOWN ORBITALS
  NO   OCC          E(Eh)            E(eV)
   0   1.0000     -19.379705      -527.3486
   1   1.0000     -10.369924      -282.1800
   2   1.0000     -10.367510      -282.1143
   3   1.0000      -1.187298       -32.3080
   4   1.0000      -0.868059       -23.6211
   5   1.0000      -0.670476       -18.2446
   6   1.0000      -0.585390       -15.9293
   7   1.0000      -0.541616       -14.7381
   8   1.0000      -0.535815       -14.5803
   9   1.0000      -0.497960       -13.5502
  10   1.0000      -0.471595       -12.8328
  11   0.0000      -0.082580        -2.2471
  12   0.0000       0.039677         1.0797
  13   0.0000       0.059562         1.6208
  14   0.0000       0.077426         2.1069
  15   0.0000       0.084786         2.3071

----------------------------------------------------------------------------------------------------
          SPIN FLIP ABSORPTION SPECTRUM VIA TRANSITION ELECTRIC DIPOLE MOMENTS
----------------------------------------------------------------------------------------------------
     Transition      Energy     Energy  Wavelength fosc(D2)      D2        DX        DY        DZ
                      (eV)      (cm-1)    (nm)                 (au**2)    (au)      (au)      (au)
----------------------------------------------------------------------------------------------------
  1-3A  ->  2-3A    4.623483   37290.9   268.2   0.000264425   0.00233  -0.03034   0.01340   0.03513

Dispersion correction             ... done (  0.0 sec)

MULLIKEN ATOMIC CHARGES AND SPIN DENSITIES
------------------------------------------
   0 O :   -0.508096    0.054938
   1 C :    0.207922   -0.172886
   2 C :   -0.693537    0.043100
   3 H :    0.277938    0.076633
   4 H :    0.241115   -0.003458
   5 H :    0.236571    0.005083
   6 H :    0.238088   -0.003410
Sum of atomic charges       :    0.0000000

LOEWDIN ATOMIC CHARGES AND SPIN DENSITIES
-----------------------------------------
   0 O :    0.050667    0.021413
   1 C :   -0.238639   -0.015308
   2 C :    0.179235   -0.002030
   3 H :    0.028512   -0.002986
   4 H :   -0.007096   -0.001273
   5 H :   -0.006242    0.001450
   6 H :   -0.006437   -0.001265

  Mayer bond orders larger than 0.100000
B(  0-O ,  1-C ) :   1.7905 B(  1-C ,  2-C ) :   0.7379 B(  1-C ,  3-H ) :   0.9423
B(  2-C ,  4-H ) :   0.9885 B(  2-C ,  5-H ) :   0.9661 B(  2-C ,  6-H ) :   0.9881

Dispersion correction           -0.005512226
FINAL SINGLE POINT ENERGY      -153.921296192230

DIPOLE MOMENT
-------------

Method             : TDA/CIS
Type of density    : Electron Density
Level              : Relaxed density
State              :   1
Multiplicity       :   3
Irrep              :   0
Energy             :     0.0000000000000000 Eh
Relativity type    :
Basis              : AO
                                X                 Y                 Z
Electronic contribution:      1.444985977       2.975898837       0.114539012
Nuclear contribution   :     -1.827808156      -4.211166857       0.023343290
                        -----------------------------------------
Total Dipole Moment    :     -0.382822179      -1.235268021       0.137882302
                        -----------------------------------------
Magnitude (a.u.)       :      1.300558123
Magnitude (Debye)      :      3.305756037

Rotational constants in cm-1:             2.214126             0.317527             0.292656
Rotational constants in MHz :         66377.820087          9519.210438          8773.598116

                             ****ORCA TERMINATED NORMALLY****
TOTAL RUN TIME: 0 days 0 hours 0 minutes 16 seconds 385 msec
