                         Program Version 6.0.0  -   RELEASE  -
|  1> ! Opt wB97M-D3BJ def2-TZVPPD
|  2> %pal nprocs 8 end %pal nprocs 64 end
|  3> %geom
|  4> Constraints
|  5>     {A 2 1 0 109.0909090909091 C }
|  6> end
|  7> MaxIter 500
|  8> end
|  9> *xyz 0 1
| 10> O   -0.0007 0.8141 0.0
| 11> C   0.7509 -0.4065 0.0
| 12> C   -0.7502 -0.4076 0.0
| 13> H   1.2625 -0.6786 0.9136
| 14> H   1.2625 -0.6787 -0.9136
| 15> H   -1.2614 -0.6806 -0.9136
| 16> H   -1.2614 -0.6805 0.9136
| 17> *
| 18>
| 19>                          ****END OF INPUT****
 Total Charge           Charge          ....    0
 Multiplicity           Mult            ....    1
 Number of Electrons    NEL             ....   24
Dispersion correction           -0.005799452
FINAL SINGLE POINT ENERGY      -153.688947683901
Dispersion correction             ... done (  0.2 sec)
Dispersion correction           -0.005686238
FINAL SINGLE POINT ENERGY      -153.745648429037
Dispersion correction             ... done (  0.1 sec)
Dispersion correction           -0.005622477
FINAL SINGLE POINT ENERGY      -153.762149181068
Dispersion correction             ... done (  0.2 sec)
FINAL SINGLE POINT ENERGY      -153.770330553277
FINAL SINGLE POINT ENERGY      -153.772968269013
FINAL SINGLE POINT ENERGY      -153.773511192021
FINAL SINGLE POINT ENERGY      -153.773673704414
FINAL SINGLE POINT ENERGY      -153.773782531183
FINAL SINGLE POINT ENERGY      -153.773815515002
FINAL SINGLE POINT ENERGY      -153.773837403682
FINAL SINGLE POINT ENERGY      -153.773937216025
FINAL SINGLE POINT ENERGY      -153.774025900074
FINAL SINGLE POINT ENERGY      -153.774146094404
FINAL SINGLE POINT ENERGY      -153.774309520226
FINAL SINGLE POINT ENERGY      -153.774487072228
FINAL SINGLE POINT ENERGY      -153.774537023948
FINAL SINGLE POINT ENERGY      -153.774564849582
Dispersion correction             ... done (  0.1 sec)
Dispersion correction           -0.005610604
FINAL SINGLE POINT ENERGY      -153.774573320857
Dispersion correction             ... done (  0.1 sec)
Dispersion correction           -0.005609563
FINAL SINGLE POINT ENERGY      -153.774574558980
Dispersion correction             ... done (  0.1 sec)
                    ***********************HURRAY********************

CARTESIAN COORDINATES (ANGSTROEM)
---------------------------------
  O      0.532463    1.101236    0.211547
  C      0.586493   -0.210972    0.014719
  C     -0.754487   -0.742957    0.009707
  H      1.192742   -0.790053    0.755517
  H      1.070685   -0.464500   -0.950637
  H     -1.227792   -1.165056   -0.869617
  H     -1.397904   -0.446098    0.828763

 Multiplicity           Mult            ....    1
 Number of Electrons    NEL             ....   24
 Basis Dimension        Dim             ....  182

ORBITAL ENERGIES
----------------

  NO   OCC          E(Eh)            E(eV)
   0   2.0000     -19.303184      -525.2664
   1   2.0000     -10.449664      -284.3498
   2   2.0000     -10.405012      -283.1348
   3   2.0000      -1.111855       -30.2551
   4   2.0000      -0.892813       -24.2947
   5   2.0000      -0.735817       -20.0226
   6   2.0000      -0.624301       -16.9881
   7   2.0000      -0.571234       -15.5441
   8   2.0000      -0.530111       -14.4251
   9   2.0000      -0.499606       -13.5950
  10   2.0000      -0.348059        -9.4712
  11   2.0000      -0.340416        -9.2632
  12   0.0000      -0.076542        -2.0828
  13   0.0000       0.033447         0.9101
  14   0.0000       0.058714         1.5977
  15   0.0000       0.077338         2.1045
  16   0.0000       0.098271         2.6741

MULLIKEN ATOMIC CHARGES
-----------------------
   0 O :   -0.562799
   1 C :   -0.098904
   2 C :   -0.173010
   3 H :    0.208778
   4 H :    0.220987
   5 H :    0.165854
   6 H :    0.239093
Sum of atomic charges:    0.0000000

LOEWDIN ATOMIC CHARGES
----------------------
   0 O :   -0.055683
   1 C :   -0.416353
   2 C :    0.416572
   3 H :    0.041651
   4 H :    0.041419
   5 H :   -0.011071
   6 H :   -0.016535

  Mayer bond orders larger than 0.100000
B(  0-O ,  1-C ) :   0.9507 B(  0-O ,  2-C ) :   0.6394 B(  1-C ,  2-C ) :   0.9518
B(  1-C ,  3-H ) :   0.9763 B(  1-C ,  4-H ) :   0.9691 B(  2-C ,  5-H ) :   0.9808
B(  2-C ,  6-H ) :   0.9614

Dispersion correction           -0.005609362
FINAL SINGLE POINT ENERGY      -153.774574740475

DIPOLE MOMENT
-------------

Method             : SCF
Type of density    : Electron Density
Multiplicity       :   1
Irrep              :   0
Energy             :  -153.7689653780878416 Eh
Relativity type    :
Basis              : AO
                                X                 Y                 Z
Electronic contribution:      0.175250002       1.388108991       0.237697848
Nuclear contribution   :     -0.856753971      -2.952113426      -0.512456635
                        -----------------------------------------
Total Dipole Moment    :     -0.681503968      -1.564004435      -0.274758787
                        -----------------------------------------
Magnitude (a.u.)       :      1.728019075
Magnitude (Debye)      :      4.392275428

Rotational constants in cm-1:             1.356794             0.390713             0.336146
Rotational constants in MHz :         40675.674601         11713.267702         10077.402186

                             ****ORCA TERMINATED NORMALLY****
TOTAL RUN TIME: 0 days 0 hours 5 minutes 19 seconds 732 msec
