                         Program Version 6.0.0  -   RELEASE  -
|  1> ! Engrad def2-TZVPPD wB97M-D3BJ
|  2> %pal nprocs 8 end%pal nprocs 64 end
|  3> %tddft Nroots 2 Iroot 2
|  4> sf true
|  5> end
|  6> *xyz 0 3
|  7> O   2.19185183 1.35582306 -0.41029081
|  8> O   -0.73945917 0.80221523 -2.34138711
|  9> O   0.94989083 -2.90423497 -1.56422182
| 10> O   -2.44813967 -1.41874306 1.26003613
| 11> N   0.83916455 -2.34241167 0.61487757
| 12> N   -2.05162056 0.81647084 1.3675625
| 13> N   1.53382624 -0.75280915 -0.98436344
| 14> N   -1.53319293 -0.30567633 -0.53178543
| 15> C   1.49599769 -0.07652753 1.37420788
| 16> C   -0.93808395 2.07605928 -0.40711554
| 17> C   0.82428797 -1.3231393 1.58170648
| 18> C   -1.43653212 1.95622445 0.84411397
| 19> C   1.62338499 0.90116436 2.47433698
| 20> C   -0.32470883 3.33422103 -0.85315105
| 21> C   1.83438567 0.22746332 -0.02251166
| 22> C   -1.03602898 0.85939431 -1.18061129
| 23> C   1.111097 -2.05199771 -0.7168825
| 24> C   -2.03841635 -0.41963142 0.75256096
| 25> H   0.49989192 -1.59331378 2.58484413
| 26> H   -1.3587838 2.77764401 1.52906961
| 27> H   0.69459488 1.54192723 2.48760874
| 28> H   1.70265599 0.35126922 3.4159802
| 29> H   2.46019002 1.50690565 2.35018095
| 30> H   -0.77109927 3.62764083 -1.79728946
| 31> H   -0.50031054 4.13885093 -0.10765135
| 32> H   0.7303863 3.21043505 -1.10808124
| 33> H   0.49797782 -3.26541748 0.68272974
| 34> H   -2.43440864 0.73698327 2.3015348
| 35> H   1.86808649 -0.6031217 -1.93588733
| 36> H   -1.43829422 -1.17919262 -1.02476082
| 37> *
| 38>
| 39>                          ****END OF INPUT****

CARTESIAN COORDINATES (ANGSTROEM)
---------------------------------
  O      2.191852    1.355823   -0.410291
  O     -0.739459    0.802215   -2.341387
  O      0.949891   -2.904235   -1.564222
  O     -2.448140   -1.418743    1.260036
  N      0.839165   -2.342412    0.614878
  N     -2.051621    0.816471    1.367563
  N      1.533826   -0.752809   -0.984363
  N     -1.533193   -0.305676   -0.531785
  C      1.495998   -0.076528    1.374208
  C     -0.938084    2.076059   -0.407116
  C      0.824288   -1.323139    1.581706
  C     -1.436532    1.956224    0.844114
  C      1.623385    0.901164    2.474337
  C     -0.324709    3.334221   -0.853151
  C      1.834386    0.227463   -0.022512
  C     -1.036029    0.859394   -1.180611
  C      1.111097   -2.051998   -0.716882
  C     -2.038416   -0.419631    0.752561
  H      0.499892   -1.593314    2.584844
  H     -1.358784    2.777644    1.529070
  H      0.694595    1.541927    2.487609
  H      1.702656    0.351269    3.415980
  H      2.460190    1.506906    2.350181
  H     -0.771099    3.627641   -1.797289
  H     -0.500311    4.138851   -0.107651
  H      0.730386    3.210435   -1.108081
  H      0.497978   -3.265417    0.682730
  H     -2.434409    0.736983    2.301535
  H      1.868086   -0.603122   -1.935887
  H     -1.438294   -1.179193   -1.024761

 Total Charge           Charge          ....    0
 Multiplicity           Mult            ....    3
 Number of Electrons    NEL             ....  132
 Basis Dimension        Dim             ....  882

ORBITAL ENERGIES
----------------
                 SPIN UP ORBITALS
  NO   OCC          E(Eh)            E(eV)
   0   1.0000     -19.332201      -526.0559
   1   1.0000     -19.327881      -525.9384
   2   1.0000     -19.324475      -525.8457
   3   1.0000     -19.315488      -525.6011
   4   1.0000     -14.587098      -396.9351
   5   1.0000     -14.575265      -396.6131
   6   1.0000     -14.560690      -396.2165
   7   1.0000     -14.559456      -396.1829
   8   1.0000     -10.510084      -285.9939
   9   1.0000     -10.504435      -285.8402
  10   1.0000     -10.472521      -284.9718
  11   1.0000     -10.471810      -284.9524
  12   1.0000     -10.426270      -283.7132
  13   1.0000     -10.421140      -283.5736
  14   1.0000     -10.408942      -283.2417
  15   1.0000     -10.376024      -282.3460
  16   1.0000     -10.375729      -282.3379
  17   1.0000     -10.348347      -281.5928
  18   1.0000      -1.225822       -33.3563
  19   1.0000      -1.222549       -33.2672
  20   1.0000      -1.193624       -32.4802
  21   1.0000      -1.181286       -32.1444
  22   1.0000      -1.114569       -30.3290
  23   1.0000      -1.110684       -30.2232
  24   1.0000      -1.058983       -28.8164
  25   1.0000      -1.054199       -28.6862
  26   1.0000      -0.969627       -26.3849
  27   1.0000      -0.955942       -26.0125
  28   1.0000      -0.855764       -23.2865
  29   1.0000      -0.840192       -22.8628
  30   1.0000      -0.807962       -21.9858
  31   1.0000      -0.802937       -21.8490
  32   1.0000      -0.783102       -21.3093
  33   1.0000      -0.778094       -21.1730
  34   1.0000      -0.699389       -19.0313
  35   1.0000      -0.690474       -18.7888
  36   1.0000      -0.683911       -18.6102
  37   1.0000      -0.682350       -18.5677
  38   1.0000      -0.637054       -17.3351
  39   1.0000      -0.627304       -17.0698
  40   1.0000      -0.623389       -16.9633
  41   1.0000      -0.596489       -16.2313
  42   1.0000      -0.595776       -16.2119
  43   1.0000      -0.588456       -16.0127
  44   1.0000      -0.571839       -15.5605
  45   1.0000      -0.567147       -15.4329
  46   1.0000      -0.565990       -15.4014
  47   1.0000      -0.554562       -15.0904
  48   1.0000      -0.552070       -15.0226
  49   1.0000      -0.541801       -14.7431
  50   1.0000      -0.538051       -14.6411
  51   1.0000      -0.521828       -14.1997
  52   1.0000      -0.520198       -14.1553
  53   1.0000      -0.513500       -13.9730
  54   1.0000      -0.507788       -13.8176
  55   1.0000      -0.495583       -13.4855
  56   1.0000      -0.485968       -13.2239
  57   1.0000      -0.465262       -12.6604
  58   1.0000      -0.419357       -11.4113
  59   1.0000      -0.417269       -11.3545
  60   1.0000      -0.407065       -11.0768
  61   1.0000      -0.398634       -10.8474
  62   1.0000      -0.390762       -10.6332
  63   1.0000      -0.380014       -10.3407
  64   1.0000      -0.379720       -10.3327
  65   1.0000      -0.339682        -9.2432
  66   1.0000      -0.232006        -6.3132
  67   0.0000       0.015995         0.4352
  68   0.0000       0.024670         0.6713
  69   0.0000       0.032131         0.8743
  70   0.0000       0.041074         1.1177
  71   0.0000       0.043431         1.1818

                 SPIN DOWN ORBITALS
  NO   OCC          E(Eh)            E(eV)
   0   1.0000     -19.330433      -526.0078
   1   1.0000     -19.324338      -525.8420
   2   1.0000     -19.321329      -525.7601
   3   1.0000     -19.315485      -525.6011
   4   1.0000     -14.582757      -396.8170
   5   1.0000     -14.575166      -396.6104
   6   1.0000     -14.560623      -396.2147
   7   1.0000     -14.558821      -396.1656
   8   1.0000     -10.510343      -286.0010
   9   1.0000     -10.504449      -285.8406
  10   1.0000     -10.472744      -284.9778
  11   1.0000     -10.471809      -284.9524
  12   1.0000     -10.426260      -283.7130
  13   1.0000     -10.411193      -283.3030
  14   1.0000     -10.397755      -282.9373
  15   1.0000     -10.376485      -282.3585
  16   1.0000     -10.375724      -282.3378
  17   1.0000     -10.348323      -281.5922
  18   1.0000      -1.225335       -33.3431
  19   1.0000      -1.219150       -33.1748
  20   1.0000      -1.193516       -32.4772
  21   1.0000      -1.171855       -31.8878
  22   1.0000      -1.114363       -30.3234
  23   1.0000      -1.100759       -29.9532
  24   1.0000      -1.054574       -28.6964
  25   1.0000      -1.053178       -28.6584
  26   1.0000      -0.955987       -26.0137
  27   1.0000      -0.947488       -25.7825
  28   1.0000      -0.843003       -22.9393
  29   1.0000      -0.840002       -22.8576
  30   1.0000      -0.803395       -21.8615
  31   1.0000      -0.792711       -21.5708
  32   1.0000      -0.779510       -21.2115
  33   1.0000      -0.777920       -21.1683
  34   1.0000      -0.690514       -18.7898
  35   1.0000      -0.689895       -18.7730
  36   1.0000      -0.682391       -18.5688
  37   1.0000      -0.673605       -18.3297
  38   1.0000      -0.630183       -17.1482
  39   1.0000      -0.624101       -16.9827
  40   1.0000      -0.617884       -16.8135
  41   1.0000      -0.588852       -16.0235
  42   1.0000      -0.588631       -16.0175
  43   1.0000      -0.585995       -15.9457
  44   1.0000      -0.566192       -15.4069
  45   1.0000      -0.561199       -15.2710
  46   1.0000      -0.553563       -15.0632
  47   1.0000      -0.548714       -14.9313
  48   1.0000      -0.544566       -14.8184
  49   1.0000      -0.541369       -14.7314
  50   1.0000      -0.529562       -14.4101
  51   1.0000      -0.521132       -14.1807
  52   1.0000      -0.512962       -13.9584
  53   1.0000      -0.503884       -13.7114
  54   1.0000      -0.498341       -13.5606
  55   1.0000      -0.494449       -13.4546
  56   1.0000      -0.467423       -12.7192
  57   1.0000      -0.437302       -11.8996
  58   1.0000      -0.416981       -11.3466
  59   1.0000      -0.415150       -11.2968
  60   1.0000      -0.398369       -10.8402
  61   1.0000      -0.384298       -10.4573
  62   1.0000      -0.380982       -10.3670
  63   1.0000      -0.378674       -10.3042
  64   1.0000      -0.338804        -9.2193
  65   0.0000      -0.098237        -2.6732
  66   0.0000       0.014906         0.4056
  67   0.0000       0.025132         0.6839
  68   0.0000       0.031016         0.8440
  69   0.0000       0.038979         1.0607

----------------------------------------------------------------------------------------------------
          SPIN FLIP ABSORPTION SPECTRUM VIA TRANSITION ELECTRIC DIPOLE MOMENTS
----------------------------------------------------------------------------------------------------
     Transition      Energy     Energy  Wavelength fosc(D2)      D2        DX        DY        DZ
                      (eV)      (cm-1)    (nm)                 (au**2)    (au)      (au)      (au)
----------------------------------------------------------------------------------------------------
  1-3A  ->  2-3A    3.470249   27989.5   357.3   0.000841990   0.00990  -0.05029  -0.03443   0.07867

Dispersion correction             ... done (  0.1 sec)

MULLIKEN ATOMIC CHARGES AND SPIN DENSITIES
------------------------------------------
   0 O :   -0.707193    0.008129
   1 O :   -0.644663   -0.000739
   2 O :   -0.617702    0.000560
   3 O :   -0.627016   -0.001181
   4 N :    0.094380    0.009516
   5 N :   -0.010613   -0.002251
   6 N :    0.124490   -0.003766
   7 N :    0.036669   -0.006741
   8 C :    0.993540    0.084717
   9 C :    0.846965    0.004826
  10 C :   -0.359831    0.091527
  11 C :   -0.396153   -0.002352
  12 C :   -1.031241   -0.027181
  13 C :   -1.122178   -0.000979
  14 C :    0.138449   -0.152141
  15 C :    0.462876    0.003167
  16 C :    0.339676    0.003034
  17 C :    0.454627    0.003641
  18 H :    0.107128   -0.027596
  19 H :    0.151587   -0.000852
  20 H :    0.178570    0.017476
  21 H :    0.346989   -0.000345
  22 H :    0.308995    0.001491
  23 H :    0.273959    0.000006
  24 H :    0.329134    0.000478
  25 H :    0.186088   -0.000788
  26 H :    0.041974   -0.001167
  27 H :    0.053978    0.000259
  28 H :    0.049857    0.001890
  29 H :   -0.003341   -0.002638
Sum of atomic charges       :   -0.0000000

LOEWDIN ATOMIC CHARGES AND SPIN DENSITIES
-----------------------------------------
   0 O :    0.042721    0.004912
   1 O :    0.109087   -0.000093
   2 O :    0.102135   -0.000255
   3 O :    0.092008   -0.001038
   4 N :    0.313200    0.015442
   5 N :    0.275590   -0.000646
   6 N :    0.305358   -0.004128
   7 N :    0.344980   -0.000325
   8 C :   -0.071684    0.003514
   9 C :   -0.148656   -0.000090
  10 C :    0.040869   -0.006727
  11 C :    0.050982   -0.000142
  12 C :    0.203107    0.000177
  13 C :    0.173376   -0.000049
  14 C :   -0.388247   -0.006213
  15 C :   -0.402270   -0.000040
  16 C :   -0.469058   -0.002270
  17 C :   -0.518854   -0.000377
  18 H :    0.001082   -0.003763
  19 H :    0.020152   -0.000039
  20 H :    0.027497    0.000750
  21 H :    0.005566    0.000013
  22 H :   -0.033598    0.000121
  23 H :   -0.004895   -0.000012
  24 H :    0.014696   -0.000002
  25 H :   -0.009976   -0.000043
  26 H :   -0.036920    0.001772
  27 H :   -0.017832   -0.000086
  28 H :    0.002704   -0.000348
  29 H :   -0.023123   -0.000014

  Mayer bond orders larger than 0.100000
B(  0-O ,  8-C ) :  -0.1146 B(  0-O , 14-C ) :   1.2961 B(  1-O , 15-C ) :   1.4293
B(  2-O , 16-C ) :   1.5699 B(  3-O , 17-C ) :   1.5457 B(  4-N , 10-C ) :   0.8735
B(  4-N , 16-C ) :   0.9834 B(  4-N , 26-H ) :   1.0831 B(  5-N , 11-C ) :   0.8887
B(  5-N , 17-C ) :   1.0167 B(  5-N , 27-H ) :   1.1006 B(  6-N , 14-C ) :   0.9463
B(  6-N , 16-C ) :   0.9957 B(  6-N , 28-H ) :   1.0963 B(  7-N , 15-C ) :   0.9938
B(  7-N , 17-C ) :   0.8885 B(  7-N , 29-H ) :   1.1289 B(  8-C , 10-C ) :   0.3568
B(  8-C , 12-C ) :   0.5529 B(  8-C , 14-C ) :   1.0134 B(  8-C , 18-H ) :  -0.1457
B(  9-C , 11-C ) :   1.0104 B(  9-C , 13-C ) :   0.5341 B(  9-C , 15-C ) :   0.8548
B(  9-C , 19-H ) :  -0.1551 B( 10-C , 16-C ) :  -0.1175 B( 10-C , 18-H ) :   1.2007
B( 11-C , 19-H ) :   1.1737 B( 12-C , 20-H ) :   0.8881 B( 12-C , 21-H ) :   0.9403
B( 12-C , 22-H ) :   1.0057 B( 13-C , 23-H ) :   0.9885 B( 13-C , 24-H ) :   0.9149
B( 13-C , 25-H ) :   0.9991 B( 14-C , 16-C ) :  -0.1007

Dispersion correction           -0.057443559
FINAL SINGLE POINT ENERGY      -908.763106672524

DIPOLE MOMENT
-------------

Method             : TDA/CIS
Type of density    : Electron Density
Level              : Relaxed density
State              :   2
Multiplicity       :   3
Irrep              :   0
Energy             :     0.0000000000000000 Eh
Relativity type    :
Basis              : AO
                                X                 Y                 Z
Electronic contribution:     -1.954241380      -9.552692701      -5.726134606
Nuclear contribution   :      1.928315361      10.222762130       8.158113172
                        -----------------------------------------
Total Dipole Moment    :     -0.025926019       0.670069428       2.431978566
                        -----------------------------------------
Magnitude (a.u.)       :      2.522733625
Magnitude (Debye)      :      6.412279282

Rotational constants in cm-1:             0.017907             0.014344             0.013161
Rotational constants in MHz :           536.846873           430.028569           394.562221

                             ****ORCA TERMINATED NORMALLY****
TOTAL RUN TIME: 0 days 0 hours 4 minutes 54 seconds 540 msec
