                         Program Version 6.0.0  -   RELEASE  -
|  1> ! Opt wB97M-D3BJ def2-TZVPPD
|  2> %pal nprocs 8 end %pal nprocs 64 end
|  3> %geom
|  4> Constraints
|  5>     {A 2 1 0 132.72727272727272 C }
|  6> end
|  7> MaxIter 500
|  8> end
|  9> *xyz 0 1
| 10> O   -0.0007 0.8141 0.0
| 11> C   0.7509 -0.4065 0.0
| 12> C   -0.7502 -0.4076 0.0
| 13> H   1.2625 -0.6786 0.9136
| 14> H   1.2625 -0.6787 -0.9136
| 15> H   -1.2614 -0.6806 -0.9136
| 16> H   -1.2614 -0.6805 0.9136
| 17> *
| 18>
| 19>                          ****END OF INPUT****
 Total Charge           Charge          ....    0
 Multiplicity           Mult            ....    1
 Number of Electrons    NEL             ....   24
Dispersion correction           -0.005736410
FINAL SINGLE POINT ENERGY      -153.541503349661
Dispersion correction             ... done (  0.1 sec)
Dispersion correction           -0.005651262
FINAL SINGLE POINT ENERGY      -153.669863536522
Dispersion correction             ... done (  0.1 sec)
Dispersion correction           -0.005585677
FINAL SINGLE POINT ENERGY      -153.705755811473
Dispersion correction             ... done (  0.1 sec)
FINAL SINGLE POINT ENERGY      -153.720272279581
FINAL SINGLE POINT ENERGY      -153.725895358413
FINAL SINGLE POINT ENERGY      -153.730106618044
FINAL SINGLE POINT ENERGY      -153.733734509873
FINAL SINGLE POINT ENERGY      -153.735039707578
FINAL SINGLE POINT ENERGY      -153.735751914122
FINAL SINGLE POINT ENERGY      -153.736653039624
FINAL SINGLE POINT ENERGY      -153.928812992219
FINAL SINGLE POINT ENERGY      -153.928876168355
FINAL SINGLE POINT ENERGY      -153.928961006511
FINAL SINGLE POINT ENERGY      -153.929027550102
FINAL SINGLE POINT ENERGY      -153.929063839423
FINAL SINGLE POINT ENERGY      -153.929069680698
FINAL SINGLE POINT ENERGY      -153.929088340409
Dispersion correction             ... done (  0.1 sec)
Dispersion correction           -0.005515881
FINAL SINGLE POINT ENERGY      -153.929093799975
Dispersion correction             ... done (  0.1 sec)
Dispersion correction           -0.005516850
FINAL SINGLE POINT ENERGY      -153.929096767315
Dispersion correction             ... done (  0.1 sec)
                    ***********************HURRAY********************

CARTESIAN COORDINATES (ANGSTROEM)
---------------------------------
  O      0.719194    1.363748   -0.012794
  C      0.527104    0.212889    0.265529
  C     -0.436522   -0.809789   -0.250736
  H      1.168000   -0.230520    1.060917
  H      0.140962   -1.655472   -0.624401
  H     -1.090586   -0.428156   -1.030422
  H     -1.025952   -1.171099    0.591907

 Multiplicity           Mult            ....    1
 Number of Electrons    NEL             ....   24
 Basis Dimension        Dim             ....  182

ORBITAL ENERGIES
----------------

  NO   OCC          E(Eh)            E(eV)
   0   2.0000     -19.341239      -526.3019
   1   2.0000     -10.443894      -284.1928
   2   2.0000     -10.361895      -281.9615
   3   2.0000      -1.189470       -32.3671
   4   2.0000      -0.890876       -24.2420
   5   2.0000      -0.698990       -19.0205
   6   2.0000      -0.597216       -16.2511
   7   2.0000      -0.564022       -15.3478
   8   2.0000      -0.558337       -15.1931
   9   2.0000      -0.509677       -13.8690
  10   2.0000      -0.478954       -13.0330
  11   2.0000      -0.366485        -9.9726
  12   0.0000       0.035945         0.9781
  13   0.0000       0.056672         1.5421
  14   0.0000       0.059238         1.6119
  15   0.0000       0.082256         2.2383
  16   0.0000       0.085627         2.3300

MULLIKEN ATOMIC CHARGES
-----------------------
   0 O :   -0.473946
   1 C :    0.231747
   2 C :   -0.693127
   3 H :    0.228298
   4 H :    0.233203
   5 H :    0.240605
   6 H :    0.233219
Sum of atomic charges:   -0.0000000

LOEWDIN ATOMIC CHARGES
----------------------
   0 O :    0.075048
   1 C :   -0.241944
   2 C :    0.171226
   3 H :    0.021898
   4 H :   -0.008714
   5 H :   -0.008653
   6 H :   -0.008862

  Mayer bond orders larger than 0.100000
B(  0-O ,  1-C ) :   1.7703 B(  1-C ,  2-C ) :   0.7492 B(  1-C ,  3-H ) :   0.9967
B(  2-C ,  4-H ) :   0.9903 B(  2-C ,  5-H ) :   0.9588 B(  2-C ,  6-H ) :   0.9906

Dispersion correction           -0.005517026
FINAL SINGLE POINT ENERGY      -153.929096908949

DIPOLE MOMENT
-------------

Method             : SCF
Type of density    : Electron Density
Multiplicity       :   1
Irrep              :   0
Energy             :  -153.9235798824488484 Eh
Relativity type    :
Basis              : AO
                                X                 Y                 Z
Electronic contribution:      1.428452341       3.085582070       0.134672128
Nuclear contribution   :     -1.754489126      -4.201987565       0.000418507
                        -----------------------------------------
Total Dipole Moment    :     -0.326036785      -1.116405494       0.135090635
                        -----------------------------------------
Magnitude (a.u.)       :      1.170858955
Magnitude (Debye)      :      2.976086950

Rotational constants in cm-1:             2.155975             0.321486             0.294944
Rotational constants in MHz :         64634.515065          9637.910433          8842.209282

                             ****ORCA TERMINATED NORMALLY****
TOTAL RUN TIME: 0 days 0 hours 11 minutes 0 seconds 77 msec
