                         Program Version 6.0.0  -   RELEASE  -
|  1> ! Engrad def2-TZVPPD wB97M-D3BJ
|  2> %pal nprocs 8 end%pal nprocs 64 end
|  3> %tddft
|  4>  Iroot 2 Nroots 3
|  5> sf true
|  6> end
|  7> *xyz 0 3
|  8> O   2.85507641 -0.30919959 -1.89745673
|  9> O   -1.69708412 1.27109851 -2.03617056
| 10> O   -0.75833521 -2.83669073 -0.98566577
| 11> O   -3.2035434 -0.25441479 1.95255905
| 12> N   0.07756058 -1.54842898 0.77997843
| 13> N   -1.17251421 0.81303718 1.89328655
| 14> N   1.04808164 -1.49384186 -1.347254
| 15> N   -2.3363469 0.35787862 -0.06398168
| 16> C   2.06975057 -0.20473994 0.38008874
| 17> C   -0.16744655 1.46153933 -0.24406373
| 18> C   0.91650888 -0.44664757 1.26857052
| 19> C   0.11268798 0.97366424 1.17382776
| 20> C   3.19762488 0.59965605 0.94346409
| 21> C   0.84610278 2.31437604 -0.94506311
| 22> C   2.09024415 -0.63517532 -1.01598711
| 23> C   -1.41492072 1.05497209 -0.84683994
| 24> C   0.00454108 -2.02803389 -0.51127794
| 25> C   -2.28883159 0.29222789 1.34992377
| 26> H   1.21535841 -0.54322078 2.2529683
| 27> H   0.70691476 1.70112125 1.74118469
| 28> H   3.3856348 0.30619483 1.9546664
| 29> H   4.19837844 0.49258762 0.34800896
| 30> H   3.06835999 1.68582438 0.86953864
| 31> H   0.40005116 2.85914454 -1.72688591
| 32> H   1.13014754 3.17558016 -0.35007022
| 33> H   1.59398543 1.69960765 -1.40132548
| 34> H   -0.74331655 -1.72580006 1.34646984
| 35> H   -1.2058017 0.86436624 2.92848813
| 36> H   1.18507746 -1.93640265 -2.18149445
| 37> H   -2.92934044 -0.29585333 -0.54388953
| 38> *
| 39>
| 40>                          ****END OF INPUT****

CARTESIAN COORDINATES (ANGSTROEM)
---------------------------------
  O      2.855076   -0.309200   -1.897457
  O     -1.697084    1.271099   -2.036171
  O     -0.758335   -2.836691   -0.985666
  O     -3.203543   -0.254415    1.952559
  N      0.077561   -1.548429    0.779978
  N     -1.172514    0.813037    1.893287
  N      1.048082   -1.493842   -1.347254
  N     -2.336347    0.357879   -0.063982
  C      2.069751   -0.204740    0.380089
  C     -0.167447    1.461539   -0.244064
  C      0.916509   -0.446648    1.268571
  C      0.112688    0.973664    1.173828
  C      3.197625    0.599656    0.943464
  C      0.846103    2.314376   -0.945063
  C      2.090244   -0.635175   -1.015987
  C     -1.414921    1.054972   -0.846840
  C      0.004541   -2.028034   -0.511278
  C     -2.288832    0.292228    1.349924
  H      1.215358   -0.543221    2.252968
  H      0.706915    1.701121    1.741185
  H      3.385635    0.306195    1.954666
  H      4.198378    0.492588    0.348009
  H      3.068360    1.685824    0.869539
  H      0.400051    2.859145   -1.726886
  H      1.130148    3.175580   -0.350070
  H      1.593985    1.699608   -1.401325
  H     -0.743317   -1.725800    1.346470
  H     -1.205802    0.864366    2.928488
  H      1.185077   -1.936403   -2.181494
  H     -2.929340   -0.295853   -0.543890

 Total Charge           Charge          ....    0
 Multiplicity           Mult            ....    3
 Number of Electrons    NEL             ....  132
 Basis Dimension        Dim             ....  882

ORBITAL ENERGIES
----------------
                 SPIN UP ORBITALS
  NO   OCC          E(Eh)            E(eV)
   0   1.0000     -19.335429      -526.1438
   1   1.0000     -19.331929      -526.0485
   2   1.0000     -19.331043      -526.0244
   3   1.0000     -19.321963      -525.7773
   4   1.0000     -14.573116      -396.5546
   5   1.0000     -14.571242      -396.5036
   6   1.0000     -14.556779      -396.1101
   7   1.0000     -14.553237      -396.0137
   8   1.0000     -10.517182      -286.1871
   9   1.0000     -10.508512      -285.9511
  10   1.0000     -10.484241      -285.2907
  11   1.0000     -10.479164      -285.1525
  12   1.0000     -10.460149      -284.6351
  13   1.0000     -10.453210      -284.4463
  14   1.0000     -10.427639      -283.7505
  15   1.0000     -10.423975      -283.6508
  16   1.0000     -10.386663      -282.6355
  17   1.0000     -10.364289      -282.0266
  18   1.0000      -1.221419       -33.2365
  19   1.0000      -1.212564       -32.9955
  20   1.0000      -1.202387       -32.7186
  21   1.0000      -1.184493       -32.2317
  22   1.0000      -1.120001       -30.4768
  23   1.0000      -1.097294       -29.8589
  24   1.0000      -1.058248       -28.7964
  25   1.0000      -1.051187       -28.6043
  26   1.0000      -0.991809       -26.9885
  27   1.0000      -0.955256       -25.9938
  28   1.0000      -0.891459       -24.2578
  29   1.0000      -0.846224       -23.0269
  30   1.0000      -0.831266       -22.6199
  31   1.0000      -0.809073       -22.0160
  32   1.0000      -0.783675       -21.3249
  33   1.0000      -0.776807       -21.1380
  34   1.0000      -0.698525       -19.0078
  35   1.0000      -0.694205       -18.8903
  36   1.0000      -0.692540       -18.8450
  37   1.0000      -0.682541       -18.5729
  38   1.0000      -0.656393       -17.8614
  39   1.0000      -0.644627       -17.5412
  40   1.0000      -0.633134       -17.2285
  41   1.0000      -0.605147       -16.4669
  42   1.0000      -0.597361       -16.2550
  43   1.0000      -0.585825       -15.9411
  44   1.0000      -0.581210       -15.8155
  45   1.0000      -0.573677       -15.6105
  46   1.0000      -0.568207       -15.4617
  47   1.0000      -0.560343       -15.2477
  48   1.0000      -0.559488       -15.2244
  49   1.0000      -0.555869       -15.1260
  50   1.0000      -0.553809       -15.0699
  51   1.0000      -0.539243       -14.6735
  52   1.0000      -0.536381       -14.5957
  53   1.0000      -0.524303       -14.2670
  54   1.0000      -0.513321       -13.9682
  55   1.0000      -0.504012       -13.7149
  56   1.0000      -0.484160       -13.1747
  57   1.0000      -0.428813       -11.6686
  58   1.0000      -0.420547       -11.4437
  59   1.0000      -0.415335       -11.3018
  60   1.0000      -0.407915       -11.0999
  61   1.0000      -0.399041       -10.8585
  62   1.0000      -0.397738       -10.8230
  63   1.0000      -0.392102       -10.6696
  64   1.0000      -0.384654       -10.4670
  65   1.0000      -0.349689        -9.5155
  66   1.0000      -0.331662        -9.0250
  67   0.0000       0.004392         0.1195
  68   0.0000       0.028607         0.7784
  69   0.0000       0.030447         0.8285
  70   0.0000       0.037328         1.0157
  71   0.0000       0.055020         1.4972

                 SPIN DOWN ORBITALS
  NO   OCC          E(Eh)            E(eV)
   0   1.0000     -19.332074      -526.0525
   1   1.0000     -19.330995      -526.0231
   2   1.0000     -19.326424      -525.8987
   3   1.0000     -19.321753      -525.7716
   4   1.0000     -14.572591      -396.5404
   5   1.0000     -14.571121      -396.5004
   6   1.0000     -14.556443      -396.1010
   7   1.0000     -14.552176      -395.9848
   8   1.0000     -10.517244      -286.1888
   9   1.0000     -10.508555      -285.9523
  10   1.0000     -10.485082      -285.3136
  11   1.0000     -10.480524      -285.1896
  12   1.0000     -10.459349      -284.6134
  13   1.0000     -10.452906      -284.4380
  14   1.0000     -10.416317      -283.4424
  15   1.0000     -10.412596      -283.3411
  16   1.0000     -10.387319      -282.6533
  17   1.0000     -10.364733      -282.0387
  18   1.0000      -1.219551       -33.1857
  19   1.0000      -1.211163       -32.9574
  20   1.0000      -1.198988       -32.6261
  21   1.0000      -1.177556       -32.0429
  22   1.0000      -1.117325       -30.4040
  23   1.0000      -1.095196       -29.8018
  24   1.0000      -1.055954       -28.7340
  25   1.0000      -1.049290       -28.5526
  26   1.0000      -0.978633       -26.6300
  27   1.0000      -0.937860       -25.5205
  28   1.0000      -0.885539       -24.0968
  29   1.0000      -0.841832       -22.9074
  30   1.0000      -0.821925       -22.3657
  31   1.0000      -0.802947       -21.8493
  32   1.0000      -0.782080       -21.2815
  33   1.0000      -0.775211       -21.0946
  34   1.0000      -0.694981       -18.9114
  35   1.0000      -0.687965       -18.7205
  36   1.0000      -0.686033       -18.6679
  37   1.0000      -0.674884       -18.3645
  38   1.0000      -0.647482       -17.6189
  39   1.0000      -0.640404       -17.4263
  40   1.0000      -0.624316       -16.9885
  41   1.0000      -0.600286       -16.3346
  42   1.0000      -0.590287       -16.0625
  43   1.0000      -0.578533       -15.7427
  44   1.0000      -0.575226       -15.6527
  45   1.0000      -0.569955       -15.5093
  46   1.0000      -0.561238       -15.2721
  47   1.0000      -0.556781       -15.1508
  48   1.0000      -0.550734       -14.9862
  49   1.0000      -0.549655       -14.9569
  50   1.0000      -0.547584       -14.9005
  51   1.0000      -0.529910       -14.4196
  52   1.0000      -0.526343       -14.3225
  53   1.0000      -0.516004       -14.0412
  54   1.0000      -0.500838       -13.6285
  55   1.0000      -0.499722       -13.5981
  56   1.0000      -0.480575       -13.0771
  57   1.0000      -0.425587       -11.5808
  58   1.0000      -0.416851       -11.3431
  59   1.0000      -0.411227       -11.1900
  60   1.0000      -0.393565       -10.7095
  61   1.0000      -0.391159       -10.6440
  62   1.0000      -0.385948       -10.5022
  63   1.0000      -0.384070       -10.4511
  64   1.0000      -0.375540       -10.2190
  65   0.0000      -0.065203        -1.7743
  66   0.0000      -0.059134        -1.6091
  67   0.0000       0.003871         0.1053
  68   0.0000       0.028223         0.7680
  69   0.0000       0.030351         0.8259

----------------------------------------------------------------------------------------------------
          SPIN FLIP ABSORPTION SPECTRUM VIA TRANSITION ELECTRIC DIPOLE MOMENTS
----------------------------------------------------------------------------------------------------
     Transition      Energy     Energy  Wavelength fosc(D2)      D2        DX        DY        DZ
                      (eV)      (cm-1)    (nm)                 (au**2)    (au)      (au)      (au)
----------------------------------------------------------------------------------------------------
  1-3A  ->  2-3A    0.058143     469.0  21324.0   0.000000071   0.00005  -0.00261   0.00655   0.00013
  1-3A  ->  3-3A    1.847341   14899.8   671.1   0.000002500   0.00006   0.00580  -0.00391   0.00250

Dispersion correction             ... done (  0.1 sec)

MULLIKEN ATOMIC CHARGES AND SPIN DENSITIES
------------------------------------------
   0 O :   -0.680214    0.127616
   1 O :   -0.691699   -0.195281
   2 O :   -0.634073    0.002136
   3 O :   -0.649395    0.001724
   4 N :   -0.224966    0.009663
   5 N :   -0.255636   -0.011419
   6 N :    0.114153    0.018630
   7 N :    0.019124   -0.013417
   8 C :   -0.085822    0.421055
   9 C :    1.184539    0.320983
  10 C :    0.492117    0.067160
  11 C :   -0.107256   -0.457240
  12 C :   -1.376851    0.025998
  13 C :   -1.404851   -0.067660
  14 C :    0.545152    0.121564
  15 C :   -0.100518   -0.434275
  16 C :    0.353221   -0.003784
  17 C :    0.400369    0.026044
  18 H :    0.550103    0.020378
  19 H :    0.516935   -0.011160
  20 H :    0.348777    0.003278
  21 H :    0.337925    0.012078
  22 H :    0.242733    0.019282
  23 H :    0.343779   -0.019473
  24 H :    0.319828    0.014277
  25 H :    0.268672    0.007967
  26 H :    0.065271   -0.004155
  27 H :    0.099334    0.000929
  28 H :   -0.043876   -0.004925
  29 H :    0.053124    0.002027
Sum of atomic charges       :   -0.0000000

LOEWDIN ATOMIC CHARGES AND SPIN DENSITIES
-----------------------------------------
   0 O :    0.093353    0.106676
   1 O :    0.064006   -0.174325
   2 O :    0.102348    0.001721
   3 O :    0.066911    0.001389
   4 N :    0.295198    0.000416
   5 N :    0.252884    0.002004
   6 N :    0.362309    0.020332
   7 N :    0.322978   -0.016879
   8 C :   -0.059644    0.499949
   9 C :    0.030655   -0.477336
  10 C :   -0.058053    0.026513
  11 C :   -0.058315   -0.008765
  12 C :    0.180563    0.072704
  13 C :    0.225906   -0.061997
  14 C :   -0.420707    0.081377
  15 C :   -0.399456   -0.084865
  16 C :   -0.432901   -0.000646
  17 C :   -0.502857    0.001231
  18 H :    0.010461    0.002818
  19 H :    0.053082   -0.004579
  20 H :   -0.023359    0.005916
  21 H :    0.061161    0.007065
  22 H :   -0.006134    0.025078
  23 H :   -0.023330   -0.000857
  24 H :    0.009962   -0.009075
  25 H :   -0.018944   -0.017094
  26 H :   -0.034991    0.000077
  27 H :    0.007106    0.000122
  28 H :   -0.084263    0.002414
  29 H :   -0.015928   -0.001385

  Mayer bond orders larger than 0.100000
B(  0-O ,  8-C ) :  -0.1074 B(  0-O , 14-C ) :   1.4926 B(  1-O , 15-C ) :   1.2905
B(  2-O , 16-C ) :   1.5859 B(  3-O , 17-C ) :   1.6125 B(  4-N ,  8-C ) :   0.2441
B(  4-N ,  9-C ) :   0.1265 B(  4-N , 10-C ) :   0.5160 B(  4-N , 16-C ) :   1.0073
B(  4-N , 26-H ) :   1.0627 B(  5-N ,  9-C ) :   0.2114 B(  5-N , 11-C ) :   0.1924
B(  5-N , 17-C ) :   1.1617 B(  5-N , 27-H ) :   1.0617 B(  6-N ,  8-C ) :  -0.1244
B(  6-N , 10-C ) :   0.1274 B(  6-N , 14-C ) :   1.1067 B(  6-N , 16-C ) :   0.9443
B(  6-N , 28-H ) :   1.1359 B(  7-N ,  9-C ) :  -0.1641 B(  7-N , 11-C ) :   0.1564
B(  7-N , 15-C ) :   1.0134 B(  7-N , 17-C ) :   0.8807 B(  7-N , 29-H ) :   1.1117
B(  8-C ,  9-C ) :   0.1542 B(  8-C , 10-C ) :   0.2239 B(  8-C , 11-C ) :   0.3193
B(  8-C , 12-C ) :   0.6122 B(  8-C , 14-C ) :   0.5185 B(  8-C , 16-C ) :   0.1584
B(  8-C , 18-H ) :  -0.2242 B(  9-C , 11-C ) :   0.3018 B(  9-C , 13-C ) :   0.3514
B(  9-C , 15-C ) :   0.3100 B(  9-C , 19-H ) :  -0.1148 B(  9-C , 23-H ) :  -0.1102
B(  9-C , 24-H ) :  -0.1062 B( 10-C , 11-C ) :   0.5147 B( 10-C , 12-C ) :  -0.1391
B( 10-C , 16-C ) :  -0.1552 B( 10-C , 18-H ) :   0.8513 B( 11-C , 13-C ) :  -0.1411
B( 11-C , 15-C ) :   0.2053 B( 11-C , 17-C ) :  -0.1649 B( 11-C , 19-H ) :   0.8232
B( 12-C , 20-H ) :   1.0125 B( 12-C , 21-H ) :   0.8961 B( 12-C , 22-H ) :   0.9189
B( 13-C , 23-H ) :   0.9960 B( 13-C , 24-H ) :   1.0104 B( 13-C , 25-H ) :   0.8312
B( 15-C , 17-C ) :  -0.1195

Dispersion correction           -0.059864475
FINAL SINGLE POINT ENERGY      -908.771535133419

DIPOLE MOMENT
-------------

Method             : TDA/CIS
Type of density    : Electron Density
Level              : Relaxed density
State              :   2
Multiplicity       :   3
Irrep              :   0
Energy             :     0.0000000000000000 Eh
Relativity type    :
Basis              : AO
                                X                 Y                 Z
Electronic contribution:     -9.220405301      -7.096930053      -2.812497761
Nuclear contribution   :     11.284410419       8.237651470       5.140328427
                        -----------------------------------------
Total Dipole Moment    :      2.064005118       1.140721417       2.327830666
                        -----------------------------------------
Magnitude (a.u.)       :      3.313632160
Magnitude (Debye)      :      8.422583596

Rotational constants in cm-1:             0.020769             0.013218             0.012462
Rotational constants in MHz :           622.639465           396.253938           373.594562

                             ****ORCA TERMINATED NORMALLY****
TOTAL RUN TIME: 0 days 0 hours 5 minutes 14 seconds 434 msec
