                         Program Version 6.0.0  -   RELEASE  -
|  1> ! opt def2-TZVPPD wB97M-D3BJ
|  2> %pal nprocs 8 end%pal nprocs 32 end
|  3> %geom Constraints
|  4> {B 9 8 3.1 C}
|  5> {A 8 9 11 88.85714285714286 C}
|  6> end
|  7> MaxIter 300
|  8> end
|  9> *xyz 0 1
| 10> O   2.98579685529314 0.88758230159078 -0.86184571092411
| 11> O   -0.03983205397054 0.68929041702508 -2.10362336723772
| 12> O   0.93431434349854 -3.13274393337945 -0.68767288184107
| 13> O   -3.75829998830163 -0.84727300865116 -0.0472717177755
| 14> N   0.21184538946282 -1.54604804365365 0.7617588924445
| 15> N   -2.13631993928911 0.03188773433438 1.27350571071531
| 16> N   2.02598672506387 -1.14318467211666 -0.64531219127023
| 17> N   -1.91814233924584 0.03137116037665 -1.04498946748291
| 18> C   1.18097737274226 0.71693507080484 0.70173889017321
| 19> C   -0.20686880480777 1.27024627933494 0.21345042231937
| 20> C   0.41441080275909 -0.34173258966541 1.52336266615173
| 21> C   -0.82922175114212 0.58960593673968 1.44434972027296
| 22> C   1.92822011286806 1.69488653817281 1.5963734975385
| 23> C   -0.37809776891576 2.77134929626422 0.04819649358288
| 24> C   2.1403947470937 0.1972384729179 -0.35038567829864
| 25> C   -0.67361678962426 0.6214190571346 -1.0793014500539
| 26> C   1.04142578622994 -2.02697492875068 -0.21027082435993
| 27> C   -2.68467002550422 -0.30396816036989 0.07167054343891
| 28> H   0.80817443950001 -0.54572267081061 2.51895215321335
| 29> H   -0.83785272399001 1.27240685039143 2.28901317073582
| 30> H   2.31167340578204 2.52284411740894 1.00913016264629
| 31> H   1.28982602448342 2.08257620823614 2.38710022492991
| 32> H   2.77390820759972 1.19140411795486 2.06045858523949
| 33> H   -1.41857211141493 3.00964947214868 -0.16882755561625
| 34> H   -0.09065531563179 3.29799318042223 0.95389844358819
| 35> H   0.23426221611057 3.12492645074476 -0.77764887675592
| 36> H   -0.46772570547622 -2.21560145172536 1.0787081584806
| 37> H   -2.71769301149571 -0.17090724573546 2.06627440900372
| 38> H   2.60065167263658 -1.49057255715425 -1.3966820077142
| 39> H   -2.27169977231386 -0.32388339999036 -1.91951041514436
| 40> *
| 41>
| 42>                          ****END OF INPUT****
 Total Charge           Charge          ....    0
 Multiplicity           Mult            ....    1
 Number of Electrons    NEL             ....  132
Dispersion correction           -0.053021254
FINAL SINGLE POINT ENERGY      -908.586907143595
Dispersion correction             ... done (  0.0 sec)
Dispersion correction           -0.053644498
FINAL SINGLE POINT ENERGY      -908.644426368377
Dispersion correction             ... done (  0.0 sec)
Dispersion correction           -0.054259613
FINAL SINGLE POINT ENERGY      -908.695921642322
Dispersion correction             ... done (  0.0 sec)
FINAL SINGLE POINT ENERGY      -908.760515834904
FINAL SINGLE POINT ENERGY      -908.816085589131
FINAL SINGLE POINT ENERGY      -908.853104891352
FINAL SINGLE POINT ENERGY      -908.875271922447
FINAL SINGLE POINT ENERGY      -908.898735237353
FINAL SINGLE POINT ENERGY      -908.912222074955
FINAL SINGLE POINT ENERGY      -908.917781433401
FINAL SINGLE POINT ENERGY      -908.931790677448
FINAL SINGLE POINT ENERGY      -908.931937503917
FINAL SINGLE POINT ENERGY      -908.932075933046
FINAL SINGLE POINT ENERGY      -908.932178625602
FINAL SINGLE POINT ENERGY      -908.932231530354
FINAL SINGLE POINT ENERGY      -908.932269808735
FINAL SINGLE POINT ENERGY      -908.932283168073
Dispersion correction             ... done (  0.0 sec)
Dispersion correction           -0.060200968
FINAL SINGLE POINT ENERGY      -908.932287015652
Dispersion correction             ... done (  0.0 sec)
Dispersion correction           -0.060219058
FINAL SINGLE POINT ENERGY      -908.932288907520
Dispersion correction             ... done (  0.0 sec)
                    ***********************HURRAY********************

CARTESIAN COORDINATES (ANGSTROEM)
---------------------------------
  O      2.688001    1.130588   -0.626565
  O     -0.501424    0.833788   -2.158229
  O      0.726746   -2.871394   -1.510728
  O     -2.592827   -1.664485    1.004236
  N      0.622156   -2.051860    0.611175
  N     -2.147207    0.523785    1.451653
  N      1.791053   -0.914051   -1.015534
  N     -1.631357   -0.363195   -0.605240
  C      1.442188    0.129180    1.124706
  C     -0.856360    1.851347   -0.041835
  C      0.795000   -0.992084    1.469608
  C     -1.517221    1.701427    1.109821
  C      1.698807    1.257850    2.070150
  C     -0.132421    3.097940   -0.437269
  C      2.034795    0.196954   -0.211841
  C     -0.955251    0.781179   -1.037353
  C      1.024199   -2.016411   -0.707392
  C     -2.160708   -0.589538    0.642791
  H      0.363117   -1.126856    2.449824
  H     -1.546920    2.474918    1.861924
  H      1.401382    2.206896    1.632212
  H      1.154207    1.110415    3.000570
  H      2.760880    1.334041    2.297248
  H     -0.564785    3.518794   -1.342841
  H     -0.181492    3.840670    0.356058
  H      0.911088    2.876871   -0.654072
  H     -0.023257   -2.787648    0.843248
  H     -2.568735    0.404310    2.354707
  H      2.070155   -0.834653   -1.981097
  H     -1.651209   -1.143776   -1.245333

 Multiplicity           Mult            ....    1
 Number of Electrons    NEL             ....  132
 Basis Dimension        Dim             ....  882

ORBITAL ENERGIES
----------------

  NO   OCC          E(Eh)            E(eV)
   0   2.0000     -19.330736      -526.0161
   1   2.0000     -19.324414      -525.8440
   2   2.0000     -19.319174      -525.7014
   3   2.0000     -19.318791      -525.6910
   4   2.0000     -14.587542      -396.9472
   5   2.0000     -14.574607      -396.5952
   6   2.0000     -14.572210      -396.5300
   7   2.0000     -14.562468      -396.2649
   8   2.0000     -10.516931      -286.1802
   9   2.0000     -10.505301      -285.8638
  10   2.0000     -10.479977      -285.1747
  11   2.0000     -10.474483      -285.0252
  12   2.0000     -10.431794      -283.8635
  13   2.0000     -10.428144      -283.7642
  14   2.0000     -10.380881      -282.4781
  15   2.0000     -10.378370      -282.4098
  16   2.0000     -10.359613      -281.8994
  17   2.0000     -10.351011      -281.6653
  18   2.0000      -1.229770       -33.4637
  19   2.0000      -1.218717       -33.1630
  20   2.0000      -1.195759       -32.5383
  21   2.0000      -1.188303       -32.3354
  22   2.0000      -1.125385       -30.6233
  23   2.0000      -1.116006       -30.3681
  24   2.0000      -1.072428       -29.1823
  25   2.0000      -1.063034       -28.9266
  26   2.0000      -0.960376       -26.1332
  27   2.0000      -0.952570       -25.9207
  28   2.0000      -0.848077       -23.0773
  29   2.0000      -0.846790       -23.0423
  30   2.0000      -0.812088       -22.0980
  31   2.0000      -0.806871       -21.9561
  32   2.0000      -0.796252       -21.6671
  33   2.0000      -0.787148       -21.4194
  34   2.0000      -0.697105       -18.9692
  35   2.0000      -0.694205       -18.8903
  36   2.0000      -0.690429       -18.7875
  37   2.0000      -0.686696       -18.6859
  38   2.0000      -0.644670       -17.5424
  39   2.0000      -0.638854       -17.3841
  40   2.0000      -0.633428       -17.2365
  41   2.0000      -0.599167       -16.3042
  42   2.0000      -0.597669       -16.2634
  43   2.0000      -0.590934       -16.0801
  44   2.0000      -0.569965       -15.5095
  45   2.0000      -0.566012       -15.4020
  46   2.0000      -0.559349       -15.2207
  47   2.0000      -0.552097       -15.0233
  48   2.0000      -0.548502       -14.9255
  49   2.0000      -0.540619       -14.7110
  50   2.0000      -0.520666       -14.1680
  51   2.0000      -0.518670       -14.1137
  52   2.0000      -0.514744       -14.0069
  53   2.0000      -0.512071       -13.9342
  54   2.0000      -0.503757       -13.7079
  55   2.0000      -0.498251       -13.5581
  56   2.0000      -0.480809       -13.0835
  57   2.0000      -0.471758       -12.8372
  58   2.0000      -0.422440       -11.4952
  59   2.0000      -0.411672       -11.2022
  60   2.0000      -0.406050       -11.0492
  61   2.0000      -0.394894       -10.7456
  62   2.0000      -0.388256       -10.5650
  63   2.0000      -0.382771       -10.4157
  64   2.0000      -0.353111        -9.6086
  65   2.0000      -0.338013        -9.1978
  66   0.0000       0.010143         0.2760
  67   0.0000       0.014695         0.3999
  68   0.0000       0.025129         0.6838
  69   0.0000       0.034532         0.9397
  70   0.0000       0.040279         1.0961

MULLIKEN ATOMIC CHARGES
-----------------------
   0 O :   -0.673892
   1 O :   -0.660478
   2 O :   -0.649018
   3 O :   -0.667586
   4 N :   -0.066904
   5 N :   -0.009572
   6 N :    0.033391
   7 N :    0.019107
   8 C :    0.907759
   9 C :    0.486490
  10 C :    0.034630
  11 C :    0.177456
  12 C :   -1.484867
  13 C :   -1.485795
  14 C :    0.281013
  15 C :    0.574659
  16 C :    0.419475
  17 C :    0.453403
  18 H :    0.174165
  19 H :    0.159317
  20 H :    0.208211
  21 H :    0.329131
  22 H :    0.384179
  23 H :    0.370825
  24 H :    0.330165
  25 H :    0.230807
  26 H :    0.062990
  27 H :    0.018428
  28 H :    0.025344
  29 H :    0.017170
Sum of atomic charges:    0.0000000

LOEWDIN ATOMIC CHARGES
----------------------
   0 O :    0.092312
   1 O :    0.104878
   2 O :    0.086887
   3 O :    0.074033
   4 N :    0.278458
   5 N :    0.283786
   6 N :    0.344479
   7 N :    0.344766
   8 C :   -0.140720
   9 C :   -0.146242
  10 C :    0.043694
  11 C :    0.049829
  12 C :    0.180764
  13 C :    0.180026
  14 C :   -0.399888
  15 C :   -0.393440
  16 C :   -0.483027
  17 C :   -0.492641
  18 H :    0.040401
  19 H :    0.039147
  20 H :   -0.021127
  21 H :   -0.003928
  22 H :    0.004833
  23 H :    0.003566
  24 H :   -0.004171
  25 H :   -0.016900
  26 H :   -0.021416
  27 H :   -0.020294
  28 H :   -0.001987
  29 H :   -0.006075

  Mayer bond orders larger than 0.100000
B(  0-O , 14-C ) :   1.4381 B(  1-O , 15-C ) :   1.4123 B(  2-O , 16-C ) :   1.5696
B(  3-O , 17-C ) :   1.5418 B(  4-N , 10-C ) :   0.8506 B(  4-N , 16-C ) :   1.0011
B(  4-N , 26-H ) :   1.1159 B(  5-N , 11-C ) :   0.9630 B(  5-N , 17-C ) :   1.0347
B(  5-N , 27-H ) :   1.1361 B(  6-N , 14-C ) :   1.0437 B(  6-N , 16-C ) :   0.9209
B(  6-N , 28-H ) :   1.1039 B(  7-N , 15-C ) :   0.9813 B(  7-N , 17-C ) :   0.9328
B(  7-N , 29-H ) :   1.1246 B(  8-C , 10-C ) :   1.0794 B(  8-C , 12-C ) :   0.3414
B(  8-C , 14-C ) :   0.6653 B(  8-C , 18-H ) :  -0.1043 B(  9-C , 11-C ) :   1.1435
B(  9-C , 13-C ) :   0.3468 B(  9-C , 15-C ) :   0.7797 B(  9-C , 24-H ) :  -0.1099
B(  9-C , 25-H ) :  -0.1094 B( 10-C , 12-C ) :  -0.1582 B( 10-C , 18-H ) :   1.1408
B( 11-C , 13-C ) :  -0.2253 B( 11-C , 19-H ) :   1.0913 B( 12-C , 20-H ) :   1.0333
B( 12-C , 21-H ) :   1.0220 B( 12-C , 22-H ) :   0.8753 B( 13-C , 23-H ) :   0.8740
B( 13-C , 24-H ) :   1.0611 B( 13-C , 25-H ) :   0.9960

Dispersion correction           -0.060221175
FINAL SINGLE POINT ENERGY      -908.932289733735

DIPOLE MOMENT
-------------

Method             : SCF
Type of density    : Electron Density
Multiplicity       :   1
Irrep              :   0
Energy             :  -908.8720685588860988 Eh
Relativity type    :
Basis              : AO
                                X                 Y                 Z
Electronic contribution:     -2.522058841     -10.241510433      -5.963024693
Nuclear contribution   :      1.781896728      11.238943033       8.439704432
                        -----------------------------------------
Total Dipole Moment    :     -0.740162114       0.997432600       2.476679739
                        -----------------------------------------
Magnitude (a.u.)       :      2.770677584
Magnitude (Debye)      :      7.042502741

Rotational constants in cm-1:             0.017648             0.016496             0.012938
Rotational constants in MHz :           529.073573           494.541059           387.870162

                             ****ORCA TERMINATED NORMALLY****
TOTAL RUN TIME: 0 days 1 hours 10 minutes 7 seconds 900 msec
