                         Program Version 6.0.0  -   RELEASE  -
|  1> ! opt def2-TZVPPD wB97M-D3BJ
|  2> %pal nprocs 8 end%pal nprocs 32 end
|  3> %geom Constraints
|  4> {B 9 8 3.1 C}
|  5> {A 8 9 11 70.57142857142857 C}
|  6> end
|  7> MaxIter 300
|  8> end
|  9> *xyz 0 1
| 10> O   2.98579685529314 0.88758230159078 -0.86184571092411
| 11> O   -0.03983205397054 0.68929041702508 -2.10362336723772
| 12> O   0.93431434349854 -3.13274393337945 -0.68767288184107
| 13> O   -3.75829998830163 -0.84727300865116 -0.0472717177755
| 14> N   0.21184538946282 -1.54604804365365 0.7617588924445
| 15> N   -2.13631993928911 0.03188773433438 1.27350571071531
| 16> N   2.02598672506387 -1.14318467211666 -0.64531219127023
| 17> N   -1.91814233924584 0.03137116037665 -1.04498946748291
| 18> C   1.18097737274226 0.71693507080484 0.70173889017321
| 19> C   -0.20686880480777 1.27024627933494 0.21345042231937
| 20> C   0.41441080275909 -0.34173258966541 1.52336266615173
| 21> C   -0.82922175114212 0.58960593673968 1.44434972027296
| 22> C   1.92822011286806 1.69488653817281 1.5963734975385
| 23> C   -0.37809776891576 2.77134929626422 0.04819649358288
| 24> C   2.1403947470937 0.1972384729179 -0.35038567829864
| 25> C   -0.67361678962426 0.6214190571346 -1.0793014500539
| 26> C   1.04142578622994 -2.02697492875068 -0.21027082435993
| 27> C   -2.68467002550422 -0.30396816036989 0.07167054343891
| 28> H   0.80817443950001 -0.54572267081061 2.51895215321335
| 29> H   -0.83785272399001 1.27240685039143 2.28901317073582
| 30> H   2.31167340578204 2.52284411740894 1.00913016264629
| 31> H   1.28982602448342 2.08257620823614 2.38710022492991
| 32> H   2.77390820759972 1.19140411795486 2.06045858523949
| 33> H   -1.41857211141493 3.00964947214868 -0.16882755561625
| 34> H   -0.09065531563179 3.29799318042223 0.95389844358819
| 35> H   0.23426221611057 3.12492645074476 -0.77764887675592
| 36> H   -0.46772570547622 -2.21560145172536 1.0787081584806
| 37> H   -2.71769301149571 -0.17090724573546 2.06627440900372
| 38> H   2.60065167263658 -1.49057255715425 -1.3966820077142
| 39> H   -2.27169977231386 -0.32388339999036 -1.91951041514436
| 40> *
| 41>
| 42>                          ****END OF INPUT****
 Total Charge           Charge          ....    0
 Multiplicity           Mult            ....    1
 Number of Electrons    NEL             ....  132
Dispersion correction           -0.052224104
FINAL SINGLE POINT ENERGY      -908.663586647643
Dispersion correction             ... done (  0.0 sec)
Dispersion correction           -0.052889507
FINAL SINGLE POINT ENERGY      -908.693545984552
Dispersion correction             ... done (  0.0 sec)
Dispersion correction           -0.053695222
FINAL SINGLE POINT ENERGY      -908.713266886033
Dispersion correction             ... done (  0.0 sec)
FINAL SINGLE POINT ENERGY      -908.729734472300
FINAL SINGLE POINT ENERGY      -908.737156445381
FINAL SINGLE POINT ENERGY      -908.741019454985
FINAL SINGLE POINT ENERGY      -908.745172880809
FINAL SINGLE POINT ENERGY      -908.748133561565
FINAL SINGLE POINT ENERGY      -908.749766604428
FINAL SINGLE POINT ENERGY      -908.751735723762
FINAL SINGLE POINT ENERGY      -908.757075862752
FINAL SINGLE POINT ENERGY      -908.757105643455
FINAL SINGLE POINT ENERGY      -908.757129105491
FINAL SINGLE POINT ENERGY      -908.757147746382
FINAL SINGLE POINT ENERGY      -908.757162534499
FINAL SINGLE POINT ENERGY      -908.757174145713
FINAL SINGLE POINT ENERGY      -908.757182433416
Dispersion correction             ... done (  0.0 sec)
Dispersion correction           -0.057720978
FINAL SINGLE POINT ENERGY      -908.757186289601
Dispersion correction             ... done (  0.0 sec)
Dispersion correction           -0.057710704
FINAL SINGLE POINT ENERGY      -908.757188136676
Dispersion correction             ... done (  0.0 sec)
                    ***********************HURRAY********************

CARTESIAN COORDINATES (ANGSTROEM)
---------------------------------
  O      3.237241    0.342353   -0.913027
  O     -0.699258    1.583349   -2.312833
  O      0.402539   -3.078789   -0.295398
  O     -2.979732   -1.812912   -0.459820
  N      0.352708   -1.410775    1.242466
  N     -2.162744   -0.217423    0.941450
  N      1.545544   -1.168002   -0.749765
  N     -1.502158   -0.280177   -1.279774
  C      1.815087    0.497622    0.951903
  C     -0.923478    1.631058    0.043286
  C      0.385942   -0.012055    1.551894
  C     -1.124816    0.723660    1.219602
  C      2.532591    1.567020    1.645436
  C     -0.714285    3.072601    0.203879
  C      2.272526   -0.068320   -0.289427
  C     -1.013687    1.025236   -1.280319
  C      0.733732   -1.964460    0.036385
  C     -2.271198   -0.856492   -0.269032
  H      0.480357    0.077627    2.636208
  H     -1.387774    1.298737    2.103057
  H      3.522039    1.709230    1.222197
  H      1.984424    2.521458    1.558025
  H      2.601390    1.366027    2.718431
  H     -1.571636    3.530435    0.708824
  H      0.149006    3.269709    0.856446
  H     -0.553553    3.550074   -0.756781
  H     -0.261648   -2.019737    1.755767
  H     -2.690627   -0.637037    1.685321
  H      1.891369   -1.605854   -1.587833
  H     -1.597303   -0.719165   -2.181972

 Multiplicity           Mult            ....    1
 Number of Electrons    NEL             ....  132
 Basis Dimension        Dim             ....  882

ORBITAL ENERGIES
----------------

  NO   OCC          E(Eh)            E(eV)
   0   2.0000     -19.334270      -526.1122
   1   2.0000     -19.325263      -525.8671
   2   2.0000     -19.317757      -525.6629
   3   2.0000     -19.316882      -525.6391
   4   2.0000     -14.568192      -396.4206
   5   2.0000     -14.565500      -396.3474
   6   2.0000     -14.559189      -396.1757
   7   2.0000     -14.550930      -395.9509
   8   2.0000     -10.508871      -285.9609
   9   2.0000     -10.499374      -285.7025
  10   2.0000     -10.486153      -285.3427
  11   2.0000     -10.470556      -284.9183
  12   2.0000     -10.449478      -284.3448
  13   2.0000     -10.446829      -284.2727
  14   2.0000     -10.439342      -284.0689
  15   2.0000     -10.420823      -283.5650
  16   2.0000     -10.383854      -282.5590
  17   2.0000     -10.374059      -282.2925
  18   2.0000      -1.224028       -33.3075
  19   2.0000      -1.212133       -32.9838
  20   2.0000      -1.198214       -32.6051
  21   2.0000      -1.182565       -32.1792
  22   2.0000      -1.118148       -30.4264
  23   2.0000      -1.094190       -29.7744
  24   2.0000      -1.066040       -29.0084
  25   2.0000      -1.051811       -28.6212
  26   2.0000      -0.972626       -26.4665
  27   2.0000      -0.941331       -25.6149
  28   2.0000      -0.880389       -23.9566
  29   2.0000      -0.837970       -22.8023
  30   2.0000      -0.824603       -22.4386
  31   2.0000      -0.802429       -21.8352
  32   2.0000      -0.788134       -21.4462
  33   2.0000      -0.770690       -20.9715
  34   2.0000      -0.699967       -19.0471
  35   2.0000      -0.687558       -18.7094
  36   2.0000      -0.683033       -18.5863
  37   2.0000      -0.656021       -17.8513
  38   2.0000      -0.644988       -17.5510
  39   2.0000      -0.642261       -17.4768
  40   2.0000      -0.617015       -16.7898
  41   2.0000      -0.600706       -16.3460
  42   2.0000      -0.584414       -15.9027
  43   2.0000      -0.579199       -15.7608
  44   2.0000      -0.577983       -15.7277
  45   2.0000      -0.567471       -15.4417
  46   2.0000      -0.565622       -15.3914
  47   2.0000      -0.555892       -15.1266
  48   2.0000      -0.551289       -15.0013
  49   2.0000      -0.547694       -14.9035
  50   2.0000      -0.544027       -14.8037
  51   2.0000      -0.539452       -14.6792
  52   2.0000      -0.530089       -14.4245
  53   2.0000      -0.522029       -14.2051
  54   2.0000      -0.509408       -13.8617
  55   2.0000      -0.504663       -13.7326
  56   2.0000      -0.479670       -13.0525
  57   2.0000      -0.422971       -11.5096
  58   2.0000      -0.413904       -11.2629
  59   2.0000      -0.405386       -11.0311
  60   2.0000      -0.402168       -10.9436
  61   2.0000      -0.393246       -10.7008
  62   2.0000      -0.385570       -10.4919
  63   2.0000      -0.379823       -10.3355
  64   2.0000      -0.372451       -10.1349
  65   2.0000      -0.278047        -7.5661
  66   0.0000      -0.115784        -3.1506
  67   0.0000       0.005937         0.1616
  68   0.0000       0.027811         0.7568
  69   0.0000       0.031642         0.8610
  70   0.0000       0.039427         1.0729

MULLIKEN ATOMIC CHARGES
-----------------------
   0 O :   -0.684703
   1 O :   -0.667177
   2 O :   -0.643743
   3 O :   -0.631244
   4 N :   -0.285881
   5 N :   -0.295626
   6 N :    0.083353
   7 N :    0.065434
   8 C :    0.281527
   9 C :    0.134393
  10 C :    0.119550
  11 C :    0.554774
  12 C :   -1.268321
  13 C :   -1.138028
  14 C :    0.357573
  15 C :    0.300327
  16 C :    0.374050
  17 C :    0.344175
  18 H :    0.585122
  19 H :    0.550902
  20 H :    0.319917
  21 H :    0.195845
  22 H :    0.302821
  23 H :    0.322528
  24 H :    0.220020
  25 H :    0.304762
  26 H :    0.076293
  27 H :    0.053592
  28 H :    0.037422
  29 H :    0.030344
Sum of atomic charges:    0.0000000

LOEWDIN ATOMIC CHARGES
----------------------
   0 O :    0.084678
   1 O :    0.102269
   2 O :    0.097501
   3 O :    0.106945
   4 N :    0.256932
   5 N :    0.268015
   6 N :    0.316042
   7 N :    0.332099
   8 C :    0.014343
   9 C :    0.001342
  10 C :   -0.038652
  11 C :   -0.084688
  12 C :    0.166533
  13 C :    0.191871
  14 C :   -0.429495
  15 C :   -0.401487
  16 C :   -0.493410
  17 C :   -0.485710
  18 H :    0.019058
  19 H :    0.040631
  20 H :   -0.000323
  21 H :   -0.006456
  22 H :    0.005892
  23 H :    0.016913
  24 H :   -0.008412
  25 H :    0.002765
  26 H :   -0.029220
  27 H :   -0.027074
  28 H :   -0.012888
  29 H :   -0.006013

  Mayer bond orders larger than 0.100000
B(  0-O , 14-C ) :   1.3192 B(  1-O , 15-C ) :   1.3852 B(  2-O , 16-C ) :   1.5154
B(  3-O , 17-C ) :   1.5445 B(  4-N ,  5-N ) :   0.1227 B(  4-N ,  8-C ) :   0.3043
B(  4-N , 10-C ) :   0.2982 B(  4-N , 16-C ) :   1.0264 B(  4-N , 26-H ) :   1.0822
B(  5-N ,  9-C ) :   0.3809 B(  5-N , 11-C ) :   0.1018 B(  5-N , 17-C ) :   1.1486
B(  5-N , 27-H ) :   1.0801 B(  6-N ,  8-C ) :  -0.1364 B(  6-N , 14-C ) :   1.0810
B(  6-N , 16-C ) :   0.9784 B(  6-N , 28-H ) :   1.0853 B(  7-N , 11-C ) :   0.1321
B(  7-N , 15-C ) :   1.0379 B(  7-N , 17-C ) :   0.9348 B(  7-N , 29-H ) :   1.0894
B(  8-C ,  9-C ) :   0.4941 B(  8-C , 12-C ) :   0.5875 B(  8-C , 14-C ) :   0.8091
B(  8-C , 16-C ) :   0.1050 B(  8-C , 18-H ) :  -0.1834 B(  8-C , 20-H ) :  -0.1159
B(  9-C , 10-C ) :   0.2674 B(  9-C , 13-C ) :   0.6872 B(  9-C , 14-C ) :   0.1043
B(  9-C , 15-C ) :   0.8217 B(  9-C , 19-H ) :  -0.1035 B(  9-C , 25-H ) :  -0.1028
B( 10-C , 11-C ) :   0.6799 B( 10-C , 16-C ) :  -0.1120 B( 10-C , 18-H ) :   0.7531
B( 11-C , 15-C ) :  -0.1997 B( 11-C , 17-C ) :  -0.2248 B( 11-C , 19-H ) :   0.7819
B( 12-C , 20-H ) :   0.9896 B( 12-C , 21-H ) :   0.9364 B( 12-C , 22-H ) :   0.9638
B( 13-C , 23-H ) :   0.9239 B( 13-C , 24-H ) :   0.8648 B( 13-C , 25-H ) :   0.9983

Dispersion correction           -0.057706436
FINAL SINGLE POINT ENERGY      -908.757188526849

DIPOLE MOMENT
-------------

Method             : SCF
Type of density    : Electron Density
Multiplicity       :   1
Irrep              :   0
Energy             :  -908.6994820909173995 Eh
Relativity type    :
Basis              : AO
                                X                 Y                 Z
Electronic contribution:     -3.149773878     -10.311443591      -7.496676137
Nuclear contribution   :      2.507623539      11.996549172      10.218342097
                        -----------------------------------------
Total Dipole Moment    :     -0.642150338       1.685105581       2.721665961
                        -----------------------------------------
Magnitude (a.u.)       :      3.264874190
Magnitude (Debye)      :      8.298650687

Rotational constants in cm-1:             0.018736             0.015081             0.012039
Rotational constants in MHz :           561.703840           452.114298           360.930743

                             ****ORCA TERMINATED NORMALLY****
TOTAL RUN TIME: 0 days 1 hours 6 minutes 10 seconds 720 msec
