                         Program Version 6.0.0  -   RELEASE  -
|  1> ! Engrad def2-TZVPPD wB97M-D3BJ
|  2> %pal nprocs 8 end%pal nprocs 64 end
|  3> %tddft
|  4>  Iroot 2 Nroots 3
|  5> sf true
|  6> end
|  7> *xyz 0 3
|  8> O   3.21671864 -0.70063477 -1.88891304
|  9> O   -2.2366828 1.77070307 -1.21555148
| 10> O   -1.07896849 -2.30444395 -2.11027328
| 11> O   -2.55520417 0.99183802 3.2876427
| 12> N   -0.33240203 -1.41846885 -0.12774464
| 13> N   -0.58036817 0.68189336 2.17596644
| 14> N   1.09754353 -1.55990604 -2.01450453
| 15> N   -2.41580906 1.15692993 0.95437721
| 16> C   2.02180226 -0.95885267 0.11852973
| 17> C   -0.21630238 1.2967615 -0.13965734
| 18> C   0.69249846 -0.87628607 0.72110602
| 19> C   0.29377329 0.59843218 1.02896116
| 20> C   3.23096024 -0.65244198 1.00878298
| 21> C   0.57426042 1.58871136 -1.40329116
| 22> C   2.16688091 -1.0462514 -1.31614998
| 23> C   -1.66066363 1.45856589 -0.17916708
| 24> C   -0.12811792 -1.87569311 -1.4435019
| 25> C   -1.918779 0.93575256 2.22883854
| 26> H   0.59519901 -1.31423484 1.58749054
| 27> H   1.26355861 1.02347556 1.31761307
| 28> H   3.31082677 0.42952427 1.2263237
| 29> H   3.13095773 -1.14550986 1.92542582
| 30> H   4.20872617 -0.97968615 0.68302444
| 31> H   0.47654893 0.73622621 -2.07651075
| 32> H   -0.02922227 2.36055818 -1.881283
| 33> H   1.6173886 1.73521644 -1.16012814
| 34> H   -1.21653172 -1.58807921 0.35541647
| 35> H   -0.16766317 0.75571708 3.08067216
| 36> H   1.18490781 -1.66117937 -3.01284628
| 37> H   -3.28271533 1.64584295 0.85294347
| 38> *
| 39>
| 40>                          ****END OF INPUT****

CARTESIAN COORDINATES (ANGSTROEM)
---------------------------------
  O      3.216719   -0.700635   -1.888913
  O     -2.236683    1.770703   -1.215551
  O     -1.078968   -2.304444   -2.110273
  O     -2.555204    0.991838    3.287643
  N     -0.332402   -1.418469   -0.127745
  N     -0.580368    0.681893    2.175966
  N      1.097544   -1.559906   -2.014505
  N     -2.415809    1.156930    0.954377
  C      2.021802   -0.958853    0.118530
  C     -0.216302    1.296761   -0.139657
  C      0.692498   -0.876286    0.721106
  C      0.293773    0.598432    1.028961
  C      3.230960   -0.652442    1.008783
  C      0.574260    1.588711   -1.403291
  C      2.166881   -1.046251   -1.316150
  C     -1.660664    1.458566   -0.179167
  C     -0.128118   -1.875693   -1.443502
  C     -1.918779    0.935753    2.228839
  H      0.595199   -1.314235    1.587491
  H      1.263559    1.023476    1.317613
  H      3.310827    0.429524    1.226324
  H      3.130958   -1.145510    1.925426
  H      4.208726   -0.979686    0.683024
  H      0.476549    0.736226   -2.076511
  H     -0.029222    2.360558   -1.881283
  H      1.617389    1.735216   -1.160128
  H     -1.216532   -1.588079    0.355416
  H     -0.167663    0.755717    3.080672
  H      1.184908   -1.661179   -3.012846
  H     -3.282715    1.645843    0.852943

 Total Charge           Charge          ....    0
 Multiplicity           Mult            ....    3
 Number of Electrons    NEL             ....  132
 Basis Dimension        Dim             ....  882

ORBITAL ENERGIES
----------------
                 SPIN UP ORBITALS
  NO   OCC          E(Eh)            E(eV)
   0   1.0000     -19.341490      -526.3087
   1   1.0000     -19.336757      -526.1799
   2   1.0000     -19.326168      -525.8918
   3   1.0000     -19.322138      -525.7821
   4   1.0000     -14.579336      -396.7239
   5   1.0000     -14.565912      -396.3586
   6   1.0000     -14.565033      -396.3347
   7   1.0000     -14.562891      -396.2764
   8   1.0000     -10.518457      -286.2218
   9   1.0000     -10.514159      -286.1048
  10   1.0000     -10.492278      -285.5094
  11   1.0000     -10.481198      -285.2079
  12   1.0000     -10.442590      -284.1573
  13   1.0000     -10.430342      -283.8240
  14   1.0000     -10.428874      -283.7841
  15   1.0000     -10.418304      -283.4965
  16   1.0000     -10.382910      -282.5334
  17   1.0000     -10.372342      -282.2458
  18   1.0000      -1.218575       -33.1591
  19   1.0000      -1.214197       -33.0400
  20   1.0000      -1.193341       -32.4724
  21   1.0000      -1.187068       -32.3018
  22   1.0000      -1.122908       -30.5559
  23   1.0000      -1.102387       -29.9975
  24   1.0000      -1.077881       -29.3306
  25   1.0000      -1.061850       -28.8944
  26   1.0000      -0.984078       -26.7781
  27   1.0000      -0.961422       -26.1616
  28   1.0000      -0.895077       -24.3563
  29   1.0000      -0.855282       -23.2734
  30   1.0000      -0.835419       -22.7329
  31   1.0000      -0.809955       -22.0400
  32   1.0000      -0.795455       -21.6454
  33   1.0000      -0.790683       -21.5156
  34   1.0000      -0.708664       -19.2837
  35   1.0000      -0.706030       -19.2120
  36   1.0000      -0.697360       -18.9761
  37   1.0000      -0.689585       -18.7646
  38   1.0000      -0.650199       -17.6928
  39   1.0000      -0.649897       -17.6846
  40   1.0000      -0.630161       -17.1476
  41   1.0000      -0.609202       -16.5772
  42   1.0000      -0.604954       -16.4616
  43   1.0000      -0.596602       -16.2344
  44   1.0000      -0.577850       -15.7241
  45   1.0000      -0.574316       -15.6279
  46   1.0000      -0.566585       -15.4176
  47   1.0000      -0.563450       -15.3323
  48   1.0000      -0.560776       -15.2595
  49   1.0000      -0.556316       -15.1381
  50   1.0000      -0.553009       -15.0481
  51   1.0000      -0.536832       -14.6080
  52   1.0000      -0.524983       -14.2855
  53   1.0000      -0.521486       -14.1903
  54   1.0000      -0.516829       -14.0636
  55   1.0000      -0.513202       -13.9649
  56   1.0000      -0.504292       -13.7225
  57   1.0000      -0.423022       -11.5110
  58   1.0000      -0.420911       -11.4536
  59   1.0000      -0.414329       -11.2745
  60   1.0000      -0.410250       -11.1635
  61   1.0000      -0.403108       -10.9691
  62   1.0000      -0.395412       -10.7597
  63   1.0000      -0.394768       -10.7422
  64   1.0000      -0.381415       -10.3788
  65   1.0000      -0.357068        -9.7163
  66   1.0000      -0.328100        -8.9280
  67   0.0000       0.008338         0.2269
  68   0.0000       0.029062         0.7908
  69   0.0000       0.031775         0.8646
  70   0.0000       0.033511         0.9119
  71   0.0000       0.048663         1.3242

                 SPIN DOWN ORBITALS
  NO   OCC          E(Eh)            E(eV)
   0   1.0000     -19.336965      -526.1856
   1   1.0000     -19.331892      -526.0475
   2   1.0000     -19.326067      -525.8890
   3   1.0000     -19.322164      -525.7828
   4   1.0000     -14.578643      -396.7051
   5   1.0000     -14.565612      -396.3505
   6   1.0000     -14.564917      -396.3315
   7   1.0000     -14.562779      -396.2734
   8   1.0000     -10.518505      -286.2231
   9   1.0000     -10.514164      -286.1050
  10   1.0000     -10.493352      -285.5386
  11   1.0000     -10.482154      -285.2339
  12   1.0000     -10.441958      -284.1401
  13   1.0000     -10.428389      -283.7709
  14   1.0000     -10.418958      -283.5143
  15   1.0000     -10.407101      -283.1916
  16   1.0000     -10.383476      -282.5487
  17   1.0000     -10.372796      -282.2581
  18   1.0000      -1.215949       -33.0877
  19   1.0000      -1.211554       -32.9681
  20   1.0000      -1.188746       -32.3474
  21   1.0000      -1.182884       -32.1879
  22   1.0000      -1.120061       -30.4784
  23   1.0000      -1.100115       -29.9356
  24   1.0000      -1.075604       -29.2687
  25   1.0000      -1.060487       -28.8573
  26   1.0000      -0.972549       -26.4644
  27   1.0000      -0.943598       -25.6766
  28   1.0000      -0.888479       -24.1767
  29   1.0000      -0.850366       -23.1396
  30   1.0000      -0.827498       -22.5174
  31   1.0000      -0.805408       -21.9163
  32   1.0000      -0.794073       -21.6078
  33   1.0000      -0.787638       -21.4327
  34   1.0000      -0.702548       -19.1173
  35   1.0000      -0.701127       -19.0786
  36   1.0000      -0.690831       -18.7985
  37   1.0000      -0.684608       -18.6291
  38   1.0000      -0.647169       -17.6104
  39   1.0000      -0.634782       -17.2733
  40   1.0000      -0.626199       -17.0397
  41   1.0000      -0.603721       -16.4281
  42   1.0000      -0.597435       -16.2570
  43   1.0000      -0.590122       -16.0580
  44   1.0000      -0.571990       -15.5646
  45   1.0000      -0.565084       -15.3767
  46   1.0000      -0.561512       -15.2795
  47   1.0000      -0.560329       -15.2473
  48   1.0000      -0.554998       -15.1023
  49   1.0000      -0.549463       -14.9516
  50   1.0000      -0.539670       -14.6852
  51   1.0000      -0.531066       -14.4510
  52   1.0000      -0.518386       -14.1060
  53   1.0000      -0.513354       -13.9691
  54   1.0000      -0.511822       -13.9274
  55   1.0000      -0.502153       -13.6643
  56   1.0000      -0.497489       -13.5374
  57   1.0000      -0.417790       -11.3686
  58   1.0000      -0.415970       -11.3191
  59   1.0000      -0.405283       -11.0283
  60   1.0000      -0.397456       -10.8153
  61   1.0000      -0.395213       -10.7543
  62   1.0000      -0.391139       -10.6434
  63   1.0000      -0.390235       -10.6188
  64   1.0000      -0.372933       -10.1480
  65   0.0000      -0.074280        -2.0213
  66   0.0000      -0.049833        -1.3560
  67   0.0000       0.007626         0.2075
  68   0.0000       0.028115         0.7650
  69   0.0000       0.031597         0.8598

----------------------------------------------------------------------------------------------------
          SPIN FLIP ABSORPTION SPECTRUM VIA TRANSITION ELECTRIC DIPOLE MOMENTS
----------------------------------------------------------------------------------------------------
     Transition      Energy     Energy  Wavelength fosc(D2)      D2        DX        DY        DZ
                      (eV)      (cm-1)    (nm)                 (au**2)    (au)      (au)      (au)
----------------------------------------------------------------------------------------------------
  1-3A  ->  2-3A    0.154757    1248.2  8011.5   0.000083782   0.02210  -0.11238   0.07253   0.06486
  1-3A  ->  3-3A    2.261357   18239.1   548.3   0.001784754   0.03221   0.10817  -0.00442  -0.14316

Dispersion correction             ... done (  0.1 sec)

MULLIKEN ATOMIC CHARGES AND SPIN DENSITIES
------------------------------------------
   0 O :   -0.695054   -0.007969
   1 O :   -0.674087    0.007057
   2 O :   -0.668911   -0.000348
   3 O :   -0.668447   -0.000112
   4 N :   -0.226701   -0.006893
   5 N :   -0.162215   -0.000994
   6 N :   -0.008249   -0.001334
   7 N :   -0.055493    0.000329
   8 C :    0.422038    0.359497
   9 C :    0.653222    0.273187
  10 C :    0.061335   -0.151968
  11 C :    0.024166   -0.156425
  12 C :   -1.385732    0.003357
  13 C :   -1.425105   -0.023767
  14 C :    0.120536   -0.196324
  15 C :    0.108112   -0.090924
  16 C :    0.425465    0.006663
  17 C :    0.431281    0.006097
  18 H :    0.844879   -0.033168
  19 H :    0.658273   -0.014677
  20 H :    0.295707    0.009562
  21 H :    0.362728    0.003493
  22 H :    0.315390   -0.001548
  23 H :    0.298590    0.010617
  24 H :    0.387314   -0.001240
  25 H :    0.341321    0.007616
  26 H :    0.058470   -0.000423
  27 H :    0.017384   -0.000425
  28 H :    0.052522    0.002266
  29 H :    0.091258   -0.001204
Sum of atomic charges       :   -0.0000000

LOEWDIN ATOMIC CHARGES AND SPIN DENSITIES
-----------------------------------------
   0 O :    0.065352   -0.007869
   1 O :    0.086984    0.004782
   2 O :    0.061111   -0.000511
   3 O :    0.064940   -0.000231
   4 N :    0.291220    0.000036
   5 N :    0.289215   -0.000393
   6 N :    0.310449   -0.002122
   7 N :    0.325957   -0.001149
   8 C :    0.021852   -0.010321
   9 C :    0.009853    0.028612
  10 C :   -0.103285   -0.002139
  11 C :   -0.121549    0.001553
  12 C :    0.221043   -0.002723
  13 C :    0.243274    0.002077
  14 C :   -0.420485   -0.007989
  15 C :   -0.392140   -0.001624
  16 C :   -0.415670   -0.000304
  17 C :   -0.458262   -0.000286
  18 H :   -0.037464   -0.000577
  19 H :    0.046876    0.000645
  20 H :    0.014087   -0.000592
  21 H :   -0.037638   -0.000099
  22 H :    0.001281   -0.000103
  23 H :   -0.004960    0.001268
  24 H :    0.001707    0.000115
  25 H :    0.003045    0.000274
  26 H :   -0.003109   -0.000017
  27 H :   -0.034700   -0.000047
  28 H :   -0.002871   -0.000185
  29 H :   -0.026115   -0.000081

  Mayer bond orders larger than 0.100000
B(  0-O ,  8-C ) :  -0.1800 B(  0-O , 14-C ) :   1.4931 B(  1-O , 15-C ) :   1.3406
B(  2-O , 16-C ) :   1.5553 B(  3-O , 17-C ) :   1.6236 B(  4-N ,  9-C ) :   0.1004
B(  4-N , 10-C ) :   0.5592 B(  4-N , 16-C ) :   1.0602 B(  4-N , 26-H ) :   1.1350
B(  5-N , 10-C ) :   0.2501 B(  5-N , 11-C ) :   0.3885 B(  5-N , 17-C ) :   1.1158
B(  5-N , 19-H ) :  -0.1196 B(  5-N , 27-H ) :   1.1639 B(  6-N , 14-C ) :   0.9827
B(  6-N , 16-C ) :   0.9662 B(  6-N , 28-H ) :   1.0987 B(  7-N , 15-C ) :   1.0169
B(  7-N , 17-C ) :   0.9549 B(  7-N , 29-H ) :   1.0329 B(  8-C , 10-C ) :   0.3810
B(  8-C , 11-C ) :   0.3504 B(  8-C , 12-C ) :   0.5251 B(  8-C , 14-C ) :   0.6887
B(  8-C , 16-C ) :   0.1127 B(  8-C , 18-H ) :  -0.2566 B(  8-C , 21-H ) :  -0.1178
B(  9-C , 10-C ) :   0.1226 B(  9-C , 11-C ) :   0.8429 B(  9-C , 13-C ) :   0.1091
B(  9-C , 15-C ) :   1.0285 B(  9-C , 19-H ) :  -0.2254 B(  9-C , 25-H ) :  -0.1393
B( 10-C , 11-C ) :   0.3036 B( 10-C , 12-C ) :  -0.1929 B( 10-C , 16-C ) :  -0.1422
B( 10-C , 18-H ) :   0.2257 B( 11-C , 12-C ) :   0.1421 B( 11-C , 13-C ) :   0.1089
B( 11-C , 15-C ) :  -0.2111 B( 11-C , 17-C ) :  -0.1037 B( 11-C , 19-H ) :   0.7175
B( 11-C , 27-H ) :  -0.1005 B( 12-C , 20-H ) :   0.8540 B( 12-C , 21-H ) :   0.9813
B( 12-C , 22-H ) :   1.0090 B( 13-C , 14-C ) :   0.1148 B( 13-C , 23-H ) :   0.8585
B( 13-C , 24-H ) :   0.9217 B( 13-C , 25-H ) :   1.0497

Dispersion correction           -0.059009134
FINAL SINGLE POINT ENERGY      -908.762889830631

DIPOLE MOMENT
-------------

Method             : TDA/CIS
Type of density    : Electron Density
Level              : Relaxed density
State              :   2
Multiplicity       :   3
Irrep              :   0
Energy             :     0.0000000000000000 Eh
Relativity type    :
Basis              : AO
                                X                 Y                 Z
Electronic contribution:     -8.564899582      -2.282462469      -1.620819064
Nuclear contribution   :     10.435688226       2.412899386       2.991259577
                        -----------------------------------------
Total Dipole Moment    :      1.870788644       0.130436917       1.370440513
                        -----------------------------------------
Magnitude (a.u.)       :      2.322707717
Magnitude (Debye)      :      5.903853831

Rotational constants in cm-1:             0.022839             0.011425             0.009973
Rotational constants in MHz :           684.695556           342.511239           298.978332

                             ****ORCA TERMINATED NORMALLY****
TOTAL RUN TIME: 0 days 0 hours 5 minutes 7 seconds 119 msec
