                         Program Version 6.0.0  -   RELEASE  -
|  1> ! Engrad wB97M-D3BJ def2-TZVPPD
|  2> %pal nprocs 8 end%pal nprocs 16 end
|  3> %tddft nroots 2 Iroot 2
|  4>  sf true
|  5> end
|  6> *xyz 0 3
|  7> O   1.12393374120777 1.13064428525052 0.09719327131911
|  8> C   0.90254996171279 0.01642031031008 -0.30555037648228
|  9> C   -0.3167989549273 -0.69488608389984 0.21907426896154
| 10> H   -0.03108142650819 -1.6272541878404 0.70904979619382
| 11> H   1.55707680039775 -0.48814738937879 -1.03536242478991
| 12> H   -0.98176070560939 -0.96523738347083 -0.60291906808713
| 13> H   -0.82883423496591 -0.04399183163406 0.91851453288486
| 14> *
| 15>
| 16>                          ****END OF INPUT****

CARTESIAN COORDINATES (ANGSTROEM)
---------------------------------
  O      1.123934    1.130644    0.097193
  C      0.902550    0.016420   -0.305550
  C     -0.316799   -0.694886    0.219074
  H     -0.031081   -1.627254    0.709050
  H      1.557077   -0.488147   -1.035362
  H     -0.981761   -0.965237   -0.602919
  H     -0.828834   -0.043992    0.918515

 Total Charge           Charge          ....    0
 Multiplicity           Mult            ....    3
 Number of Electrons    NEL             ....   24
 Basis Dimension        Dim             ....  182

ORBITAL ENERGIES
----------------
                 SPIN UP ORBITALS
  NO   OCC          E(Eh)            E(eV)
   0   1.0000     -19.410858      -528.1963
   1   1.0000     -10.379942      -282.4526
   2   1.0000     -10.366215      -282.0791
   3   1.0000      -1.246994       -33.9324
   4   1.0000      -0.878480       -23.9046
   5   1.0000      -0.719969       -19.5914
   6   1.0000      -0.637736       -17.3537
   7   1.0000      -0.584237       -15.8979
   8   1.0000      -0.582342       -15.8463
   9   1.0000      -0.514189       -13.9918
  10   1.0000      -0.511502       -13.9187
  11   1.0000      -0.436253       -11.8710
  12   1.0000      -0.222995        -6.0680
  13   0.0000       0.042192         1.1481
  14   0.0000       0.060445         1.6448
  15   0.0000       0.079207         2.1553
  16   0.0000       0.088284         2.4023
  17   0.0000       0.108481         2.9519

                 SPIN DOWN ORBITALS
  NO   OCC          E(Eh)            E(eV)
   0   1.0000     -19.382913      -527.4359
   1   1.0000     -10.369598      -282.1711
   2   1.0000     -10.363902      -282.0161
   3   1.0000      -1.188516       -32.3412
   4   1.0000      -0.858936       -23.3728
   5   1.0000      -0.676258       -18.4019
   6   1.0000      -0.585813       -15.9408
   7   1.0000      -0.540266       -14.7014
   8   1.0000      -0.533885       -14.5278
   9   1.0000      -0.501044       -13.6341
  10   1.0000      -0.470308       -12.7977
  11   0.0000      -0.081340        -2.2134
  12   0.0000       0.042170         1.1475
  13   0.0000       0.060100         1.6354
  14   0.0000       0.079409         2.1608
  15   0.0000       0.082875         2.2551

----------------------------------------------------------------------------------------------------
          SPIN FLIP ABSORPTION SPECTRUM VIA TRANSITION ELECTRIC DIPOLE MOMENTS
----------------------------------------------------------------------------------------------------
     Transition      Energy     Energy  Wavelength fosc(D2)      D2        DX        DY        DZ
                      (eV)      (cm-1)    (nm)                 (au**2)    (au)      (au)      (au)
----------------------------------------------------------------------------------------------------
  1-3A  ->  2-3A    4.468600   36041.7   277.5   0.000013512   0.00012   0.00602  -0.00421   0.00834

Dispersion correction             ... done (  0.0 sec)

MULLIKEN ATOMIC CHARGES AND SPIN DENSITIES
------------------------------------------
   0 O :   -0.246693    0.612046
   1 C :    0.201704   -0.637288
   2 C :   -0.694950    0.121362
   3 H :    0.193052   -0.042508
   4 H :    0.113572   -0.009906
   5 H :    0.193452   -0.041097
   6 H :    0.239864   -0.002609
Sum of atomic charges       :    0.0000000

LOEWDIN ATOMIC CHARGES AND SPIN DENSITIES
-----------------------------------------
   0 O :    0.157059    0.422295
   1 C :   -0.248516   -0.370134
   2 C :    0.140546   -0.001874
   3 H :   -0.017172   -0.015489
   4 H :   -0.001611   -0.022435
   5 H :   -0.017176   -0.015437
   6 H :   -0.013131    0.003074

  Mayer bond orders larger than 0.100000
B(  0-O ,  1-C ) :   1.2609 B(  1-C ,  2-C ) :   0.6647 B(  1-C ,  4-H ) :   1.0206
B(  2-C ,  3-H ) :   1.0005 B(  2-C ,  5-H ) :   0.9994 B(  2-C ,  6-H ) :   0.9462

Dispersion correction           -0.005549807
FINAL SINGLE POINT ENERGY      -153.757896309870

DIPOLE MOMENT
-------------

Method             : TDA/CIS
Type of density    : Electron Density
Level              : Relaxed density
State              :   2
Multiplicity       :   3
Irrep              :   0
Energy             :     0.0000000000000000 Eh
Relativity type    :
Basis              : AO
                                X                 Y                 Z
Electronic contribution:      2.085928619       3.000135319       0.004511488
Nuclear contribution   :     -2.365372042      -3.495469547      -0.051850846
                        -----------------------------------------
Total Dipole Moment    :     -0.279443423      -0.495334229      -0.047339358
                        -----------------------------------------
Magnitude (a.u.)       :      0.570688741
Magnitude (Debye)      :      1.450575502

Rotational constants in cm-1:             1.743997             0.358598             0.314578
Rotational constants in MHz :         52283.721732         10750.486530          9430.800155

                             ****ORCA TERMINATED NORMALLY****
TOTAL RUN TIME: 0 days 0 hours 0 minutes 16 seconds 354 msec
