                         Program Version 6.0.0  -   RELEASE  -
|  1> ! Engrad def2-TZVPPD wB97M-D3BJ
|  2> %pal nprocs 8 end%pal nprocs 64 end
|  3> %tddft
|  4>  Iroot 2 Nroots 3
|  5> sf true
|  6> end
|  7> *xyz 0 3
|  8> O   3.72908274 0.11271151 0.48332038
|  9> O   -0.78340682 0.84071718 -2.67477473
| 10> O   0.51805636 -2.38659977 -1.41810678
| 11> O   -3.62039638 -1.26522366 0.27875336
| 12> N   0.13467696 -1.35774644 0.63045761
| 13> N   -2.22241291 0.34630683 1.05642529
| 14> N   2.12122051 -1.03042312 -0.5731287
| 15> N   -2.23726708 -0.21419799 -1.2427568
| 16> C   1.55487482 0.33111573 1.39225163
| 17> C   -0.58428226 1.3543049 -0.44303194
| 18> C   0.1979332 -0.17910992 1.45656689
| 19> C   -0.86014419 0.91595748 0.96027412
| 20> C   1.94975368 1.39402291 2.28799665
| 21> C   0.54794869 2.29791718 -0.71535916
| 22> C   2.50560903 -0.19419349 0.49189672
| 23> C   -1.20979449 0.67288792 -1.54208804
| 24> C   0.90917963 -1.69881483 -0.54327264
| 25> C   -2.79427187 -0.44606419 0.06291979
| 26> H   -0.2249215 -0.47063329 2.45875021
| 27> H   -0.80934038 1.72463489 1.64588251
| 28> H   2.75502942 1.05861175 3.08534819
| 29> H   2.2803458 2.23074828 1.63257361
| 30> H   1.13315449 1.81934206 2.79143959
| 31> H   1.52871957 1.82785631 -0.68136053
| 32> H   0.35219285 2.79420228 -1.69492136
| 33> H   0.56515902 2.9553392 0.08289643
| 34> H   -0.73043525 -1.7896841 0.55386869
| 35> H   -2.45640778 -0.0131211 1.94073133
| 36> H   2.84223058 -1.37151572 -1.12711404
| 37> H   -2.72771612 -0.63194594 -2.05120235
| 38> *
| 39>
| 40>                          ****END OF INPUT****

CARTESIAN COORDINATES (ANGSTROEM)
---------------------------------
  O      3.729083    0.112712    0.483320
  O     -0.783407    0.840717   -2.674775
  O      0.518056   -2.386600   -1.418107
  O     -3.620396   -1.265224    0.278753
  N      0.134677   -1.357746    0.630458
  N     -2.222413    0.346307    1.056425
  N      2.121221   -1.030423   -0.573129
  N     -2.237267   -0.214198   -1.242757
  C      1.554875    0.331116    1.392252
  C     -0.584282    1.354305   -0.443032
  C      0.197933   -0.179110    1.456567
  C     -0.860144    0.915957    0.960274
  C      1.949754    1.394023    2.287997
  C      0.547949    2.297917   -0.715359
  C      2.505609   -0.194193    0.491897
  C     -1.209794    0.672888   -1.542088
  C      0.909180   -1.698815   -0.543273
  C     -2.794272   -0.446064    0.062920
  H     -0.224921   -0.470633    2.458750
  H     -0.809340    1.724635    1.645883
  H      2.755029    1.058612    3.085348
  H      2.280346    2.230748    1.632574
  H      1.133154    1.819342    2.791440
  H      1.528720    1.827856   -0.681361
  H      0.352193    2.794202   -1.694921
  H      0.565159    2.955339    0.082896
  H     -0.730435   -1.789684    0.553869
  H     -2.456408   -0.013121    1.940731
  H      2.842231   -1.371516   -1.127114
  H     -2.727716   -0.631946   -2.051202

 Total Charge           Charge          ....    0
 Multiplicity           Mult            ....    3
 Number of Electrons    NEL             ....  132
 Basis Dimension        Dim             ....  882

ORBITAL ENERGIES
----------------
                 SPIN UP ORBITALS
  NO   OCC          E(Eh)            E(eV)
   0   1.0000     -19.336861      -526.1827
   1   1.0000     -19.336143      -526.1632
   2   1.0000     -19.329800      -525.9906
   3   1.0000     -19.328838      -525.9644
   4   1.0000     -14.564731      -396.3265
   5   1.0000     -14.562437      -396.2641
   6   1.0000     -14.558996      -396.1704
   7   1.0000     -14.546822      -395.8391
   8   1.0000     -10.515115      -286.1308
   9   1.0000     -10.506685      -285.9014
  10   1.0000     -10.483512      -285.2709
  11   1.0000     -10.475906      -285.0639
  12   1.0000     -10.450003      -284.3590
  13   1.0000     -10.444401      -284.2066
  14   1.0000     -10.422458      -283.6095
  15   1.0000     -10.415563      -283.4219
  16   1.0000     -10.384623      -282.5800
  17   1.0000     -10.367448      -282.1126
  18   1.0000      -1.233201       -33.5571
  19   1.0000      -1.227627       -33.4054
  20   1.0000      -1.196911       -32.5696
  21   1.0000      -1.188281       -32.3348
  22   1.0000      -1.120110       -30.4797
  23   1.0000      -1.096066       -29.8255
  24   1.0000      -1.062389       -28.9091
  25   1.0000      -1.051363       -28.6090
  26   1.0000      -0.991108       -26.9694
  27   1.0000      -0.960660       -26.1409
  28   1.0000      -0.889135       -24.1946
  29   1.0000      -0.848527       -23.0896
  30   1.0000      -0.831838       -22.6355
  31   1.0000      -0.803474       -21.8636
  32   1.0000      -0.780024       -21.2255
  33   1.0000      -0.775527       -21.1032
  34   1.0000      -0.702723       -19.1221
  35   1.0000      -0.695861       -18.9353
  36   1.0000      -0.688877       -18.7453
  37   1.0000      -0.672988       -18.3129
  38   1.0000      -0.658457       -17.9175
  39   1.0000      -0.642914       -17.4946
  40   1.0000      -0.616930       -16.7875
  41   1.0000      -0.604542       -16.4504
  42   1.0000      -0.601517       -16.3681
  43   1.0000      -0.590515       -16.0687
  44   1.0000      -0.576238       -15.6802
  45   1.0000      -0.572666       -15.5830
  46   1.0000      -0.572528       -15.5793
  47   1.0000      -0.566579       -15.4174
  48   1.0000      -0.562868       -15.3164
  49   1.0000      -0.560271       -15.2457
  50   1.0000      -0.558115       -15.1871
  51   1.0000      -0.538543       -14.6545
  52   1.0000      -0.532062       -14.4781
  53   1.0000      -0.526387       -14.3237
  54   1.0000      -0.513402       -13.9704
  55   1.0000      -0.502526       -13.6744
  56   1.0000      -0.497141       -13.5279
  57   1.0000      -0.432499       -11.7689
  58   1.0000      -0.424552       -11.5526
  59   1.0000      -0.412385       -11.2216
  60   1.0000      -0.408315       -11.1108
  61   1.0000      -0.405155       -11.0248
  62   1.0000      -0.396728       -10.7955
  63   1.0000      -0.392836       -10.6896
  64   1.0000      -0.380606       -10.3568
  65   1.0000      -0.356669        -9.7055
  66   1.0000      -0.324739        -8.8366
  67   0.0000       0.010331         0.2811
  68   0.0000       0.030206         0.8220
  69   0.0000       0.034484         0.9384
  70   0.0000       0.037342         1.0161
  71   0.0000       0.055913         1.5215

                 SPIN DOWN ORBITALS
  NO   OCC          E(Eh)            E(eV)
   0   1.0000     -19.336055      -526.1608
   1   1.0000     -19.331203      -526.0288
   2   1.0000     -19.328798      -525.9633
   3   1.0000     -19.325047      -525.8613
   4   1.0000     -14.564203      -396.3121
   5   1.0000     -14.562192      -396.2574
   6   1.0000     -14.558559      -396.1585
   7   1.0000     -14.546893      -395.8411
   8   1.0000     -10.515160      -286.1321
   9   1.0000     -10.506730      -285.9027
  10   1.0000     -10.484583      -285.3000
  11   1.0000     -10.477001      -285.0937
  12   1.0000     -10.449626      -284.3488
  13   1.0000     -10.443880      -284.1924
  14   1.0000     -10.411901      -283.3222
  15   1.0000     -10.404216      -283.1131
  16   1.0000     -10.385241      -282.5968
  17   1.0000     -10.367914      -282.1253
  18   1.0000      -1.232755       -33.5450
  19   1.0000      -1.227137       -33.3921
  20   1.0000      -1.190180       -32.3865
  21   1.0000      -1.181020       -32.1372
  22   1.0000      -1.117015       -30.3955
  23   1.0000      -1.093371       -29.7521
  24   1.0000      -1.060053       -28.8455
  25   1.0000      -1.049762       -28.5655
  26   1.0000      -0.978301       -26.6209
  27   1.0000      -0.943794       -25.6819
  28   1.0000      -0.883920       -24.0527
  29   1.0000      -0.842725       -22.9317
  30   1.0000      -0.823081       -22.3972
  31   1.0000      -0.798197       -21.7201
  32   1.0000      -0.778779       -21.1917
  33   1.0000      -0.773791       -21.0559
  34   1.0000      -0.698324       -19.0024
  35   1.0000      -0.690652       -18.7936
  36   1.0000      -0.682778       -18.5793
  37   1.0000      -0.667216       -18.1559
  38   1.0000      -0.648857       -17.6563
  39   1.0000      -0.633648       -17.2424
  40   1.0000      -0.613515       -16.6946
  41   1.0000      -0.597731       -16.2651
  42   1.0000      -0.595621       -16.2077
  43   1.0000      -0.586384       -15.9563
  44   1.0000      -0.571609       -15.5543
  45   1.0000      -0.568491       -15.4694
  46   1.0000      -0.567240       -15.4354
  47   1.0000      -0.559294       -15.2192
  48   1.0000      -0.553410       -15.0590
  49   1.0000      -0.550509       -14.9801
  50   1.0000      -0.546197       -14.8628
  51   1.0000      -0.535101       -14.5608
  52   1.0000      -0.521257       -14.1841
  53   1.0000      -0.519068       -14.1245
  54   1.0000      -0.500516       -13.6197
  55   1.0000      -0.497675       -13.5424
  56   1.0000      -0.490946       -13.3593
  57   1.0000      -0.429515       -11.6877
  58   1.0000      -0.422327       -11.4921
  59   1.0000      -0.405398       -11.0314
  60   1.0000      -0.396728       -10.7955
  61   1.0000      -0.390750       -10.6328
  62   1.0000      -0.389751       -10.6057
  63   1.0000      -0.386398       -10.5144
  64   1.0000      -0.370286       -10.0760
  65   0.0000      -0.076387        -2.0786
  66   0.0000      -0.050777        -1.3817
  67   0.0000       0.009958         0.2710
  68   0.0000       0.030044         0.8175
  69   0.0000       0.034274         0.9326

----------------------------------------------------------------------------------------------------
          SPIN FLIP ABSORPTION SPECTRUM VIA TRANSITION ELECTRIC DIPOLE MOMENTS
----------------------------------------------------------------------------------------------------
     Transition      Energy     Energy  Wavelength fosc(D2)      D2        DX        DY        DZ
                      (eV)      (cm-1)    (nm)                 (au**2)    (au)      (au)      (au)
----------------------------------------------------------------------------------------------------
  1-3A  ->  2-3A    0.155095    1250.9  7994.1   0.000054457   0.01433  -0.11165   0.01937  -0.03861
  1-3A  ->  3-3A    1.911664   15418.6   648.6   0.002288906   0.04887   0.17419   0.06815   0.11783

Dispersion correction             ... done (  0.1 sec)

MULLIKEN ATOMIC CHARGES AND SPIN DENSITIES
------------------------------------------
   0 O :   -0.692719    0.076414
   1 O :   -0.684502   -0.058769
   2 O :   -0.579182   -0.000742
   3 O :   -0.581785    0.000169
   4 N :   -0.243232   -0.011831
   5 N :   -0.315192   -0.007122
   6 N :    0.120570    0.002716
   7 N :    0.034881   -0.006911
   8 C :   -0.021434    0.294252
   9 C :    0.607009    0.296261
  10 C :    0.602623   -0.068937
  11 C :    0.190633   -0.224753
  12 C :   -1.488694    0.001415
  13 C :   -1.460685   -0.061043
  14 C :    0.514466   -0.039980
  15 C :   -0.061866   -0.242762
  16 C :    0.329351   -0.001120
  17 C :    0.347756    0.014161
  18 H :    0.495908    0.017107
  19 H :    0.768319   -0.012907
  20 H :    0.340068    0.010295
  21 H :    0.259128    0.008916
  22 H :    0.338574    0.001735
  23 H :    0.241271    0.005098
  24 H :    0.363673   -0.004779
  25 H :    0.380176    0.007381
  26 H :    0.047213   -0.001476
  27 H :    0.071711    0.003106
  28 H :    0.000110    0.001063
  29 H :    0.075853    0.003046
Sum of atomic charges       :    0.0000000

LOEWDIN ATOMIC CHARGES AND SPIN DENSITIES
-----------------------------------------
   0 O :    0.057398    0.065743
   1 O :    0.083991   -0.053014
   2 O :    0.138031   -0.000232
   3 O :    0.120602    0.000105
   4 N :    0.298728   -0.001698
   5 N :    0.290613    0.000925
   6 N :    0.351153    0.002210
   7 N :    0.321402   -0.010006
   8 C :   -0.099520    0.160006
   9 C :    0.013537   -0.160737
  10 C :   -0.114362    0.008799
  11 C :   -0.079565   -0.009895
  12 C :    0.175161    0.025036
  13 C :    0.222433   -0.023150
  14 C :   -0.365735    0.023941
  15 C :   -0.432023   -0.033947
  16 C :   -0.446166   -0.001068
  17 C :   -0.479964   -0.000300
  18 H :    0.086787    0.003667
  19 H :    0.022946   -0.002359
  20 H :    0.088615    0.009975
  21 H :    0.022847    0.006801
  22 H :   -0.043883   -0.000221
  23 H :   -0.000655   -0.007097
  24 H :    0.035253   -0.001896
  25 H :   -0.049790   -0.001674
  26 H :   -0.103931   -0.000096
  27 H :   -0.073210    0.000460
  28 H :   -0.053816    0.000485
  29 H :    0.013124   -0.000763

  Mayer bond orders larger than 0.100000
B(  0-O , 14-C ) :   1.2255 B(  1-O , 15-C ) :   1.3097 B(  2-O , 16-C ) :   1.5850
B(  3-O , 17-C ) :   1.6413 B(  4-N ,  8-C ) :   0.2100 B(  4-N ,  9-C ) :   0.1309
B(  4-N , 10-C ) :   0.3201 B(  4-N , 16-C ) :   0.9784 B(  4-N , 18-H ) :  -0.1312
B(  4-N , 26-H ) :   1.0180 B(  5-N ,  9-C ) :   0.2859 B(  5-N , 10-C ) :   0.1312
B(  5-N , 17-C ) :   1.1044 B(  5-N , 19-H ) :  -0.1600 B(  5-N , 27-H ) :   1.0319
B(  6-N ,  8-C ) :  -0.1253 B(  6-N , 14-C ) :   1.1321 B(  6-N , 16-C ) :   0.9353
B(  6-N , 28-H ) :   1.0873 B(  7-N , 15-C ) :   1.0945 B(  7-N , 17-C ) :   0.9305
B(  7-N , 29-H ) :   1.0746 B(  8-C ,  9-C ) :   0.1109 B(  8-C , 10-C ) :   0.3778
B(  8-C , 11-C ) :   0.3090 B(  8-C , 12-C ) :   0.1954 B(  8-C , 13-C ) :   0.1449
B(  8-C , 14-C ) :   0.9208 B(  8-C , 16-C ) :   0.1257 B(  8-C , 18-H ) :  -0.1431
B(  8-C , 22-H ) :  -0.2930 B(  9-C , 11-C ) :   0.5623 B(  9-C , 13-C ) :   0.2196
B(  9-C , 15-C ) :   0.7283 B(  9-C , 19-H ) :  -0.2891 B(  9-C , 25-H ) :  -0.1350
B( 10-C , 11-C ) :   0.5584 B( 10-C , 12-C ) :  -0.3026 B( 10-C , 16-C ) :  -0.1713
B( 10-C , 18-H ) :   0.8084 B( 11-C , 13-C ) :  -0.1426 B( 11-C , 17-C ) :  -0.1644
B( 11-C , 18-H ) :  -0.1049 B( 11-C , 19-H ) :   0.6383 B( 12-C , 20-H ) :   0.8562
B( 12-C , 21-H ) :   0.8926 B( 12-C , 22-H ) :   1.2345 B( 13-C , 23-H ) :   0.8480
B( 13-C , 24-H ) :   0.9347 B( 13-C , 25-H ) :   1.0948

Dispersion correction           -0.060643794
FINAL SINGLE POINT ENERGY      -908.769252288478

DIPOLE MOMENT
-------------

Method             : TDA/CIS
Type of density    : Electron Density
Level              : Relaxed density
State              :   2
Multiplicity       :   3
Irrep              :   0
Energy             :     0.0000000000000000 Eh
Relativity type    :
Basis              : AO
                                X                 Y                 Z
Electronic contribution:     -4.453665689      -8.654321294      -6.097614422
Nuclear contribution   :      4.313972552       9.955452679       8.298203337
                        -----------------------------------------
Total Dipole Moment    :     -0.139693137       1.301131385       2.200588914
                        -----------------------------------------
Magnitude (a.u.)       :      2.560282919
Magnitude (Debye)      :      6.507722002

Rotational constants in cm-1:             0.022613             0.012536             0.011840
Rotational constants in MHz :           677.910107           375.808631           354.963117

                             ****ORCA TERMINATED NORMALLY****
TOTAL RUN TIME: 0 days 0 hours 5 minutes 5 seconds 948 msec
