                         Program Version 6.0.0  -   RELEASE  -
|  1> ! Engrad def2-TZVPPD wB97M-D3BJ
|  2> %pal nprocs 8 end%pal nprocs 64 end
|  3> %tddft
|  4>  Iroot 2 Nroots 3
|  5> sf true
|  6> end
|  7> *xyz 0 3
|  8> O   0.80040771 -0.76496129 -0.69629032
|  9> C   0.77160827 0.09968265 0.42619463
| 10> C   -0.43432661 0.93133341 0.56152401
| 11> H   1.6237819 0.80097062 0.20717912
| 12> H   0.88240446 -0.48718174 1.33050176
| 13> H   -0.334065 2.02645969 0.43365045
| 14> H   -1.44587861 0.51456494 0.54800014
| 15> *
| 16>
| 17>                          ****END OF INPUT****

CARTESIAN COORDINATES (ANGSTROEM)
---------------------------------
  O      0.800408   -0.764961   -0.696290
  C      0.771608    0.099683    0.426195
  C     -0.434327    0.931333    0.561524
  H      1.623782    0.800971    0.207179
  H      0.882404   -0.487182    1.330502
  H     -0.334065    2.026460    0.433650
  H     -1.445879    0.514565    0.548000

 Total Charge           Charge          ....    0
 Multiplicity           Mult            ....    3
 Number of Electrons    NEL             ....   24
 Basis Dimension        Dim             ....  182

ORBITAL ENERGIES
----------------
                 SPIN UP ORBITALS
  NO   OCC          E(Eh)            E(eV)
   0   1.0000     -19.391774      -527.6770
   1   1.0000     -10.414107      -283.3823
   2   1.0000     -10.369456      -282.1672
   3   1.0000      -1.154397       -31.4127
   4   1.0000      -0.882152       -24.0046
   5   1.0000      -0.727530       -19.7971
   6   1.0000      -0.624605       -16.9964
   7   1.0000      -0.568581       -15.4719
   8   1.0000      -0.551632       -15.0107
   9   1.0000      -0.515671       -14.0321
  10   1.0000      -0.445035       -12.1100
  11   1.0000      -0.413967       -11.2646
  12   1.0000      -0.329318        -8.9612
  13   0.0000       0.041214         1.1215
  14   0.0000       0.062162         1.6915
  15   0.0000       0.075809         2.0629
  16   0.0000       0.088494         2.4080
  17   0.0000       0.114203         3.1076

                 SPIN DOWN ORBITALS
  NO   OCC          E(Eh)            E(eV)
   0   1.0000     -19.366707      -526.9949
   1   1.0000     -10.415427      -283.4182
   2   1.0000     -10.356443      -281.8131
   3   1.0000      -1.096252       -29.8305
   4   1.0000      -0.849751       -23.1229
   5   1.0000      -0.701518       -19.0893
   6   1.0000      -0.591615       -16.0987
   7   1.0000      -0.541956       -14.7474
   8   1.0000      -0.528897       -14.3920
   9   1.0000      -0.481102       -13.0914
  10   1.0000      -0.383256       -10.4289
  11   0.0000      -0.052830        -1.4376
  12   0.0000      -0.004346        -0.1183
  13   0.0000       0.040448         1.1006
  14   0.0000       0.062615         1.7038
  15   0.0000       0.076143         2.0720

----------------------------------------------------------------------------------------------------
          SPIN FLIP ABSORPTION SPECTRUM VIA TRANSITION ELECTRIC DIPOLE MOMENTS
----------------------------------------------------------------------------------------------------
     Transition      Energy     Energy  Wavelength fosc(D2)      D2        DX        DY        DZ
                      (eV)      (cm-1)    (nm)                 (au**2)    (au)      (au)      (au)
----------------------------------------------------------------------------------------------------
  1-3A  ->  2-3A    0.175453    1415.1  7066.5   0.000243648   0.05668  -0.16441   0.15123   0.08236
  1-3A  ->  3-3A    0.901589    7271.8  1375.2   0.013366891   0.60515  -0.33699   0.58239   0.39040

Dispersion correction             ... done (  0.1 sec)

MULLIKEN ATOMIC CHARGES AND SPIN DENSITIES
------------------------------------------
   0 O :   -0.323804    0.092801
   1 C :   -0.040243    0.066447
   2 C :   -0.435457   -0.122863
   3 H :    0.224198    0.001950
   4 H :    0.197093    0.015756
   5 H :    0.165921   -0.026158
   6 H :    0.212292   -0.027933
Sum of atomic charges       :   -0.0000000

LOEWDIN ATOMIC CHARGES AND SPIN DENSITIES
-----------------------------------------
   0 O :    0.025361    0.084759
   1 C :   -0.245130   -0.000754
   2 C :    0.264599   -0.075656
   3 H :    0.027604   -0.010883
   4 H :    0.020729    0.027428
   5 H :   -0.043704   -0.012598
   6 H :   -0.049459   -0.012296

  Mayer bond orders larger than 0.100000
B(  0-O ,  1-C ) :   0.8504 B(  0-O ,  2-C ) :   0.1261 B(  1-C ,  2-C ) :   0.7521
B(  1-C ,  3-H ) :   1.0133 B(  1-C ,  4-H ) :   0.9264 B(  2-C ,  5-H ) :   1.0094
B(  2-C ,  6-H ) :   0.9837

Dispersion correction           -0.005493192
FINAL SINGLE POINT ENERGY      -153.745375340878

DIPOLE MOMENT
-------------

Method             : TDA/CIS
Type of density    : Electron Density
Level              : Relaxed density
State              :   2
Multiplicity       :   3
Irrep              :   0
Energy             :     0.0000000000000000 Eh
Relativity type    :
Basis              : AO
                                X                 Y                 Z
Electronic contribution:      0.730791258      -1.944782399      -1.453885283
Nuclear contribution   :     -0.811051404       2.408509607       2.074219648
                        -----------------------------------------
Total Dipole Moment    :     -0.080260146       0.463727208       0.620334365
                        -----------------------------------------
Magnitude (a.u.)       :      0.778652258
Magnitude (Debye)      :      1.979176753

Rotational constants in cm-1:             1.448345             0.333933             0.300666
Rotational constants in MHz :         43420.289068         10011.052427          9013.737240

                             ****ORCA TERMINATED NORMALLY****
TOTAL RUN TIME: 0 days 0 hours 0 minutes 26 seconds 923 msec
