                         Program Version 6.0.0  -   RELEASE  -
|  1> ! Opt wB97M-D3BJ def2-TZVPPD
|  2> %pal nprocs 8 end %pal nprocs 64 end
|  3> %geom
|  4> Constraints
|  5>     {A 2 1 0 139.32203389830508 C }
|  6> end
|  7> MaxIter 200
|  8> end
|  9> *xyz 0 1
| 10> O   1.8373189207981389 0.5286261137043539 0.0
| 11> C   0.7509 -0.4065 0.0
| 12> C   -0.7502 -0.4076 0.0
| 13> H   1.2625 -0.6786 0.9136
| 14> H   1.2625 -0.6787 -0.9136
| 15> H   -1.2614 -0.6806 -0.9136
| 16> H   -1.2614 -0.6805 0.9136
| 17> *
| 18>
| 19>                          ****END OF INPUT****
 Total Charge           Charge          ....    0
 Multiplicity           Mult            ....    1
 Number of Electrons    NEL             ....   24
Dispersion correction           -0.005306299
FINAL SINGLE POINT ENERGY      -153.686350129326
Dispersion correction             ... done (  0.1 sec)
Dispersion correction           -0.005399398
FINAL SINGLE POINT ENERGY      -153.707499469049
Dispersion correction             ... done (  0.1 sec)
Dispersion correction           -0.005467427
FINAL SINGLE POINT ENERGY      -153.717396134882
Dispersion correction             ... done (  0.1 sec)
FINAL SINGLE POINT ENERGY      -153.724558915111
FINAL SINGLE POINT ENERGY      -153.732918157612
FINAL SINGLE POINT ENERGY      -153.746858942312
FINAL SINGLE POINT ENERGY      -153.763719433603
FINAL SINGLE POINT ENERGY      -153.782770485790
FINAL SINGLE POINT ENERGY      -153.772813203757
FINAL SINGLE POINT ENERGY      -153.806522332078
FINAL SINGLE POINT ENERGY      -153.921803879482
FINAL SINGLE POINT ENERGY      -153.921992127939
FINAL SINGLE POINT ENERGY      -153.922303681249
FINAL SINGLE POINT ENERGY      -153.922610615397
FINAL SINGLE POINT ENERGY      -153.922806708575
FINAL SINGLE POINT ENERGY      -153.922871825214
FINAL SINGLE POINT ENERGY      -153.922885352502
Dispersion correction             ... done (  0.1 sec)
Dispersion correction           -0.005502829
FINAL SINGLE POINT ENERGY      -153.922888967966
Dispersion correction             ... done (  0.1 sec)
Dispersion correction           -0.005502309
FINAL SINGLE POINT ENERGY      -153.922889999574
Dispersion correction             ... done (  0.1 sec)
                    ***********************HURRAY********************

CARTESIAN COORDINATES (ANGSTROEM)
---------------------------------
  O      1.599178    0.978269    0.007428
  C      0.957950   -0.011655    0.222101
  C     -0.302156   -0.673331   -0.246687
  H      1.388278   -0.684796    1.006127
  H     -0.022962   -1.664976   -0.601253
  H     -0.848880   -0.138080   -1.020048
  H     -0.931189   -0.809304    0.632332

 Multiplicity           Mult            ....    1
 Number of Electrons    NEL             ....   24
 Basis Dimension        Dim             ....  182

ORBITAL ENERGIES
----------------

  NO   OCC          E(Eh)            E(eV)
   0   2.0000     -19.343041      -526.3509
   1   2.0000     -10.445379      -284.2332
   2   2.0000     -10.366285      -282.0810
   3   2.0000      -1.190404       -32.3925
   4   2.0000      -0.895652       -24.3719
   5   2.0000      -0.696461       -18.9517
   6   2.0000      -0.596181       -16.2229
   7   2.0000      -0.566409       -15.4128
   8   2.0000      -0.561137       -15.2693
   9   2.0000      -0.510741       -13.8980
  10   2.0000      -0.481089       -13.0911
  11   2.0000      -0.363149        -9.8818
  12   0.0000       0.034359         0.9349
  13   0.0000       0.057780         1.5723
  14   0.0000       0.059205         1.6111
  15   0.0000       0.081432         2.2159
  16   0.0000       0.085138         2.3167

MULLIKEN ATOMIC CHARGES
-----------------------
   0 O :   -0.468717
   1 C :    0.228804
   2 C :   -0.689326
   3 H :    0.210856
   4 H :    0.238814
   5 H :    0.240478
   6 H :    0.239091
Sum of atomic charges:    0.0000000

LOEWDIN ATOMIC CHARGES
----------------------
   0 O :    0.077801
   1 C :   -0.245750
   2 C :    0.172361
   3 H :    0.019866
   4 H :   -0.007263
   5 H :   -0.009668
   6 H :   -0.007346

  Mayer bond orders larger than 0.100000
B(  0-O ,  1-C ) :   1.7717 B(  1-C ,  2-C ) :   0.7490 B(  1-C ,  3-H ) :   1.0101
B(  2-C ,  4-H ) :   0.9873 B(  2-C ,  5-H ) :   0.9614 B(  2-C ,  6-H ) :   0.9867

Dispersion correction           -0.005502330
FINAL SINGLE POINT ENERGY      -153.922890051676

DIPOLE MOMENT
-------------

Method             : SCF
Type of density    : Electron Density
Multiplicity       :   1
Irrep              :   0
Energy             :  -153.9173877215947925 Eh
Relativity type    :
Basis              : AO
                                X                 Y                 Z
Electronic contribution:      2.433918358       2.504377822       0.054372098
Nuclear contribution   :     -3.191438989      -3.429522228       0.029818946
                        -----------------------------------------
Total Dipole Moment    :     -0.757520631      -0.925144405       0.084191044
                        -----------------------------------------
Magnitude (a.u.)       :      1.198673354
Magnitude (Debye)      :      3.046785534

Rotational constants in cm-1:             2.374712             0.308026             0.287068
Rotational constants in MHz :         71192.076269          9234.375735          8606.091109

                             ****ORCA TERMINATED NORMALLY****
TOTAL RUN TIME: 0 days 0 hours 6 minutes 36 seconds 167 msec
