                         Program Version 6.0.0  -   RELEASE  -
|  1> ! Opt wB97M-D3BJ def2-TZVPPD
|  2> %pal nprocs 8 end %pal nprocs 64 end
|  3> %geom
|  4> Constraints
|  5>     {A 2 1 0 92.03389830508475 C }
|  6> end
|  7> MaxIter 200
|  8> end
|  9> *xyz 0 1
| 10> O   0.8007243169776437 1.0260796513414925 0.0
| 11> C   0.7509 -0.4065 0.0
| 12> C   -0.7502 -0.4076 0.0
| 13> H   1.2625 -0.6786 0.9136
| 14> H   1.2625 -0.6787 -0.9136
| 15> H   -1.2614 -0.6806 -0.9136
| 16> H   -1.2614 -0.6805 0.9136
| 17> *
| 18>
| 19>                          ****END OF INPUT****
 Total Charge           Charge          ....    0
 Multiplicity           Mult            ....    1
 Number of Electrons    NEL             ....   24
Dispersion correction           -0.005548553
FINAL SINGLE POINT ENERGY      -153.786090926276
Dispersion correction             ... done (  0.1 sec)
Dispersion correction           -0.005627543
FINAL SINGLE POINT ENERGY      -153.804057413192
Dispersion correction             ... done (  0.1 sec)
Dispersion correction           -0.005661060
FINAL SINGLE POINT ENERGY      -153.813003068438
Dispersion correction             ... done (  0.1 sec)
FINAL SINGLE POINT ENERGY      -153.819259611529
FINAL SINGLE POINT ENERGY      -153.819890619323
FINAL SINGLE POINT ENERGY      -153.819924614453
Dispersion correction             ... done (  0.1 sec)
Dispersion correction           -0.005668586
FINAL SINGLE POINT ENERGY      -153.819929613868
Dispersion correction             ... done (  0.1 sec)
Dispersion correction           -0.005668232
FINAL SINGLE POINT ENERGY      -153.819930109785
Dispersion correction             ... done (  0.1 sec)
                    ***********************HURRAY********************

CARTESIAN COORDINATES (ANGSTROEM)
---------------------------------
  O      0.578655    0.982260   -0.000306
  C      0.753490   -0.346101   -0.000078
  C     -0.653564   -0.582366    0.000119
  H      1.269813   -0.737925    0.886266
  H      1.269547   -0.738366   -0.886382
  H     -1.207289   -0.542099   -0.925726
  H     -1.207028   -0.541824    0.926106

 Multiplicity           Mult            ....    1
 Number of Electrons    NEL             ....   24
 Basis Dimension        Dim             ....  182

ORBITAL ENERGIES
----------------

  NO   OCC          E(Eh)            E(eV)
   0   2.0000     -19.335935      -526.1575
   1   2.0000     -10.434206      -283.9292
   2   2.0000     -10.396936      -282.9150
   3   2.0000      -1.140965       -31.0472
   4   2.0000      -0.871051       -23.7025
   5   2.0000      -0.734398       -19.9840
   6   2.0000      -0.625138       -17.0109
   7   2.0000      -0.578497       -15.7417
   8   2.0000      -0.516165       -14.0456
   9   2.0000      -0.508417       -13.8347
  10   2.0000      -0.381965       -10.3938
  11   2.0000      -0.361013        -9.8237
  12   0.0000      -0.028206        -0.7675
  13   0.0000       0.039320         1.0700
  14   0.0000       0.060919         1.6577
  15   0.0000       0.076584         2.0840
  16   0.0000       0.098037         2.6677

MULLIKEN ATOMIC CHARGES
-----------------------
   0 O :   -0.492160
   1 C :   -0.086481
   2 C :   -0.293695
   3 H :    0.217761
   4 H :    0.217769
   5 H :    0.218408
   6 H :    0.218398
Sum of atomic charges:    0.0000000

LOEWDIN ATOMIC CHARGES
----------------------
   0 O :   -0.016094
   1 C :   -0.364504
   2 C :    0.346780
   3 H :    0.024115
   4 H :    0.024111
   5 H :   -0.007202
   6 H :   -0.007206

  Mayer bond orders larger than 0.100000
B(  0-O ,  1-C ) :   0.6785 B(  0-O ,  2-C ) :   0.9399 B(  1-C ,  2-C ) :   0.7682
B(  1-C ,  3-H ) :   1.0466 B(  1-C ,  4-H ) :   1.0466 B(  2-C ,  5-H ) :   0.9644
B(  2-C ,  6-H ) :   0.9644

Dispersion correction           -0.005668127
FINAL SINGLE POINT ENERGY      -153.819930217408

DIPOLE MOMENT
-------------

Method             : SCF
Type of density    : Electron Density
Multiplicity       :   1
Irrep              :   0
Energy             :  -153.8142620901991506 Eh
Relativity type    :
Basis              : AO
                                X                 Y                 Z
Electronic contribution:      0.226491477       1.409352781      -0.000317284
Nuclear contribution   :     -0.779306569      -2.556966956       0.000597513
                        -----------------------------------------
Total Dipole Moment    :     -0.552815092      -1.147614175       0.000280229
                        -----------------------------------------
Magnitude (a.u.)       :      1.273822162
Magnitude (Debye)      :      3.237798623

Rotational constants in cm-1:             1.084570             0.487460             0.387517
Rotational constants in MHz :         32514.591354         14613.686238         11617.481511

                             ****ORCA TERMINATED NORMALLY****
TOTAL RUN TIME: 0 days 0 hours 1 minutes 56 seconds 400 msec
