                         Program Version 6.0.0  -   RELEASE  -
|  1> ! Engrad def2-TZVPPD wB97M-D3BJ
|  2> %pal nprocs 8 end%pal nprocs 64 end
|  3>  %tddft nroots 2 Iroot 2
|  4> sf true
|  5> end
|  6> *xyz 0 3
|  7> O   4.15145553617619 -0.11028026549896 0.86375050958458
|  8> O   -2.03312761287672 1.81448335235718 -2.17763699276391
|  9> O   1.28742794353759 -2.96468262682946 -1.12622862691901
| 10> O   -3.64417413665975 -1.48111921669702 0.43365683810079
| 11> N   0.39538836207044 -1.10656676751378 -0.14932482926309
| 12> N   -1.948162884184 -0.23057254937725 1.27478732646482
| 13> N   2.63616587674966 -1.65091418655612 0.14958580136521
| 14> N   -2.58482904327224 -0.01158859368716 -0.94525894090154
| 15> C   1.8549017240237 0.43550296841086 1.01152154106668
| 16> C   -1.04605690938107 1.59960067118868 -0.04645558182301
| 17> C   0.49177120152193 -0.24414113645573 1.0185397148056
| 18> C   -0.7940418853778 0.64112135932045 1.10121763040722
| 19> C   2.08394759405166 1.80718656756913 1.41326724003795
| 20> C   -0.58449014359715 2.98208847081276 0.01688840101068
| 21> C   2.98924930329979 -0.42539202425973 0.69124410699853
| 22> C   -1.89212278749263 1.18347556508241 -1.14685034708979
| 23> C   1.4055600140719 -1.98548077393528 -0.4299164720564
| 24> C   -2.79167916313342 -0.63571270523594 0.27954458895381
| 25> H   0.49243370060553 -0.89724793274033 1.91622232716732
| 26> H   -0.69706865639225 1.24223853680436 2.0089421418573
| 27> H   3.11266193107365 1.9529463508188 1.73092422916148
| 28> H   1.90550359439743 2.50858001653594 0.56531051880977
| 29> H   1.37160183207563 2.142682588455 2.17310490604555
| 30> H   -0.68098112879213 3.3958728694172 1.02419649718247
| 31> H   0.50149581616997 3.07026346623033 -0.20811873261382
| 32> H   -1.10326388008615 3.60075585699564 -0.70863055336771
| 33> H   -0.51075077094083 -1.47566331043922 -0.38562241985414
| 34> H   -2.07858860792173 -0.7167494887786 2.14380538411536
| 35> H   3.39849970208509 -2.25370505961723 -0.11906188686311
| 36> H   -3.2361265218023 -0.27198200237694 -1.66880431961959
| 37> *
| 38>
| 39>                          ****END OF INPUT****

CARTESIAN COORDINATES (ANGSTROEM)
---------------------------------
  O      4.151456   -0.110280    0.863751
  O     -2.033128    1.814483   -2.177637
  O      1.287428   -2.964683   -1.126229
  O     -3.644174   -1.481119    0.433657
  N      0.395388   -1.106567   -0.149325
  N     -1.948163   -0.230573    1.274787
  N      2.636166   -1.650914    0.149586
  N     -2.584829   -0.011589   -0.945259
  C      1.854902    0.435503    1.011522
  C     -1.046057    1.599601   -0.046456
  C      0.491771   -0.244141    1.018540
  C     -0.794042    0.641121    1.101218
  C      2.083948    1.807187    1.413267
  C     -0.584490    2.982088    0.016888
  C      2.989249   -0.425392    0.691244
  C     -1.892123    1.183476   -1.146850
  C      1.405560   -1.985481   -0.429916
  C     -2.791679   -0.635713    0.279545
  H      0.492434   -0.897248    1.916222
  H     -0.697069    1.242239    2.008942
  H      3.112662    1.952946    1.730924
  H      1.905504    2.508580    0.565311
  H      1.371602    2.142683    2.173105
  H     -0.680981    3.395873    1.024196
  H      0.501496    3.070263   -0.208119
  H     -1.103264    3.600756   -0.708631
  H     -0.510751   -1.475663   -0.385622
  H     -2.078589   -0.716749    2.143805
  H      3.398500   -2.253705   -0.119062
  H     -3.236127   -0.271982   -1.668804

 Total Charge           Charge          ....    0
 Multiplicity           Mult            ....    3
 Number of Electrons    NEL             ....  132
 Basis Dimension        Dim             ....  882

ORBITAL ENERGIES
----------------
                 SPIN UP ORBITALS
  NO   OCC          E(Eh)            E(eV)
   0   1.0000     -19.342032      -526.3235
   1   1.0000     -19.336414      -526.1706
   2   1.0000     -19.325787      -525.8814
   3   1.0000     -19.320676      -525.7423
   4   1.0000     -14.570167      -396.4744
   5   1.0000     -14.569057      -396.4442
   6   1.0000     -14.563193      -396.2846
   7   1.0000     -14.558054      -396.1448
   8   1.0000     -10.512652      -286.0638
   9   1.0000     -10.504350      -285.8379
  10   1.0000     -10.488329      -285.4019
  11   1.0000     -10.482710      -285.2491
  12   1.0000     -10.457607      -284.5660
  13   1.0000     -10.450119      -284.3622
  14   1.0000     -10.427614      -283.7498
  15   1.0000     -10.420162      -283.5470
  16   1.0000     -10.379836      -282.4497
  17   1.0000     -10.378976      -282.4263
  18   1.0000      -1.227189       -33.3935
  19   1.0000      -1.220574       -33.2135
  20   1.0000      -1.204473       -32.7754
  21   1.0000      -1.199078       -32.6286
  22   1.0000      -1.124593       -30.6017
  23   1.0000      -1.103012       -30.0145
  24   1.0000      -1.071797       -29.1651
  25   1.0000      -1.058691       -28.8084
  26   1.0000      -0.986791       -26.8519
  27   1.0000      -0.963958       -26.2306
  28   1.0000      -0.900669       -24.5084
  29   1.0000      -0.847361       -23.0579
  30   1.0000      -0.837292       -22.7839
  31   1.0000      -0.798636       -21.7320
  32   1.0000      -0.791629       -21.5413
  33   1.0000      -0.784487       -21.3470
  34   1.0000      -0.706151       -19.2154
  35   1.0000      -0.701386       -19.0857
  36   1.0000      -0.696029       -18.9399
  37   1.0000      -0.680655       -18.5216
  38   1.0000      -0.647555       -17.6209
  39   1.0000      -0.643747       -17.5173
  40   1.0000      -0.628825       -17.1112
  41   1.0000      -0.610104       -16.6018
  42   1.0000      -0.603977       -16.4351
  43   1.0000      -0.589114       -16.0306
  44   1.0000      -0.584164       -15.8959
  45   1.0000      -0.577084       -15.7033
  46   1.0000      -0.574054       -15.6208
  47   1.0000      -0.568651       -15.4738
  48   1.0000      -0.565871       -15.3981
  49   1.0000      -0.562470       -15.3056
  50   1.0000      -0.554153       -15.0793
  51   1.0000      -0.545375       -14.8404
  52   1.0000      -0.543751       -14.7962
  53   1.0000      -0.525097       -14.2886
  54   1.0000      -0.516292       -14.0490
  55   1.0000      -0.515618       -14.0307
  56   1.0000      -0.496370       -13.5069
  57   1.0000      -0.427710       -11.6386
  58   1.0000      -0.426617       -11.6088
  59   1.0000      -0.413222       -11.2443
  60   1.0000      -0.408664       -11.1203
  61   1.0000      -0.402432       -10.9507
  62   1.0000      -0.398731       -10.8500
  63   1.0000      -0.391249       -10.6464
  64   1.0000      -0.385441       -10.4884
  65   1.0000      -0.350370        -9.5340
  66   1.0000      -0.338465        -9.2101
  67   0.0000       0.006441         0.1753
  68   0.0000       0.028228         0.7681
  69   0.0000       0.032259         0.8778
  70   0.0000       0.032730         0.8906
  71   0.0000       0.053778         1.4634

                 SPIN DOWN ORBITALS
  NO   OCC          E(Eh)            E(eV)
   0   1.0000     -19.337625      -526.2035
   1   1.0000     -19.332244      -526.0571
   2   1.0000     -19.325653      -525.8778
   3   1.0000     -19.320573      -525.7395
   4   1.0000     -14.569914      -396.4675
   5   1.0000     -14.568640      -396.4328
   6   1.0000     -14.562768      -396.2731
   7   1.0000     -14.557584      -396.1320
   8   1.0000     -10.512678      -286.0645
   9   1.0000     -10.504384      -285.8388
  10   1.0000     -10.489398      -285.4310
  11   1.0000     -10.483684      -285.2756
  12   1.0000     -10.458221      -284.5827
  13   1.0000     -10.449885      -284.3558
  14   1.0000     -10.416157      -283.4381
  15   1.0000     -10.408685      -283.2347
  16   1.0000     -10.380430      -282.4658
  17   1.0000     -10.379561      -282.4422
  18   1.0000      -1.225461       -33.3465
  19   1.0000      -1.218747       -33.1638
  20   1.0000      -1.199436       -32.6383
  21   1.0000      -1.194438       -32.5023
  22   1.0000      -1.122389       -30.5418
  23   1.0000      -1.100833       -29.9552
  24   1.0000      -1.070169       -29.1208
  25   1.0000      -1.057246       -28.7691
  26   1.0000      -0.973760       -26.4973
  27   1.0000      -0.946271       -25.7493
  28   1.0000      -0.896369       -24.3914
  29   1.0000      -0.841977       -22.9114
  30   1.0000      -0.827684       -22.5224
  31   1.0000      -0.795259       -21.6401
  32   1.0000      -0.788960       -21.4687
  33   1.0000      -0.782969       -21.3057
  34   1.0000      -0.701437       -19.0871
  35   1.0000      -0.695548       -18.9268
  36   1.0000      -0.689207       -18.7543
  37   1.0000      -0.673401       -18.3242
  38   1.0000      -0.641469       -17.4553
  39   1.0000      -0.632358       -17.2073
  40   1.0000      -0.626205       -17.0399
  41   1.0000      -0.604055       -16.4372
  42   1.0000      -0.598382       -16.2828
  43   1.0000      -0.583248       -15.8710
  44   1.0000      -0.577727       -15.7208
  45   1.0000      -0.569965       -15.5095
  46   1.0000      -0.567875       -15.4527
  47   1.0000      -0.562937       -15.3183
  48   1.0000      -0.559312       -15.2196
  49   1.0000      -0.555943       -15.1280
  50   1.0000      -0.544426       -14.8146
  51   1.0000      -0.538860       -14.6631
  52   1.0000      -0.532869       -14.5001
  53   1.0000      -0.515303       -14.0221
  54   1.0000      -0.511146       -13.9090
  55   1.0000      -0.505620       -13.7586
  56   1.0000      -0.490976       -13.3601
  57   1.0000      -0.424342       -11.5469
  58   1.0000      -0.422167       -11.4877
  59   1.0000      -0.403331       -10.9752
  60   1.0000      -0.398288       -10.8380
  61   1.0000      -0.396060       -10.7773
  62   1.0000      -0.393979       -10.7207
  63   1.0000      -0.386718       -10.5231
  64   1.0000      -0.382929       -10.4200
  65   0.0000      -0.067015        -1.8236
  66   0.0000      -0.053094        -1.4448
  67   0.0000       0.006121         0.1666
  68   0.0000       0.027919         0.7597
  69   0.0000       0.031908         0.8683

----------------------------------------------------------------------------------------------------
          SPIN FLIP ABSORPTION SPECTRUM VIA TRANSITION ELECTRIC DIPOLE MOMENTS
----------------------------------------------------------------------------------------------------
     Transition      Energy     Energy  Wavelength fosc(D2)      D2        DX        DY        DZ
                      (eV)      (cm-1)    (nm)                 (au**2)    (au)      (au)      (au)
----------------------------------------------------------------------------------------------------
  1-3A  ->  2-3A    0.014297     115.3  86723.3   0.000002334   0.00666  -0.07556   0.01562  -0.02666

Dispersion correction             ... done (  0.1 sec)

MULLIKEN ATOMIC CHARGES AND SPIN DENSITIES
------------------------------------------
   0 O :   -0.643176    0.036581
   1 O :   -0.659554   -0.042230
   2 O :   -0.636263   -0.000110
   3 O :   -0.646098   -0.001614
   4 N :   -0.215902   -0.004032
   5 N :   -0.243937   -0.009192
   6 N :   -0.041102    0.005002
   7 N :    0.001394   -0.007168
   8 C :    0.591236    0.373822
   9 C :    0.949034    0.319477
  10 C :    0.430958   -0.095179
  11 C :    0.118921   -0.233438
  12 C :   -1.526589   -0.021622
  13 C :   -1.453199   -0.033314
  14 C :    0.246350   -0.085756
  15 C :    0.059954   -0.260703
  16 C :    0.322096    0.001549
  17 C :    0.393339    0.012816
  18 H :    0.384783   -0.002889
  19 H :    0.586913    0.007764
  20 H :    0.321557    0.002603
  21 H :    0.186672    0.019546
  22 H :    0.307582    0.007954
  23 H :    0.344976    0.013638
  24 H :    0.217185    0.006589
  25 H :    0.331116   -0.010318
  26 H :    0.106461   -0.004034
  27 H :    0.043846    0.000812
  28 H :    0.073844    0.000906
  29 H :    0.047603    0.002540
Sum of atomic charges       :   -0.0000000

LOEWDIN ATOMIC CHARGES AND SPIN DENSITIES
-----------------------------------------
   0 O :    0.089297    0.032847
   1 O :    0.094225   -0.038633
   2 O :    0.097934    0.000253
   3 O :    0.090272   -0.001774
   4 N :    0.283095    0.001924
   5 N :    0.275649   -0.002613
   6 N :    0.321974    0.003216
   7 N :    0.318490   -0.005904
   8 C :    0.005290    0.136963
   9 C :    0.013035   -0.119629
  10 C :   -0.098148    0.008854
  11 C :   -0.102987   -0.014506
  12 C :    0.177163    0.022763
  13 C :    0.180862   -0.021227
  14 C :   -0.409449    0.017610
  15 C :   -0.403999   -0.026070
  16 C :   -0.471517    0.000076
  17 C :   -0.501114   -0.000614
  18 H :    0.068662    0.005468
  19 H :    0.044694   -0.001385
  20 H :    0.005114    0.001090
  21 H :   -0.001488    0.008699
  22 H :    0.004735    0.003125
  23 H :    0.014338   -0.003289
  24 H :   -0.005336   -0.006809
  25 H :    0.004331   -0.000411
  26 H :   -0.045523    0.000235
  27 H :   -0.025782   -0.000111
  28 H :   -0.013127    0.000305
  29 H :   -0.010690   -0.000451

  Mayer bond orders larger than 0.100000
B(  0-O , 14-C ) :   1.3301 B(  1-O , 15-C ) :   1.3666 B(  2-O , 16-C ) :   1.5909
B(  3-O , 17-C ) :   1.5958 B(  4-N ,  8-C ) :   0.2403 B(  4-N , 10-C ) :   0.1680
B(  4-N , 11-C ) :   0.1693 B(  4-N , 16-C ) :   1.1885 B(  4-N , 26-H ) :   1.0023
B(  5-N , 10-C ) :   0.2370 B(  5-N , 11-C ) :   0.1473 B(  5-N , 17-C ) :   1.1071
B(  5-N , 27-H ) :   1.1305 B(  6-N ,  8-C ) :  -0.1197 B(  6-N , 14-C ) :   1.0119
B(  6-N , 16-C ) :   0.9198 B(  6-N , 28-H ) :   1.0759 B(  7-N , 15-C ) :   1.0362
B(  7-N , 17-C ) :   0.9905 B(  7-N , 29-H ) :   1.0881 B(  8-C , 11-C ) :   0.2068
B(  8-C , 12-C ) :   0.2405 B(  8-C , 14-C ) :   0.8105 B(  8-C , 22-H ) :  -0.1663
B(  9-C , 10-C ) :   0.1230 B(  9-C , 11-C ) :   0.3692 B(  9-C , 13-C ) :   0.2518
B(  9-C , 15-C ) :   0.6151 B(  9-C , 19-H ) :  -0.1321 B(  9-C , 23-H ) :  -0.1268
B( 10-C , 11-C ) :   0.6625 B( 10-C , 16-C ) :  -0.1040 B( 10-C , 18-H ) :   0.7731
B( 11-C , 13-C ) :  -0.2281 B( 11-C , 17-C ) :  -0.1706 B( 11-C , 19-H ) :   0.7100
B( 12-C , 13-C ) :   0.1285 B( 12-C , 14-C ) :  -0.2202 B( 12-C , 20-H ) :   1.0105
B( 12-C , 21-H ) :   0.9299 B( 12-C , 22-H ) :   1.0051 B( 13-C , 23-H ) :   0.9867
B( 13-C , 24-H ) :   0.9155 B( 13-C , 25-H ) :   0.9324

Dispersion correction           -0.056891661
FINAL SINGLE POINT ENERGY      -908.797109166102

DIPOLE MOMENT
-------------

Method             : TDA/CIS
Type of density    : Electron Density
Level              : Relaxed density
State              :   2
Multiplicity       :   3
Irrep              :   0
Energy             :     0.0000000000000000 Eh
Relativity type    :
Basis              : AO
                                X                 Y                 Z
Electronic contribution:     -2.418791088     -10.240205700      -4.713053231
Nuclear contribution   :      2.388201532      11.890825397       6.661442017
                        -----------------------------------------
Total Dipole Moment    :     -0.030589555       1.650619698       1.948388786
                        -----------------------------------------
Magnitude (a.u.)       :      2.553761924
Magnitude (Debye)      :      6.491146952

Rotational constants in cm-1:             0.021160             0.010936             0.008888
Rotational constants in MHz :           634.349856           327.864475           266.469542

                             ****ORCA TERMINATED NORMALLY****
TOTAL RUN TIME: 0 days 0 hours 4 minutes 18 seconds 73 msec
