                         Program Version 6.0.0  -   RELEASE  -
|  1> ! Engrad def2-TZVPPD wB97M-D3BJ
|  2> %pal nprocs 8 end%pal nprocs 64 end
|  3> %tddft
|  4>  Iroot 2 Nroots 3
|  5> sf true
|  6> end
|  7> *xyz 0 3
|  8> O   0.48672627 -0.3503786 -1.01480143
|  9> C   0.69548329 -0.27035576 0.36008818
| 10> C   -0.02008496 0.88011811 0.93889684
| 11> H   1.82015613 -0.14930642 0.55619471
| 12> H   0.42018605 -1.20199169 0.90912387
| 13> H   0.57207173 1.53291508 1.52483336
| 14> H   -1.0497057 1.08151896 0.78907753
| 15> *
| 16>
| 17>                          ****END OF INPUT****

CARTESIAN COORDINATES (ANGSTROEM)
---------------------------------
  O      0.486726   -0.350379   -1.014801
  C      0.695483   -0.270356    0.360088
  C     -0.020085    0.880118    0.938897
  H      1.820156   -0.149306    0.556195
  H      0.420186   -1.201992    0.909124
  H      0.572072    1.532915    1.524833
  H     -1.049706    1.081519    0.789078

 Total Charge           Charge          ....    0
 Multiplicity           Mult            ....    3
 Number of Electrons    NEL             ....   24
 Basis Dimension        Dim             ....  182

ORBITAL ENERGIES
----------------
                 SPIN UP ORBITALS
  NO   OCC          E(Eh)            E(eV)
   0   1.0000     -19.391543      -527.6707
   1   1.0000     -10.417966      -283.4873
   2   1.0000     -10.360161      -281.9143
   3   1.0000      -1.161280       -31.6000
   4   1.0000      -0.880755       -23.9666
   5   1.0000      -0.732970       -19.9451
   6   1.0000      -0.612411       -16.6646
   7   1.0000      -0.586540       -15.9606
   8   1.0000      -0.552118       -15.0239
   9   1.0000      -0.519780       -14.1439
  10   1.0000      -0.442035       -12.0284
  11   1.0000      -0.414529       -11.2799
  12   1.0000      -0.323059        -8.7909
  13   0.0000       0.040966         1.1147
  14   0.0000       0.061693         1.6788
  15   0.0000       0.077504         2.1090
  16   0.0000       0.086879         2.3641
  17   0.0000       0.114471         3.1149

                 SPIN DOWN ORBITALS
  NO   OCC          E(Eh)            E(eV)
   0   1.0000     -19.367315      -527.0114
   1   1.0000     -10.419487      -283.5287
   2   1.0000     -10.347022      -281.5568
   3   1.0000      -1.105471       -30.0814
   4   1.0000      -0.848007       -23.0755
   5   1.0000      -0.706819       -19.2335
   6   1.0000      -0.584507       -15.9052
   7   1.0000      -0.547830       -14.9072
   8   1.0000      -0.531676       -14.4676
   9   1.0000      -0.487162       -13.2563
  10   1.0000      -0.383299       -10.4301
  11   0.0000      -0.057485        -1.5643
  12   0.0000       0.000495         0.0135
  13   0.0000       0.039865         1.0848
  14   0.0000       0.061677         1.6783
  15   0.0000       0.077175         2.1000

----------------------------------------------------------------------------------------------------
          SPIN FLIP ABSORPTION SPECTRUM VIA TRANSITION ELECTRIC DIPOLE MOMENTS
----------------------------------------------------------------------------------------------------
     Transition      Energy     Energy  Wavelength fosc(D2)      D2        DX        DY        DZ
                      (eV)      (cm-1)    (nm)                 (au**2)    (au)      (au)      (au)
----------------------------------------------------------------------------------------------------
  1-3A  ->  2-3A    0.289703    2336.6  4279.7   0.000027668   0.00390   0.06200  -0.00160  -0.00717
  1-3A  ->  3-1A    1.084802    8749.5  1142.9   0.042092720   1.58379   0.23341  -0.61017  -1.07564

Dispersion correction             ... done (  0.2 sec)

MULLIKEN ATOMIC CHARGES AND SPIN DENSITIES
------------------------------------------
   0 O :   -0.318221    0.838009
   1 C :   -0.099321    0.050995
   2 C :   -0.227106   -0.729599
   3 H :    0.199331    0.017573
   4 H :    0.190103   -0.026832
   5 H :    0.120076   -0.056477
   6 H :    0.135138   -0.093668
Sum of atomic charges       :    0.0000000

LOEWDIN ATOMIC CHARGES AND SPIN DENSITIES
-----------------------------------------
   0 O :    0.042961    0.785124
   1 C :   -0.259237   -0.019531
   2 C :    0.292156   -0.616736
   3 H :    0.059743    0.023930
   4 H :    0.038274    0.003506
   5 H :   -0.093794   -0.090828
   6 H :   -0.080104   -0.085464

  Mayer bond orders larger than 0.100000
B(  0-O ,  1-C ) :   0.9046 B(  1-C ,  2-C ) :   0.8525 B(  1-C ,  3-H ) :   0.9722
B(  1-C ,  4-H ) :   0.9291 B(  2-C ,  5-H ) :   1.0463 B(  2-C ,  6-H ) :   1.0333

Dispersion correction           -0.005528754
FINAL SINGLE POINT ENERGY      -153.747818720512

DIPOLE MOMENT
-------------

Method             : TDA/CIS
Type of density    : Electron Density
Level              : Relaxed density
State              :   2
Multiplicity       :   3
Irrep              :   0
Energy             :     0.0000000000000000 Eh
Relativity type    :
Basis              : AO
                                X                 Y                 Z
Electronic contribution:      0.000058802      -0.989928175      -2.531456699
Nuclear contribution   :      0.149231959       0.924033271       3.258978456
                        -----------------------------------------
Total Dipole Moment    :      0.149290761      -0.065894904       0.727521758
                        -----------------------------------------
Magnitude (a.u.)       :      0.745598939
Magnitude (Debye)      :      1.895161892

Rotational constants in cm-1:             1.361759             0.357535             0.310067
Rotational constants in MHz :         40824.501128         10718.636190          9295.579034

                             ****ORCA TERMINATED NORMALLY****
TOTAL RUN TIME: 0 days 0 hours 0 minutes 28 seconds 238 msec
