                         Program Version 6.0.0  -   RELEASE  -
|  1> ! EnGrad wB97M-D3BJ def2-TZVPPD
|  2> %pal nprocs 8 end%pal nprocs 16 end
|  3> %tddft
|  4>  sf true
|  5>  nroots 2 Iroot 2 end
|  6> *xyz 0 3
|  7> O   0.44510795699224 1.27642034171504 0.11105093158913
|  8> C   0.6112998527075 0.15413843507387 -0.30671803863943
|  9> C   -0.43186041554195 -0.82016158522758 0.20156828736248
| 10> H   0.03353854423396 -1.62414048338789 0.77548345849429
| 11> H   1.42919289358642 -0.13831482505444 -0.98064510800758
| 12> H   -0.96137623578191 -1.29943512741752 -0.62420664675557
| 13> H   -1.12370259619627 -0.26690675570147 0.82346711595668
| 14> *
| 15>
| 16>                          ****END OF INPUT****

CARTESIAN COORDINATES (ANGSTROEM)
---------------------------------
  O      0.445108    1.276420    0.111051
  C      0.611300    0.154138   -0.306718
  C     -0.431860   -0.820162    0.201568
  H      0.033539   -1.624140    0.775483
  H      1.429193   -0.138315   -0.980645
  H     -0.961376   -1.299435   -0.624207
  H     -1.123703   -0.266907    0.823467

 Total Charge           Charge          ....    0
 Multiplicity           Mult            ....    3
 Number of Electrons    NEL             ....   24
 Basis Dimension        Dim             ....  182

ORBITAL ENERGIES
----------------
                 SPIN UP ORBITALS
  NO   OCC          E(Eh)            E(eV)
   0   1.0000     -19.411075      -528.2022
   1   1.0000     -10.381074      -282.4834
   2   1.0000     -10.366436      -282.0851
   3   1.0000      -1.246810       -33.9274
   4   1.0000      -0.875214       -23.8158
   5   1.0000      -0.721595       -19.6356
   6   1.0000      -0.639102       -17.3909
   7   1.0000      -0.582150       -15.8411
   8   1.0000      -0.581466       -15.8225
   9   1.0000      -0.514326       -13.9955
  10   1.0000      -0.509639       -13.8680
  11   1.0000      -0.436158       -11.8685
  12   1.0000      -0.225158        -6.1269
  13   0.0000       0.042841         1.1658
  14   0.0000       0.060496         1.6462
  15   0.0000       0.079732         2.1696
  16   0.0000       0.088559         2.4098
  17   0.0000       0.108932         2.9642

                 SPIN DOWN ORBITALS
  NO   OCC          E(Eh)            E(eV)
   0   1.0000     -19.382946      -527.4368
   1   1.0000     -10.370645      -282.1996
   2   1.0000     -10.363992      -282.0186
   3   1.0000      -1.187992       -32.3269
   4   1.0000      -0.855382       -23.2761
   5   1.0000      -0.678619       -18.4662
   6   1.0000      -0.585169       -15.9233
   7   1.0000      -0.539739       -14.6870
   8   1.0000      -0.532109       -14.4794
   9   1.0000      -0.502700       -13.6792
  10   1.0000      -0.469109       -12.7651
  11   0.0000      -0.078550        -2.1374
  12   0.0000       0.042550         1.1579
  13   0.0000       0.060138         1.6364
  14   0.0000       0.080220         2.1829
  15   0.0000       0.081609         2.2207

----------------------------------------------------------------------------------------------------
          SPIN FLIP ABSORPTION SPECTRUM VIA TRANSITION ELECTRIC DIPOLE MOMENTS
----------------------------------------------------------------------------------------------------
     Transition      Energy     Energy  Wavelength fosc(D2)      D2        DX        DY        DZ
                      (eV)      (cm-1)    (nm)                 (au**2)    (au)      (au)      (au)
----------------------------------------------------------------------------------------------------
  1-3A  ->  2-3A    4.335856   34971.0   286.0   0.000000716   0.00001   0.00076  -0.00005   0.00248

Dispersion correction             ... done (  0.0 sec)

MULLIKEN ATOMIC CHARGES AND SPIN DENSITIES
------------------------------------------
   0 O :   -0.242130    0.622322
   1 C :    0.188185   -0.652022
   2 C :   -0.676546    0.126869
   3 H :    0.188977   -0.040877
   4 H :    0.119007   -0.015390
   5 H :    0.191734   -0.039508
   6 H :    0.230774   -0.001394
Sum of atomic charges       :   -0.0000000

LOEWDIN ATOMIC CHARGES AND SPIN DENSITIES
-----------------------------------------
   0 O :    0.150845    0.434286
   1 C :   -0.238625   -0.386864
   2 C :    0.144868    0.007757
   3 H :   -0.016469   -0.012900
   4 H :   -0.008359   -0.033691
   5 H :   -0.015908   -0.011161
   6 H :   -0.016352    0.002573

  Mayer bond orders larger than 0.100000
B(  0-O ,  1-C ) :   1.2529 B(  1-C ,  2-C ) :   0.6784 B(  1-C ,  4-H ) :   1.0274
B(  2-C ,  3-H ) :   0.9928 B(  2-C ,  5-H ) :   0.9920 B(  2-C ,  6-H ) :   0.9548

Dispersion correction           -0.005556829
FINAL SINGLE POINT ENERGY      -153.757591687074

DIPOLE MOMENT
-------------

Method             : TDA/CIS
Type of density    : Electron Density
Level              : Relaxed density
State              :   2
Multiplicity       :   3
Irrep              :   0
Energy             :     0.0000000000000000 Eh
Relativity type    :
Basis              : AO
                                X                 Y                 Z
Electronic contribution:      1.194326307       3.346872771       0.003287966
Nuclear contribution   :     -1.316984843      -3.879498636      -0.047322143
                        -----------------------------------------
Total Dipole Moment    :     -0.122658535      -0.532625865      -0.044034177
                        -----------------------------------------
Magnitude (a.u.)       :      0.548337886
Magnitude (Debye)      :      1.393764141

Rotational constants in cm-1:             1.620699             0.373942             0.321689
Rotational constants in MHz :         48587.333318         11210.485561          9643.986605

                             ****ORCA TERMINATED NORMALLY****
TOTAL RUN TIME: 0 days 0 hours 0 minutes 16 seconds 633 msec
