                         Program Version 6.0.0  -   RELEASE  -
|  1> ! opt def2-TZVPPD wB97M-D3BJ
|  2> %pal nprocs 24 end%geom Constraints
|  3> {B 9 8 3.0 C}
|  4> {A 8 9 11 52.285714285714285 C}
|  5>  end
|  6>  end
|  7> *xyz 0 1
|  8> O   2.98579685529314 0.88758230159078 -0.86184571092411
|  9> O   -0.03983205397054 0.68929041702508 -2.10362336723772
| 10> O   0.93431434349854 -3.13274393337945 -0.68767288184107
| 11> O   -3.75829998830163 -0.84727300865116 -0.0472717177755
| 12> N   0.21184538946282 -1.54604804365365 0.7617588924445
| 13> N   -2.13631993928911 0.03188773433438 1.27350571071531
| 14> N   2.02598672506387 -1.14318467211666 -0.64531219127023
| 15> N   -1.91814233924584 0.03137116037665 -1.04498946748291
| 16> C   1.18097737274226 0.71693507080484 0.70173889017321
| 17> C   -0.20686880480777 1.27024627933494 0.21345042231937
| 18> C   0.41441080275909 -0.34173258966541 1.52336266615173
| 19> C   -0.82922175114212 0.58960593673968 1.44434972027296
| 20> C   1.92822011286806 1.69488653817281 1.5963734975385
| 21> C   -0.37809776891576 2.77134929626422 0.04819649358288
| 22> C   2.1403947470937 0.1972384729179 -0.35038567829864
| 23> C   -0.67361678962426 0.6214190571346 -1.0793014500539
| 24> C   1.04142578622994 -2.02697492875068 -0.21027082435993
| 25> C   -2.68467002550422 -0.30396816036989 0.07167054343891
| 26> H   0.80817443950001 -0.54572267081061 2.51895215321335
| 27> H   -0.83785272399001 1.27240685039143 2.28901317073582
| 28> H   2.31167340578204 2.52284411740894 1.00913016264629
| 29> H   1.28982602448342 2.08257620823614 2.38710022492991
| 30> H   2.77390820759972 1.19140411795486 2.06045858523949
| 31> H   -1.41857211141493 3.00964947214868 -0.16882755561625
| 32> H   -0.09065531563179 3.29799318042223 0.95389844358819
| 33> H   0.23426221611057 3.12492645074476 -0.77764887675592
| 34> H   -0.46772570547622 -2.21560145172536 1.0787081584806
| 35> H   -2.71769301149571 -0.17090724573546 2.06627440900372
| 36> H   2.60065167263658 -1.49057255715425 -1.3966820077142
| 37> H   -2.27169977231386 -0.32388339999036 -1.91951041514436
| 38> *
| 39>
| 40>                          ****END OF INPUT****
 Total Charge           Charge          ....    0
 Multiplicity           Mult            ....    1
 Number of Electrons    NEL             ....  132
Dispersion correction           -0.052740165
FINAL SINGLE POINT ENERGY      -908.653527485999
Dispersion correction             ... done (  0.1 sec)
Dispersion correction           -0.053597182
FINAL SINGLE POINT ENERGY      -908.691321933478
Dispersion correction             ... done (  0.1 sec)
Dispersion correction           -0.054421557
FINAL SINGLE POINT ENERGY      -908.717298673940
Dispersion correction             ... done (  0.1 sec)
FINAL SINGLE POINT ENERGY      -908.743601968974
FINAL SINGLE POINT ENERGY      -908.762747229309
FINAL SINGLE POINT ENERGY      -908.770002111697
FINAL SINGLE POINT ENERGY      -908.773006286984
FINAL SINGLE POINT ENERGY      -908.774054956066
FINAL SINGLE POINT ENERGY      -908.774700119479
FINAL SINGLE POINT ENERGY      -908.775178193820
FINAL SINGLE POINT ENERGY      -908.776860783731
FINAL SINGLE POINT ENERGY      -908.776951295084
FINAL SINGLE POINT ENERGY      -908.777078408670
FINAL SINGLE POINT ENERGY      -908.777174275041
FINAL SINGLE POINT ENERGY      -908.777221740265
FINAL SINGLE POINT ENERGY      -908.777236364685
FINAL SINGLE POINT ENERGY      -908.777243380501
Dispersion correction             ... done (  0.0 sec)
Dispersion correction           -0.057397172
FINAL SINGLE POINT ENERGY      -908.777245480020
Dispersion correction             ... done (  0.0 sec)
Dispersion correction           -0.057399752
FINAL SINGLE POINT ENERGY      -908.777246377210
Dispersion correction             ... done (  0.0 sec)
                    ***********************HURRAY********************

CARTESIAN COORDINATES (ANGSTROEM)
---------------------------------
  O      3.786175    0.454438   -0.023697
  O     -1.280827    1.153134   -2.491971
  O      0.954584   -2.882917   -1.208403
  O     -3.581770   -1.234675    0.559545
  N      0.262610   -1.439625    0.392410
  N     -1.999856    0.207437    1.333689
  N      2.359284   -1.213456   -0.585267
  N     -2.198828   -0.242699   -0.947997
  C      1.717563    0.383293    1.099181
  C     -0.739139    1.499534   -0.211780
  C      0.423633   -0.326215    1.292904
  C     -0.646902    0.735660    1.129159
  C      2.086328    1.510902    1.973732
  C     -0.613819    2.963996   -0.221910
  C      2.709406   -0.090086    0.139035
  C     -1.380567    0.814411   -1.331928
  C      1.164093   -1.915093   -0.512880
  C     -2.659447   -0.481535    0.343742
  H      0.366905   -0.696578    2.330293
  H     -0.483941    1.480528    1.905313
  H      3.167439    1.606184    2.018762
  H      1.708136    2.466569    1.582520
  H      1.670286    1.394443    2.975472
  H     -1.412595    3.422009    0.375670
  H      0.326130    3.283972    0.241710
  H     -0.677723    3.347910   -1.235354
  H     -0.553787   -2.017925    0.482970
  H     -2.337056   -0.008699    2.256518
  H      3.014716   -1.537325   -1.277217
  H     -2.698430   -0.722593   -1.679620

 Multiplicity           Mult            ....    1
 Number of Electrons    NEL             ....  132
 Basis Dimension        Dim             ....  882

ORBITAL ENERGIES
----------------

  NO   OCC          E(Eh)            E(eV)
   0   2.0000     -19.335812      -526.1542
   1   2.0000     -19.329302      -525.9771
   2   2.0000     -19.329151      -525.9729
   3   2.0000     -19.314374      -525.5708
   4   2.0000     -14.565622      -396.3507
   5   2.0000     -14.564709      -396.3259
   6   2.0000     -14.561217      -396.2309
   7   2.0000     -14.557609      -396.1327
   8   2.0000     -10.511673      -286.0372
   9   2.0000     -10.502807      -285.7959
  10   2.0000     -10.487073      -285.3678
  11   2.0000     -10.483453      -285.2693
  12   2.0000     -10.445807      -284.2449
  13   2.0000     -10.442352      -284.1508
  14   2.0000     -10.432557      -283.8843
  15   2.0000     -10.431751      -283.8624
  16   2.0000     -10.382469      -282.5214
  17   2.0000     -10.381098      -282.4840
  18   2.0000      -1.225527       -33.3483
  19   2.0000      -1.216239       -33.0956
  20   2.0000      -1.200307       -32.6620
  21   2.0000      -1.193046       -32.4644
  22   2.0000      -1.120193       -30.4820
  23   2.0000      -1.097919       -29.8759
  24   2.0000      -1.068206       -29.0674
  25   2.0000      -1.058116       -28.7928
  26   2.0000      -0.984420       -26.7874
  27   2.0000      -0.952610       -25.9218
  28   2.0000      -0.895772       -24.3752
  29   2.0000      -0.842389       -22.9226
  30   2.0000      -0.829389       -22.5688
  31   2.0000      -0.800956       -21.7951
  32   2.0000      -0.786354       -21.3978
  33   2.0000      -0.785220       -21.3669
  34   2.0000      -0.703910       -19.1544
  35   2.0000      -0.697385       -18.9768
  36   2.0000      -0.691111       -18.8061
  37   2.0000      -0.675181       -18.3726
  38   2.0000      -0.648745       -17.6532
  39   2.0000      -0.637312       -17.3421
  40   2.0000      -0.626152       -17.0385
  41   2.0000      -0.602891       -16.4055
  42   2.0000      -0.594264       -16.1707
  43   2.0000      -0.586531       -15.9603
  44   2.0000      -0.576350       -15.6833
  45   2.0000      -0.573725       -15.6118
  46   2.0000      -0.566532       -15.4161
  47   2.0000      -0.562787       -15.3142
  48   2.0000      -0.558666       -15.2021
  49   2.0000      -0.552686       -15.0394
  50   2.0000      -0.551064       -14.9952
  51   2.0000      -0.546754       -14.8779
  52   2.0000      -0.531650       -14.4669
  53   2.0000      -0.522472       -14.2172
  54   2.0000      -0.514205       -13.9922
  55   2.0000      -0.509145       -13.8545
  56   2.0000      -0.492378       -13.3983
  57   2.0000      -0.424039       -11.5387
  58   2.0000      -0.420302       -11.4370
  59   2.0000      -0.409229       -11.1357
  60   2.0000      -0.397707       -10.8221
  61   2.0000      -0.396530       -10.7901
  62   2.0000      -0.393446       -10.7062
  63   2.0000      -0.387416       -10.5421
  64   2.0000      -0.378080       -10.2881
  65   2.0000      -0.286168        -7.7870
  66   0.0000      -0.115791        -3.1508
  67   0.0000       0.007043         0.1917
  68   0.0000       0.027788         0.7562
  69   0.0000       0.032391         0.8814
  70   0.0000       0.033977         0.9246

MULLIKEN ATOMIC CHARGES
-----------------------
   0 O :   -0.668533
   1 O :   -0.640795
   2 O :   -0.664796
   3 O :   -0.634495
   4 N :   -0.153057
   5 N :   -0.308965
   6 N :   -0.049090
   7 N :    0.060295
   8 C :    0.429544
   9 C :    0.368375
  10 C :    0.181325
  11 C :    0.511955
  12 C :   -1.575156
  13 C :   -1.472779
  14 C :    0.566404
  15 C :    0.101936
  16 C :    0.510412
  17 C :    0.351104
  18 H :    0.421062
  19 H :    0.595446
  20 H :    0.362390
  21 H :    0.243818
  22 H :    0.351504
  23 H :    0.353709
  24 H :    0.209255
  25 H :    0.380376
  26 H :    0.015859
  27 H :    0.089089
  28 H :    0.033095
  29 H :    0.030712
Sum of atomic charges:   -0.0000000

LOEWDIN ATOMIC CHARGES
----------------------
   0 O :    0.088964
   1 O :    0.107421
   2 O :    0.089612
   3 O :    0.092276
   4 N :    0.293770
   5 N :    0.286280
   6 N :    0.328443
   7 N :    0.322798
   8 C :    0.008474
   9 C :    0.024997
  10 C :   -0.158766
  11 C :   -0.135604
  12 C :    0.184311
  13 C :    0.182902
  14 C :   -0.394438
  15 C :   -0.401520
  16 C :   -0.473869
  17 C :   -0.495319
  18 H :    0.066414
  19 H :    0.040674
  20 H :    0.002964
  21 H :   -0.002727
  22 H :    0.009085
  23 H :    0.020685
  24 H :   -0.011499
  25 H :    0.003223
  26 H :   -0.030529
  27 H :   -0.030636
  28 H :   -0.010182
  29 H :   -0.008203

  Mayer bond orders larger than 0.100000
B(  0-O , 12-C ) :   0.1025 B(  0-O , 14-C ) :   1.2401 B(  1-O , 15-C ) :   1.4300
B(  2-O , 16-C ) :   1.5651 B(  3-O , 17-C ) :   1.5969 B(  4-N , 10-C ) :   0.6805
B(  4-N , 16-C ) :   1.0608 B(  4-N , 26-H ) :   1.1313 B(  5-N ,  9-C ) :   0.2603
B(  5-N , 10-C ) :   0.1715 B(  5-N , 17-C ) :   1.1943 B(  5-N , 27-H ) :   1.0480
B(  6-N , 14-C ) :   1.0263 B(  6-N , 16-C ) :   0.9255 B(  6-N , 28-H ) :   1.1270
B(  7-N , 15-C ) :   1.0233 B(  7-N , 17-C ) :   0.9714 B(  7-N , 29-H ) :   1.0938
B(  8-C ,  9-C ) :   0.5185 B(  8-C , 10-C ) :   0.6569 B(  8-C , 11-C ) :   0.2132
B(  8-C , 12-C ) :   0.1090 B(  8-C , 14-C ) :   0.7430 B(  8-C , 18-H ) :  -0.1639
B(  8-C , 22-H ) :  -0.1312 B(  9-C , 10-C ) :   0.3186 B(  9-C , 13-C ) :   0.2965
B(  9-C , 15-C ) :   0.7634 B(  9-C , 24-H ) :  -0.1226 B(  9-C , 25-H ) :  -0.1144
B( 10-C , 11-C ) :   0.5652 B( 10-C , 12-C ) :  -0.2316 B( 10-C , 14-C ) :   0.1782
B( 10-C , 18-H ) :   0.9779 B( 10-C , 19-H ) :  -0.1199 B( 11-C , 12-C ) :   0.1296
B( 11-C , 13-C ) :  -0.1542 B( 11-C , 15-C ) :  -0.1923 B( 11-C , 17-C ) :  -0.1830
B( 11-C , 19-H ) :   0.7650 B( 12-C , 14-C ) :  -0.1338 B( 12-C , 20-H ) :   0.9544
B( 12-C , 21-H ) :   0.9340 B( 12-C , 22-H ) :   1.0000 B( 13-C , 23-H ) :   0.8480
B( 13-C , 24-H ) :   1.1143 B( 13-C , 25-H ) :   0.9295 B( 18-H , 19-H ) :   0.1035

Dispersion correction           -0.057400041
FINAL SINGLE POINT ENERGY      -908.777246831348

DIPOLE MOMENT
-------------

Method             : SCF
Type of density    : Electron Density
Multiplicity       :   1
Irrep              :   0
Energy             :  -908.7198467898838317 Eh
Relativity type    :
Basis              : AO
                                X                 Y                 Z
Electronic contribution:     -1.962379673      -9.970590340      -6.636723387
Nuclear contribution   :      1.823248034      11.426041665       9.019549704
                        -----------------------------------------
Total Dipole Moment    :     -0.139131639       1.455451325       2.382826317
                        -----------------------------------------
Magnitude (a.u.)       :      2.795631848
Magnitude (Debye)      :      7.105931440

Rotational constants in cm-1:             0.020154             0.012426             0.010739
Rotational constants in MHz :           604.211095           372.515655           321.945515

                             ****ORCA TERMINATED NORMALLY****
TOTAL RUN TIME: 0 days 2 hours 53 minutes 26 seconds 111 msec
