                         Program Version 6.0.0  -   RELEASE  -
|  1> ! EnGrad wB97M-D3BJ def2-TZVPPD
|  2> %pal nprocs 8 end%pal nprocs 16 end
|  3> %tddft
|  4>  sf true
|  5>  nroots 2 Iroot 1 end
|  6> *xyz 0 3
|  7> O   0.52077847016948 1.34690959837547 0.09533517808071
|  8> C   0.55794039117686 0.19973883187248 -0.26404606846238
|  9> C   -0.42781480769468 -0.8300285565236 0.20552762563837
| 10> H   0.10149021849205 -1.64845597892652 0.69555377553053
| 11> H   1.33676610213953 -0.14667728676205 -0.96861416119938
| 12> H   -0.94623065274453 -1.25914520114116 -0.65307066128271
| 13> H   -1.14072972153871 -0.38074140689464 0.88931431169485
| 14> *
| 15>
| 16>                          ****END OF INPUT****

CARTESIAN COORDINATES (ANGSTROEM)
---------------------------------
  O      0.520778    1.346910    0.095335
  C      0.557940    0.199739   -0.264046
  C     -0.427815   -0.830029    0.205528
  H      0.101490   -1.648456    0.695554
  H      1.336766   -0.146677   -0.968614
  H     -0.946231   -1.259145   -0.653071
  H     -1.140730   -0.380741    0.889314

 Total Charge           Charge          ....    0
 Multiplicity           Mult            ....    3
 Number of Electrons    NEL             ....   24
 Basis Dimension        Dim             ....  182

ORBITAL ENERGIES
----------------
                 SPIN UP ORBITALS
  NO   OCC          E(Eh)            E(eV)
   0   1.0000     -19.410129      -528.1765
   1   1.0000     -10.379482      -282.4401
   2   1.0000     -10.366641      -282.0906
   3   1.0000      -1.246546       -33.9202
   4   1.0000      -0.881144       -23.9772
   5   1.0000      -0.718676       -19.5562
   6   1.0000      -0.636040       -17.3075
   7   1.0000      -0.586235       -15.9523
   8   1.0000      -0.582153       -15.8412
   9   1.0000      -0.514706       -14.0059
  10   1.0000      -0.512954       -13.9582
  11   1.0000      -0.434745       -11.8300
  12   1.0000      -0.221258        -6.0207
  13   0.0000       0.041388         1.1262
  14   0.0000       0.060330         1.6417
  15   0.0000       0.078734         2.1425
  16   0.0000       0.088062         2.3963
  17   0.0000       0.108030         2.9396

                 SPIN DOWN ORBITALS
  NO   OCC          E(Eh)            E(eV)
   0   1.0000     -19.382382      -527.4214
   1   1.0000     -10.369192      -282.1601
   2   1.0000     -10.364428      -282.0304
   3   1.0000      -1.188543       -32.3419
   4   1.0000      -0.861824       -23.4514
   5   1.0000      -0.674313       -18.3490
   6   1.0000      -0.586011       -15.9462
   7   1.0000      -0.540614       -14.7109
   8   1.0000      -0.534965       -14.5571
   9   1.0000      -0.499944       -13.6042
  10   1.0000      -0.471011       -12.8169
  11   0.0000      -0.082789        -2.2528
  12   0.0000       0.041629         1.1328
  13   0.0000       0.059992         1.6325
  14   0.0000       0.078721         2.1421
  15   0.0000       0.083735         2.2785

----------------------------------------------------------------------------------------------------
          SPIN FLIP ABSORPTION SPECTRUM VIA TRANSITION ELECTRIC DIPOLE MOMENTS
----------------------------------------------------------------------------------------------------
     Transition      Energy     Energy  Wavelength fosc(D2)      D2        DX        DY        DZ
                      (eV)      (cm-1)    (nm)                 (au**2)    (au)      (au)      (au)
----------------------------------------------------------------------------------------------------
  1-3A  ->  2-3A    4.551753   36712.4   272.4   0.000058346   0.00052  -0.01376   0.00507  -0.01755

Dispersion correction             ... done (  0.0 sec)

MULLIKEN ATOMIC CHARGES AND SPIN DENSITIES
------------------------------------------
   0 O :   -0.511403    0.056619
   1 C :    0.206414   -0.174994
   2 C :   -0.684856    0.047817
   3 H :    0.227458   -0.005173
   4 H :    0.294525    0.076597
   5 H :    0.226339   -0.005166
   6 H :    0.241522    0.004300
Sum of atomic charges       :   -0.0000000

LOEWDIN ATOMIC CHARGES AND SPIN DENSITIES
-----------------------------------------
   0 O :    0.038412    0.022029
   1 C :   -0.217697   -0.014847
   2 C :    0.175522   -0.001736
   3 H :   -0.009912   -0.001296
   4 H :    0.030373   -0.003670
   5 H :   -0.009953   -0.001289
   6 H :   -0.006746    0.000809

  Mayer bond orders larger than 0.100000
B(  0-O ,  1-C ) :   1.7868 B(  1-C ,  2-C ) :   0.7438 B(  1-C ,  4-H ) :   0.9314
B(  2-C ,  3-H ) :   0.9930 B(  2-C ,  5-H ) :   0.9931 B(  2-C ,  6-H ) :   0.9590

Dispersion correction           -0.005540272
FINAL SINGLE POINT ENERGY      -153.924407685261

DIPOLE MOMENT
-------------

Method             : TDA/CIS
Type of density    : Electron Density
Level              : Relaxed density
State              :   1
Multiplicity       :   3
Irrep              :   0
Energy             :     0.0000000000000000 Eh
Relativity type    :
Basis              : AO
                                X                 Y                 Z
Electronic contribution:      1.262273568       2.887310319      -0.149884096
Nuclear contribution   :     -1.391202744      -4.102108157      -0.100290227
                        -----------------------------------------
Total Dipole Moment    :     -0.128929176      -1.214797838      -0.250174323
                        -----------------------------------------
Magnitude (a.u.)       :      1.246973822
Magnitude (Debye)      :      3.169555566

Rotational constants in cm-1:             1.865774             0.345549             0.308027
Rotational constants in MHz :         55934.494050         10359.289393          9234.430321

                             ****ORCA TERMINATED NORMALLY****
TOTAL RUN TIME: 0 days 0 hours 0 minutes 16 seconds 469 msec
