                         Program Version 6.0.0  -   RELEASE  -
|  1> ! Engrad wB97M-D3BJ def2-TZVPPD
|  2> %pal nprocs 8 end%pal nprocs 16 end
|  3> %tddft nroots 2 Iroot 2
|  4>  sf true
|  5> end
|  6> *xyz 0 3
|  7> O   1.09370340547873 1.16601130670045 -0.0592942113705
|  8> C   0.89609787648542 0.03278339573568 0.29743535569836
|  9> C   -0.30745705474782 -0.70682731614679 -0.21894308911778
| 10> H   1.57550886166576 -0.48411568927931 0.99674408900319
| 11> H   0.00376608595357 -1.61364520674243 -0.73985064199484
| 12> H   -0.86436123218239 -0.0608801275371 -0.88869643429907
| 13> H   -0.93869449663243 -1.02409745537704 0.61260493208064
| 14> *
| 15>
| 16>                          ****END OF INPUT****

CARTESIAN COORDINATES (ANGSTROEM)
---------------------------------
  O      1.093703    1.166011   -0.059294
  C      0.896098    0.032783    0.297435
  C     -0.307457   -0.706827   -0.218943
  H      1.575509   -0.484116    0.996744
  H      0.003766   -1.613645   -0.739851
  H     -0.864361   -0.060880   -0.888696
  H     -0.938694   -1.024097    0.612605

 Total Charge           Charge          ....    0
 Multiplicity           Mult            ....    3
 Number of Electrons    NEL             ....   24
 Basis Dimension        Dim             ....  182

ORBITAL ENERGIES
----------------
                 SPIN UP ORBITALS
  NO   OCC          E(Eh)            E(eV)
   0   1.0000     -19.410670      -528.1912
   1   1.0000     -10.379736      -282.4470
   2   1.0000     -10.366284      -282.0809
   3   1.0000      -1.246913       -33.9302
   4   1.0000      -0.879362       -23.9287
   5   1.0000      -0.719545       -19.5798
   6   1.0000      -0.637235       -17.3401
   7   1.0000      -0.584931       -15.9168
   8   1.0000      -0.582321       -15.8457
   9   1.0000      -0.514304       -13.9949
  10   1.0000      -0.512003       -13.9323
  11   1.0000      -0.435912       -11.8618
  12   1.0000      -0.222413        -6.0522
  13   0.0000       0.041957         1.1417
  14   0.0000       0.060414         1.6440
  15   0.0000       0.079056         2.1512
  16   0.0000       0.088207         2.4002
  17   0.0000       0.108341         2.9481

                 SPIN DOWN ORBITALS
  NO   OCC          E(Eh)            E(eV)
   0   1.0000     -19.382785      -527.4324
   1   1.0000     -10.369412      -282.1661
   2   1.0000     -10.364004      -282.0189
   3   1.0000      -1.188572       -32.3427
   4   1.0000      -0.859898       -23.3990
   5   1.0000      -0.675618       -18.3845
   6   1.0000      -0.585912       -15.9435
   7   1.0000      -0.540400       -14.7050
   8   1.0000      -0.534287       -14.5387
   9   1.0000      -0.500661       -13.6237
  10   1.0000      -0.470579       -12.8051
  11   0.0000      -0.081905        -2.2288
  12   0.0000       0.042017         1.1433
  13   0.0000       0.060073         1.6347
  14   0.0000       0.079183         2.1547
  15   0.0000       0.083181         2.2635

----------------------------------------------------------------------------------------------------
          SPIN FLIP ABSORPTION SPECTRUM VIA TRANSITION ELECTRIC DIPOLE MOMENTS
----------------------------------------------------------------------------------------------------
     Transition      Energy     Energy  Wavelength fosc(D2)      D2        DX        DY        DZ
                      (eV)      (cm-1)    (nm)                 (au**2)    (au)      (au)      (au)
----------------------------------------------------------------------------------------------------
  1-3A  ->  2-3A    4.498892   36286.0   275.6   0.000024698   0.00022   0.00805  -0.00506  -0.01157

Dispersion correction             ... done (  0.0 sec)

MULLIKEN ATOMIC CHARGES AND SPIN DENSITIES
------------------------------------------
   0 O :   -0.248596    0.608405
   1 C :    0.205185   -0.633265
   2 C :   -0.697814    0.122508
   3 H :    0.110684   -0.008503
   4 H :    0.194047   -0.043725
   5 H :    0.242227   -0.002871
   6 H :    0.194267   -0.042550
Sum of atomic charges       :   -0.0000000

LOEWDIN ATOMIC CHARGES AND SPIN DENSITIES
-----------------------------------------
   0 O :    0.158166    0.418334
   1 C :   -0.250685   -0.365680
   2 C :    0.139541   -0.004233
   3 H :    0.000292   -0.019039
   4 H :   -0.017535   -0.016373
   5 H :   -0.012291    0.003344
   6 H :   -0.017488   -0.016353

  Mayer bond orders larger than 0.100000
B(  0-O ,  1-C ) :   1.2635 B(  1-C ,  2-C ) :   0.6599 B(  1-C ,  3-H ) :   1.0192
B(  2-C ,  4-H ) :   1.0027 B(  2-C ,  5-H ) :   0.9432 B(  2-C ,  6-H ) :   1.0016

Dispersion correction           -0.005547010
FINAL SINGLE POINT ENERGY      -153.757756677702

DIPOLE MOMENT
-------------

Method             : TDA/CIS
Type of density    : Electron Density
Level              : Relaxed density
State              :   2
Multiplicity       :   3
Irrep              :   0
Energy             :     0.0000000000000000 Eh
Relativity type    :
Basis              : AO
                                X                 Y                 Z
Electronic contribution:      2.007035195       3.086578075       0.051876030
Nuclear contribution   :     -2.275608659      -3.597386099      -0.016730441
                        -----------------------------------------
Total Dipole Moment    :     -0.268573465      -0.510808024       0.035145588
                        -----------------------------------------
Magnitude (a.u.)       :      0.578179692
Magnitude (Debye)      :      1.469615984

Rotational constants in cm-1:             1.782004             0.354317             0.312478
Rotational constants in MHz :         53423.144353         10622.160284          9367.843812

                             ****ORCA TERMINATED NORMALLY****
TOTAL RUN TIME: 0 days 0 hours 0 minutes 16 seconds 186 msec
