                         Program Version 6.0.0  -   RELEASE  -
|  1> ! opt def2-TZVPPD wB97M-D3BJ
|  2> %pal nprocs 8 end%pal nprocs 32 end
|  3> %geom Constraints
|  4> {B 9 8 2.7 C}
|  5> {A 8 9 11 43.14285714285714 C}
|  6> end
|  7> MaxIter 300
|  8> end
|  9> *xyz 0 1
| 10> O   2.98579685529314 0.88758230159078 -0.86184571092411
| 11> O   -0.03983205397054 0.68929041702508 -2.10362336723772
| 12> O   0.93431434349854 -3.13274393337945 -0.68767288184107
| 13> O   -3.75829998830163 -0.84727300865116 -0.0472717177755
| 14> N   0.21184538946282 -1.54604804365365 0.7617588924445
| 15> N   -2.13631993928911 0.03188773433438 1.27350571071531
| 16> N   2.02598672506387 -1.14318467211666 -0.64531219127023
| 17> N   -1.91814233924584 0.03137116037665 -1.04498946748291
| 18> C   1.18097737274226 0.71693507080484 0.70173889017321
| 19> C   -0.20686880480777 1.27024627933494 0.21345042231937
| 20> C   0.41441080275909 -0.34173258966541 1.52336266615173
| 21> C   -0.82922175114212 0.58960593673968 1.44434972027296
| 22> C   1.92822011286806 1.69488653817281 1.5963734975385
| 23> C   -0.37809776891576 2.77134929626422 0.04819649358288
| 24> C   2.1403947470937 0.1972384729179 -0.35038567829864
| 25> C   -0.67361678962426 0.6214190571346 -1.0793014500539
| 26> C   1.04142578622994 -2.02697492875068 -0.21027082435993
| 27> C   -2.68467002550422 -0.30396816036989 0.07167054343891
| 28> H   0.80817443950001 -0.54572267081061 2.51895215321335
| 29> H   -0.83785272399001 1.27240685039143 2.28901317073582
| 30> H   2.31167340578204 2.52284411740894 1.00913016264629
| 31> H   1.28982602448342 2.08257620823614 2.38710022492991
| 32> H   2.77390820759972 1.19140411795486 2.06045858523949
| 33> H   -1.41857211141493 3.00964947214868 -0.16882755561625
| 34> H   -0.09065531563179 3.29799318042223 0.95389844358819
| 35> H   0.23426221611057 3.12492645074476 -0.77764887675592
| 36> H   -0.46772570547622 -2.21560145172536 1.0787081584806
| 37> H   -2.71769301149571 -0.17090724573546 2.06627440900372
| 38> H   2.60065167263658 -1.49057255715425 -1.3966820077142
| 39> H   -2.27169977231386 -0.32388339999036 -1.91951041514436
| 40> *
| 41>
| 42>                          ****END OF INPUT****
 Total Charge           Charge          ....    0
 Multiplicity           Mult            ....    1
 Number of Electrons    NEL             ....  132
Dispersion correction           -0.054629633
FINAL SINGLE POINT ENERGY      -908.566657339080
Dispersion correction             ... done (  0.0 sec)
Dispersion correction           -0.054770998
FINAL SINGLE POINT ENERGY      -908.611652765802
Dispersion correction             ... done (  0.0 sec)
Dispersion correction           -0.055046940
FINAL SINGLE POINT ENERGY      -908.641979886578
Dispersion correction             ... done (  0.0 sec)
FINAL SINGLE POINT ENERGY      -908.673543288412
FINAL SINGLE POINT ENERGY      -908.701797227721
FINAL SINGLE POINT ENERGY      -908.714244870420
FINAL SINGLE POINT ENERGY      -908.723096482632
FINAL SINGLE POINT ENERGY      -908.730146473777
FINAL SINGLE POINT ENERGY      -908.732877934139
FINAL SINGLE POINT ENERGY      -908.734613433576
FINAL SINGLE POINT ENERGY      -908.849160126045
FINAL SINGLE POINT ENERGY      -908.849222176945
FINAL SINGLE POINT ENERGY      -908.849293678312
FINAL SINGLE POINT ENERGY      -908.849320807668
FINAL SINGLE POINT ENERGY      -908.849337303001
FINAL SINGLE POINT ENERGY      -908.849347955999
FINAL SINGLE POINT ENERGY      -908.849353490266
Dispersion correction             ... done (  0.0 sec)
Dispersion correction           -0.058811312
FINAL SINGLE POINT ENERGY      -908.849357785371
Dispersion correction             ... done (  0.0 sec)
Dispersion correction           -0.058834728
FINAL SINGLE POINT ENERGY      -908.849360817805
Dispersion correction             ... done (  0.0 sec)
                    ***********************HURRAY********************

CARTESIAN COORDINATES (ANGSTROEM)
---------------------------------
  O      2.971943    0.605614   -0.849045
  O      0.223821    1.037845   -1.833345
  O      0.294969   -3.030796   -0.561293
  O     -3.568077   -1.068460   -0.444572
  N      0.166008   -1.515227    1.118906
  N     -2.369836    0.717633    0.416228
  N      1.601452   -1.180689   -0.678909
  N     -1.581875   -0.301440   -1.370523
  C      1.527343    0.560730    1.015153
  C     -0.982260    1.242276    0.288937
  C      0.570250   -0.309970    1.778401
  C     -0.260443    0.932282    1.562210
  C      2.514131    1.393199    1.789418
  C     -1.004385    2.761256    0.089525
  C      2.059957    0.062221   -0.277702
  C     -0.636583    0.644991   -1.093933
  C      0.656613   -1.988352   -0.062517
  C     -2.631630   -0.313099   -0.442391
  H      0.827205   -0.479146    2.819418
  H     -0.211141    1.718291    2.298419
  H      2.718856    2.326549    1.272017
  H      2.137286    1.618827    2.783970
  H      3.463065    0.865547    1.887851
  H     -1.646979    3.023195   -0.746332
  H     -1.380628    3.250677    0.985676
  H      0.003599    3.110106   -0.117318
  H     -0.543442   -2.094529    1.531484
  H     -2.835336    0.705749    1.306479
  H      1.970428   -1.535090   -1.546181
  H     -1.601711   -0.845188   -2.215429

 Multiplicity           Mult            ....    1
 Number of Electrons    NEL             ....  132
 Basis Dimension        Dim             ....  882

ORBITAL ENERGIES
----------------

  NO   OCC          E(Eh)            E(eV)
   0   2.0000     -19.342429      -526.3342
   1   2.0000     -19.324717      -525.8523
   2   2.0000     -19.322925      -525.8035
   3   2.0000     -19.315280      -525.5955
   4   2.0000     -14.568789      -396.4369
   5   2.0000     -14.559550      -396.1855
   6   2.0000     -14.558018      -396.1438
   7   2.0000     -14.550935      -395.9511
   8   2.0000     -10.503375      -285.8114
   9   2.0000     -10.501906      -285.7714
  10   2.0000     -10.491899      -285.4991
  11   2.0000     -10.482867      -285.2533
  12   2.0000     -10.446881      -284.2741
  13   2.0000     -10.444762      -284.2164
  14   2.0000     -10.421572      -283.5854
  15   2.0000     -10.414899      -283.4038
  16   2.0000     -10.363818      -282.0138
  17   2.0000     -10.362205      -281.9699
  18   2.0000      -1.231196       -33.5025
  19   2.0000      -1.216021       -33.0896
  20   2.0000      -1.203483       -32.7484
  21   2.0000      -1.193186       -32.4682
  22   2.0000      -1.126658       -30.6579
  23   2.0000      -1.106559       -30.1110
  24   2.0000      -1.062546       -28.9134
  25   2.0000      -1.053324       -28.6624
  26   2.0000      -0.993149       -27.0250
  27   2.0000      -0.931694       -25.3527
  28   2.0000      -0.876037       -23.8382
  29   2.0000      -0.817656       -22.2495
  30   2.0000      -0.815868       -22.2009
  31   2.0000      -0.798138       -21.7184
  32   2.0000      -0.785139       -21.3647
  33   2.0000      -0.774884       -21.0857
  34   2.0000      -0.729327       -19.8460
  35   2.0000      -0.690930       -18.8012
  36   2.0000      -0.679416       -18.4879
  37   2.0000      -0.664179       -18.0732
  38   2.0000      -0.643916       -17.5219
  39   2.0000      -0.630945       -17.1689
  40   2.0000      -0.621854       -16.9215
  41   2.0000      -0.608825       -16.5670
  42   2.0000      -0.593799       -16.1581
  43   2.0000      -0.586427       -15.9575
  44   2.0000      -0.580798       -15.8043
  45   2.0000      -0.573008       -15.5923
  46   2.0000      -0.561561       -15.2808
  47   2.0000      -0.555928       -15.1276
  48   2.0000      -0.551281       -15.0011
  49   2.0000      -0.544931       -14.8283
  50   2.0000      -0.536139       -14.5891
  51   2.0000      -0.521224       -14.1832
  52   2.0000      -0.519079       -14.1249
  53   2.0000      -0.510166       -13.8823
  54   2.0000      -0.504780       -13.7358
  55   2.0000      -0.498927       -13.5765
  56   2.0000      -0.478901       -13.0316
  57   2.0000      -0.422624       -11.5002
  58   2.0000      -0.411007       -11.1841
  59   2.0000      -0.407443       -11.0871
  60   2.0000      -0.403498       -10.9797
  61   2.0000      -0.395227       -10.7547
  62   2.0000      -0.387457       -10.5433
  63   2.0000      -0.384380       -10.4595
  64   2.0000      -0.379718       -10.3327
  65   2.0000      -0.347103        -9.4451
  66   0.0000      -0.003128        -0.0851
  67   0.0000       0.018684         0.5084
  68   0.0000       0.031481         0.8567
  69   0.0000       0.036830         1.0022
  70   0.0000       0.040328         1.0974

MULLIKEN ATOMIC CHARGES
-----------------------
   0 O :   -0.646634
   1 O :   -0.598042
   2 O :   -0.670069
   3 O :   -0.633633
   4 N :   -0.125642
   5 N :   -0.252292
   6 N :    0.063962
   7 N :    0.157559
   8 C :    0.910801
   9 C :    2.457594
  10 C :    0.490907
  11 C :   -1.315927
  12 C :   -1.804990
  13 C :   -1.558980
  14 C :    0.201227
  15 C :   -0.412749
  16 C :    0.482732
  17 C :    0.291812
  18 H :    0.317688
  19 H :    0.309001
  20 H :    0.301551
  21 H :    0.366790
  22 H :    0.379302
  23 H :    0.346384
  24 H :    0.399152
  25 H :    0.340398
  26 H :    0.036392
  27 H :    0.084530
  28 H :    0.009715
  29 H :    0.071461
Sum of atomic charges:    0.0000000

LOEWDIN ATOMIC CHARGES
----------------------
   0 O :    0.119033
   1 O :    0.131076
   2 O :    0.083541
   3 O :    0.100825
   4 N :    0.297527
   5 N :    0.295539
   6 N :    0.330871
   7 N :    0.357094
   8 C :   -0.090911
   9 C :   -0.301146
  10 C :   -0.134207
  11 C :    0.155346
  12 C :    0.179355
  13 C :    0.209570
  14 C :   -0.416222
  15 C :   -0.381043
  16 C :   -0.493771
  17 C :   -0.483048
  18 H :    0.052319
  19 H :    0.020457
  20 H :    0.002498
  21 H :   -0.006059
  22 H :    0.006623
  23 H :    0.009858
  24 H :   -0.000306
  25 H :    0.008146
  26 H :   -0.020159
  27 H :   -0.029090
  28 H :   -0.004836
  29 H :    0.001119

  Mayer bond orders larger than 0.100000
B(  0-O , 14-C ) :   1.3627 B(  1-O , 14-C ) :   0.1507 B(  1-O , 15-C ) :   1.4414
B(  2-O , 16-C ) :   1.5455 B(  3-O , 17-C ) :   1.6220 B(  4-N ,  8-C ) :   0.1003
B(  4-N ,  9-C ) :   0.1561 B(  4-N , 10-C ) :   0.7997 B(  4-N , 11-C ) :  -0.1952
B(  4-N , 16-C ) :   1.0466 B(  4-N , 26-H ) :   1.1231 B(  5-N ,  9-C ) :   0.2541
B(  5-N , 15-C ) :   0.2299 B(  5-N , 17-C ) :   1.2365 B(  5-N , 27-H ) :   1.0142
B(  6-N , 14-C ) :   0.9453 B(  6-N , 16-C ) :   0.9011 B(  6-N , 28-H ) :   1.1182
B(  7-N ,  9-C ) :   0.1330 B(  7-N , 15-C ) :   0.9664 B(  7-N , 17-C ) :   0.9777
B(  7-N , 29-H ) :   1.0557 B(  8-C , 10-C ) :   0.2187 B(  8-C , 11-C ) :   1.0254
B(  8-C , 14-C ) :   0.3552 B(  8-C , 18-H ) :  -0.1204 B(  8-C , 21-H ) :  -0.1354
B(  9-C , 10-C ) :   0.1131 B(  9-C , 11-C ) :  -0.3061 B(  9-C , 13-C ) :   0.4495
B(  9-C , 17-C ) :  -0.1109 B(  9-C , 25-H ) :  -0.1220 B( 10-C , 11-C ) :   0.3492
B( 10-C , 12-C ) :  -0.1803 B( 10-C , 14-C ) :  -0.1239 B( 10-C , 15-C ) :  -0.1422
B( 10-C , 18-H ) :   1.0939 B( 11-C , 15-C ) :   0.5579 B( 11-C , 19-H ) :   1.1095
B( 12-C , 20-H ) :   0.9929 B( 12-C , 21-H ) :   1.0403 B( 12-C , 22-H ) :   0.8502
B( 13-C , 23-H ) :   0.9237 B( 13-C , 24-H ) :   0.8584 B( 13-C , 25-H ) :   1.0263
B( 14-C , 15-C ) :   0.1009

Dispersion correction           -0.058837799
FINAL SINGLE POINT ENERGY      -908.849362514949

DIPOLE MOMENT
-------------

Method             : SCF
Type of density    : Electron Density
Multiplicity       :   1
Irrep              :   0
Energy             :  -908.7905247161346551 Eh
Relativity type    :
Basis              : AO
                                X                 Y                 Z
Electronic contribution:     -3.159072412      -9.669713831      -7.467251853
Nuclear contribution   :      3.029292949      10.876188964       9.570777666
                        -----------------------------------------
Total Dipole Moment    :     -0.129779462       1.206475133       2.103525813
                        -----------------------------------------
Magnitude (a.u.)       :      2.428424551
Magnitude (Debye)      :      6.172564667

Rotational constants in cm-1:             0.021420             0.015177             0.012536
Rotational constants in MHz :           642.155655           454.981448           375.824234

                             ****ORCA TERMINATED NORMALLY****
TOTAL RUN TIME: 0 days 2 hours 13 minutes 40 seconds 467 msec
