                         Program Version 6.0.0  -   RELEASE  -
|  1> ! opt def2-TZVPPD wB97M-D3BJ
|  2> %pal nprocs 8 end%pal nprocs 32 end
|  3> %geom Constraints
|  4> {B 9 8 2.7 C}
|  5> {A 8 9 11 70.57142857142857 C}
|  6> end
|  7> MaxIter 300
|  8> end
|  9> *xyz 0 1
| 10> O   2.98579685529314 0.88758230159078 -0.86184571092411
| 11> O   -0.03983205397054 0.68929041702508 -2.10362336723772
| 12> O   0.93431434349854 -3.13274393337945 -0.68767288184107
| 13> O   -3.75829998830163 -0.84727300865116 -0.0472717177755
| 14> N   0.21184538946282 -1.54604804365365 0.7617588924445
| 15> N   -2.13631993928911 0.03188773433438 1.27350571071531
| 16> N   2.02598672506387 -1.14318467211666 -0.64531219127023
| 17> N   -1.91814233924584 0.03137116037665 -1.04498946748291
| 18> C   1.18097737274226 0.71693507080484 0.70173889017321
| 19> C   -0.20686880480777 1.27024627933494 0.21345042231937
| 20> C   0.41441080275909 -0.34173258966541 1.52336266615173
| 21> C   -0.82922175114212 0.58960593673968 1.44434972027296
| 22> C   1.92822011286806 1.69488653817281 1.5963734975385
| 23> C   -0.37809776891576 2.77134929626422 0.04819649358288
| 24> C   2.1403947470937 0.1972384729179 -0.35038567829864
| 25> C   -0.67361678962426 0.6214190571346 -1.0793014500539
| 26> C   1.04142578622994 -2.02697492875068 -0.21027082435993
| 27> C   -2.68467002550422 -0.30396816036989 0.07167054343891
| 28> H   0.80817443950001 -0.54572267081061 2.51895215321335
| 29> H   -0.83785272399001 1.27240685039143 2.28901317073582
| 30> H   2.31167340578204 2.52284411740894 1.00913016264629
| 31> H   1.28982602448342 2.08257620823614 2.38710022492991
| 32> H   2.77390820759972 1.19140411795486 2.06045858523949
| 33> H   -1.41857211141493 3.00964947214868 -0.16882755561625
| 34> H   -0.09065531563179 3.29799318042223 0.95389844358819
| 35> H   0.23426221611057 3.12492645074476 -0.77764887675592
| 36> H   -0.46772570547622 -2.21560145172536 1.0787081584806
| 37> H   -2.71769301149571 -0.17090724573546 2.06627440900372
| 38> H   2.60065167263658 -1.49057255715425 -1.3966820077142
| 39> H   -2.27169977231386 -0.32388339999036 -1.91951041514436
| 40> *
| 41>
| 42>                          ****END OF INPUT****
 Total Charge           Charge          ....    0
 Multiplicity           Mult            ....    1
 Number of Electrons    NEL             ....  132
Dispersion correction           -0.053930717
FINAL SINGLE POINT ENERGY      -908.743577550278
Dispersion correction             ... done (  0.0 sec)
Dispersion correction           -0.055020587
FINAL SINGLE POINT ENERGY      -908.767330512161
Dispersion correction             ... done (  0.0 sec)
Dispersion correction           -0.056072580
FINAL SINGLE POINT ENERGY      -908.782579293519
Dispersion correction             ... done (  0.0 sec)
FINAL SINGLE POINT ENERGY      -908.793378707591
FINAL SINGLE POINT ENERGY      -908.797027121042
FINAL SINGLE POINT ENERGY      -908.799832490698
FINAL SINGLE POINT ENERGY      -908.801734323433
FINAL SINGLE POINT ENERGY      -908.802991751105
FINAL SINGLE POINT ENERGY      -908.804391121096
FINAL SINGLE POINT ENERGY      -908.805921183087
FINAL SINGLE POINT ENERGY      -908.807666408944
FINAL SINGLE POINT ENERGY      -908.807725616855
FINAL SINGLE POINT ENERGY      -908.807810775244
FINAL SINGLE POINT ENERGY      -908.807838938652
FINAL SINGLE POINT ENERGY      -908.807860490823
FINAL SINGLE POINT ENERGY      -908.807867957979
FINAL SINGLE POINT ENERGY      -908.807872779943
Dispersion correction             ... done (  0.0 sec)
Dispersion correction           -0.059573538
FINAL SINGLE POINT ENERGY      -908.807876520509
Dispersion correction             ... done (  0.0 sec)
Dispersion correction           -0.059584914
FINAL SINGLE POINT ENERGY      -908.807879104740
Dispersion correction             ... done (  0.0 sec)
                    ***********************HURRAY********************

CARTESIAN COORDINATES (ANGSTROEM)
---------------------------------
  O      3.123375    0.513303   -0.886249
  O     -0.485861    1.392490   -2.308735
  O      0.416200   -3.068329   -0.502343
  O     -3.112002   -1.640432   -0.292214
  N      0.304269   -1.498298    1.130798
  N     -2.134223   -0.068361    1.032339
  N      1.571844   -1.136807   -0.791032
  N     -1.491725   -0.310181   -1.187932
  C      1.639659    0.531580    0.942331
  C     -0.681914    1.580238    0.047560
  C      0.376716   -0.125212    1.573017
  C     -0.954678    0.716899    1.271775
  C      2.364607    1.574381    1.688670
  C     -0.632419    3.050273    0.130561
  C      2.187560    0.004368   -0.300769
  C     -0.850323    0.924727   -1.250958
  C      0.727015   -1.977764   -0.082374
  C     -2.309053   -0.751909   -0.146689
  H      0.513776   -0.149570    2.657311
  H     -1.141775    1.363403    2.126162
  H      3.180031    1.970320    1.092389
  H      1.700827    2.391928    1.984633
  H      2.767776    1.157344    2.617960
  H     -1.610482    3.442249    0.432719
  H      0.080839    3.378961    0.890791
  H     -0.366619    3.477305   -0.831302
  H     -0.338149   -2.122190    1.587439
  H     -2.695702   -0.406760    1.793505
  H      1.938395   -1.513956   -1.649436
  H     -1.635364   -0.785001   -2.065329

 Multiplicity           Mult            ....    1
 Number of Electrons    NEL             ....  132
 Basis Dimension        Dim             ....  882

ORBITAL ENERGIES
----------------

  NO   OCC          E(Eh)            E(eV)
   0   2.0000     -19.331859      -526.0466
   1   2.0000     -19.324385      -525.8432
   2   2.0000     -19.323864      -525.8291
   3   2.0000     -19.314649      -525.5783
   4   2.0000     -14.564385      -396.3171
   5   2.0000     -14.562634      -396.2694
   6   2.0000     -14.555479      -396.0747
   7   2.0000     -14.555280      -396.0693
   8   2.0000     -10.507371      -285.9201
   9   2.0000     -10.500043      -285.7207
  10   2.0000     -10.483846      -285.2800
  11   2.0000     -10.478449      -285.1331
  12   2.0000     -10.442052      -284.1427
  13   2.0000     -10.440603      -284.1033
  14   2.0000     -10.431915      -283.8668
  15   2.0000     -10.430152      -283.8189
  16   2.0000     -10.377498      -282.3861
  17   2.0000     -10.375158      -282.3224
  18   2.0000      -1.222541       -33.2670
  19   2.0000      -1.213079       -33.0096
  20   2.0000      -1.196893       -32.5691
  21   2.0000      -1.189092       -32.3568
  22   2.0000      -1.117112       -30.3982
  23   2.0000      -1.093911       -29.7668
  24   2.0000      -1.064805       -28.9748
  25   2.0000      -1.053240       -28.6601
  26   2.0000      -0.974123       -26.5072
  27   2.0000      -0.943963       -25.6865
  28   2.0000      -0.885902       -24.1066
  29   2.0000      -0.834824       -22.7167
  30   2.0000      -0.825994       -22.4764
  31   2.0000      -0.799624       -21.7589
  32   2.0000      -0.785697       -21.3799
  33   2.0000      -0.775878       -21.1127
  34   2.0000      -0.697570       -18.9818
  35   2.0000      -0.690706       -18.7951
  36   2.0000      -0.684663       -18.6306
  37   2.0000      -0.658902       -17.9296
  38   2.0000      -0.648876       -17.6568
  39   2.0000      -0.643278       -17.5045
  40   2.0000      -0.615980       -16.7617
  41   2.0000      -0.600254       -16.3337
  42   2.0000      -0.584695       -15.9104
  43   2.0000      -0.578165       -15.7327
  44   2.0000      -0.576401       -15.6847
  45   2.0000      -0.570809       -15.5325
  46   2.0000      -0.564858       -15.3706
  47   2.0000      -0.558467       -15.1967
  48   2.0000      -0.555053       -15.1038
  49   2.0000      -0.547399       -14.8955
  50   2.0000      -0.544573       -14.8186
  51   2.0000      -0.538781       -14.6610
  52   2.0000      -0.529692       -14.4137
  53   2.0000      -0.520511       -14.1638
  54   2.0000      -0.507933       -13.8216
  55   2.0000      -0.505421       -13.7532
  56   2.0000      -0.484793       -13.1919
  57   2.0000      -0.420394       -11.4395
  58   2.0000      -0.413330       -11.2473
  59   2.0000      -0.404756       -11.0140
  60   2.0000      -0.399494       -10.8708
  61   2.0000      -0.390650       -10.6301
  62   2.0000      -0.388916       -10.5829
  63   2.0000      -0.383764       -10.4427
  64   2.0000      -0.376148       -10.2355
  65   2.0000      -0.301203        -8.1961
  66   0.0000      -0.090610        -2.4656
  67   0.0000       0.006259         0.1703
  68   0.0000       0.028482         0.7750
  69   0.0000       0.030594         0.8325
  70   0.0000       0.039135         1.0649

MULLIKEN ATOMIC CHARGES
-----------------------
   0 O :   -0.681186
   1 O :   -0.664201
   2 O :   -0.656330
   3 O :   -0.633571
   4 N :   -0.288801
   5 N :   -0.303976
   6 N :    0.068881
   7 N :    0.051517
   8 C :    0.319392
   9 C :    0.457881
  10 C :   -0.076044
  11 C :    0.651239
  12 C :   -1.326172
  13 C :   -1.356972
  14 C :    0.455960
  15 C :    0.045674
  16 C :    0.435978
  17 C :    0.346757
  18 H :    0.653923
  19 H :    0.471740
  20 H :    0.302265
  21 H :    0.288060
  22 H :    0.341974
  23 H :    0.343361
  24 H :    0.226553
  25 H :    0.341916
  26 H :    0.054983
  27 H :    0.075900
  28 H :    0.018765
  29 H :    0.034536
Sum of atomic charges:   -0.0000000

LOEWDIN ATOMIC CHARGES
----------------------
   0 O :    0.095362
   1 O :    0.106322
   2 O :    0.093178
   3 O :    0.103922
   4 N :    0.273543
   5 N :    0.276652
   6 N :    0.324820
   7 N :    0.330061
   8 C :    0.007799
   9 C :   -0.007961
  10 C :   -0.091611
  11 C :   -0.108036
  12 C :    0.183083
  13 C :    0.190177
  14 C :   -0.414800
  15 C :   -0.409066
  16 C :   -0.496186
  17 C :   -0.484189
  18 H :    0.038063
  19 H :    0.047924
  20 H :   -0.001077
  21 H :   -0.010167
  22 H :    0.013980
  23 H :    0.017499
  24 H :   -0.011472
  25 H :    0.003393
  26 H :   -0.028414
  27 H :   -0.028897
  28 H :   -0.008614
  29 H :   -0.005288

  Mayer bond orders larger than 0.100000
B(  0-O , 14-C ) :   1.3058 B(  1-O , 15-C ) :   1.4377 B(  2-O , 16-C ) :   1.5236
B(  3-O , 17-C ) :   1.5473 B(  4-N ,  5-N ) :   0.1017 B(  4-N ,  8-C ) :   0.2843
B(  4-N , 10-C ) :   0.3530 B(  4-N , 16-C ) :   1.0416 B(  4-N , 26-H ) :   1.1001
B(  5-N ,  9-C ) :   0.3405 B(  5-N , 17-C ) :   1.1619 B(  5-N , 27-H ) :   1.0564
B(  6-N ,  8-C ) :  -0.1233 B(  6-N , 10-C ) :   0.1060 B(  6-N , 14-C ) :   1.0797
B(  6-N , 16-C ) :   0.9455 B(  6-N , 28-H ) :   1.1099 B(  7-N , 11-C ) :   0.1359
B(  7-N , 15-C ) :   0.9956 B(  7-N , 17-C ) :   0.9558 B(  7-N , 29-H ) :   1.0846
B(  8-C ,  9-C ) :   0.6732 B(  8-C , 11-C ) :  -0.1358 B(  8-C , 12-C ) :   0.6084
B(  8-C , 14-C ) :   0.7432 B(  8-C , 15-C ) :   0.1600 B(  8-C , 16-C ) :   0.1110
B(  8-C , 18-H ) :  -0.1307 B(  8-C , 20-H ) :  -0.1195 B(  9-C , 10-C ) :   0.2369
B(  9-C , 11-C ) :   0.1004 B(  9-C , 13-C ) :   0.4875 B(  9-C , 14-C ) :   0.1628
B(  9-C , 15-C ) :   0.7101 B(  9-C , 25-H ) :  -0.1002 B( 10-C , 11-C ) :   0.6914
B( 10-C , 16-C ) :  -0.1299 B( 10-C , 18-H ) :   0.6121 B( 11-C , 13-C ) :  -0.1494
B( 11-C , 15-C ) :  -0.2047 B( 11-C , 17-C ) :  -0.2126 B( 11-C , 19-H ) :   0.8996
B( 12-C , 20-H ) :   1.0523 B( 12-C , 21-H ) :   0.8698 B( 12-C , 22-H ) :   0.8724
B( 13-C , 23-H ) :   0.8751 B( 13-C , 24-H ) :   0.9925 B( 13-C , 25-H ) :   0.9624
B( 15-C , 17-C ) :  -0.1071

Dispersion correction           -0.059586339
FINAL SINGLE POINT ENERGY      -908.807879627717

DIPOLE MOMENT
-------------

Method             : SCF
Type of density    : Electron Density
Multiplicity       :   1
Irrep              :   0
Energy             :  -908.7482932888428877 Eh
Relativity type    :
Basis              : AO
                                X                 Y                 Z
Electronic contribution:     -2.603642389     -10.202726003      -7.370669601
Nuclear contribution   :      2.262196074      11.767471937      10.101380387
                        -----------------------------------------
Total Dipole Moment    :     -0.341446315       1.564745933       2.730710787
                        -----------------------------------------
Magnitude (a.u.)       :      3.165722164
Magnitude (Debye)      :      8.046626266

Rotational constants in cm-1:             0.019318             0.015536             0.012652
Rotational constants in MHz :           579.140409           465.766685           379.307869

                             ****ORCA TERMINATED NORMALLY****
TOTAL RUN TIME: 0 days 0 hours 54 minutes 56 seconds 624 msec
