                         Program Version 6.0.0  -   RELEASE  -
|  1> ! Engrad def2-TZVPPD wB97M-D3BJ
|  2> %pal nprocs 8 end%pal nprocs 64 end
|  3> %tddft Nroots 2 Iroot 2
|  4> sf true
|  5> end
|  6> *xyz 0 3
|  7> O   3.56098964 0.05045841 -0.33457742
|  8> O   -0.77846358 1.55239816 -2.32097233
|  9> O   0.41659523 -2.91301236 -1.09656166
| 10> O   -3.39344756 -1.42084416 -0.05426198
| 11> N   0.18233696 -1.60657148 0.68540836
| 12> N   -2.22276386 0.14096518 1.09005343
| 13> N   1.70354837 -1.05159224 -0.88525288
| 14> N   -1.91040849 -0.04735577 -1.19467411
| 15> C   1.66512382 0.22924159 1.1944295
| 16> C   -0.68917418 1.62351167 0.0075984
| 17> C   0.31583611 -0.37509187 1.37367383
| 18> C   -0.85016913 0.74533076 1.20409003
| 19> C   2.31979762 1.33353773 2.00193839
| 20> C   -0.00694889 2.89542879 0.13617679
| 21> C   2.4000162 -0.22186937 -0.04226601
| 22> C   -1.05818046 1.10752231 -1.24453152
| 23> C   0.71449767 -1.95012954 -0.49731596
| 24> C   -2.58692451 -0.5373886 -0.05380782
| 25> H   0.14570748 -0.58614191 2.41373176
| 26> H   -0.83253235 1.28806322 2.16568868
| 27> H   3.15784065 0.92273178 2.5774517
| 28> H   2.6565043 2.14853067 1.32706556
| 29> H   1.60553352 1.74684049 2.77550304
| 30> H   -0.62715485 3.80017576 0.24517291
| 31> H   0.75881252 2.848084 0.86203537
| 32> H   0.49925963 3.05866751 -0.86832846
| 33> H   -0.53683653 -2.23105607 0.92483685
| 34> H   -2.58202162 -0.35056799 1.9143137
| 35> H   2.31436729 -1.46597468 -1.60095881
| 36> H   -2.26878846 -0.38509227 -2.06601699
| 37> *
| 38>
| 39>                          ****END OF INPUT****

CARTESIAN COORDINATES (ANGSTROEM)
---------------------------------
  O      3.560990    0.050458   -0.334577
  O     -0.778464    1.552398   -2.320972
  O      0.416595   -2.913012   -1.096562
  O     -3.393448   -1.420844   -0.054262
  N      0.182337   -1.606571    0.685408
  N     -2.222764    0.140965    1.090053
  N      1.703548   -1.051592   -0.885253
  N     -1.910408   -0.047356   -1.194674
  C      1.665124    0.229242    1.194429
  C     -0.689174    1.623512    0.007598
  C      0.315836   -0.375092    1.373674
  C     -0.850169    0.745331    1.204090
  C      2.319798    1.333538    2.001938
  C     -0.006949    2.895429    0.136177
  C      2.400016   -0.221869   -0.042266
  C     -1.058180    1.107522   -1.244532
  C      0.714498   -1.950130   -0.497316
  C     -2.586925   -0.537389   -0.053808
  H      0.145707   -0.586142    2.413732
  H     -0.832532    1.288063    2.165689
  H      3.157841    0.922732    2.577452
  H      2.656504    2.148531    1.327066
  H      1.605534    1.746840    2.775503
  H     -0.627155    3.800176    0.245173
  H      0.758813    2.848084    0.862035
  H      0.499260    3.058668   -0.868328
  H     -0.536837   -2.231056    0.924837
  H     -2.582022   -0.350568    1.914314
  H      2.314367   -1.465975   -1.600959
  H     -2.268788   -0.385092   -2.066017

 Total Charge           Charge          ....    0
 Multiplicity           Mult            ....    3
 Number of Electrons    NEL             ....  132
 Basis Dimension        Dim             ....  882

ORBITAL ENERGIES
----------------
                 SPIN UP ORBITALS
  NO   OCC          E(Eh)            E(eV)
   0   1.0000     -19.336140      -526.1631
   1   1.0000     -19.332379      -526.0608
   2   1.0000     -19.324791      -525.8543
   3   1.0000     -19.321001      -525.7512
   4   1.0000     -14.560458      -396.2102
   5   1.0000     -14.556545      -396.1037
   6   1.0000     -14.556374      -396.0991
   7   1.0000     -14.553039      -396.0083
   8   1.0000     -10.502240      -285.7805
   9   1.0000     -10.496225      -285.6168
  10   1.0000     -10.483094      -285.2595
  11   1.0000     -10.476614      -285.0832
  12   1.0000     -10.450692      -284.3778
  13   1.0000     -10.449771      -284.3527
  14   1.0000     -10.428585      -283.7762
  15   1.0000     -10.413805      -283.3740
  16   1.0000     -10.392696      -282.7996
  17   1.0000     -10.371353      -282.2189
  18   1.0000      -1.236241       -33.6398
  19   1.0000      -1.222561       -33.2676
  20   1.0000      -1.207935       -32.8696
  21   1.0000      -1.196463       -32.5574
  22   1.0000      -1.124799       -30.6073
  23   1.0000      -1.098631       -29.8953
  24   1.0000      -1.062687       -28.9172
  25   1.0000      -1.043306       -28.3898
  26   1.0000      -0.987517       -26.8717
  27   1.0000      -0.957643       -26.0588
  28   1.0000      -0.892534       -24.2871
  29   1.0000      -0.844191       -22.9716
  30   1.0000      -0.830396       -22.5962
  31   1.0000      -0.800907       -21.7938
  32   1.0000      -0.786202       -21.3936
  33   1.0000      -0.767079       -20.8733
  34   1.0000      -0.695802       -18.9337
  35   1.0000      -0.693358       -18.8672
  36   1.0000      -0.687661       -18.7122
  37   1.0000      -0.669767       -18.2253
  38   1.0000      -0.656228       -17.8569
  39   1.0000      -0.637068       -17.3355
  40   1.0000      -0.605542       -16.4776
  41   1.0000      -0.599247       -16.3063
  42   1.0000      -0.598760       -16.2931
  43   1.0000      -0.588509       -16.0142
  44   1.0000      -0.586484       -15.9590
  45   1.0000      -0.573946       -15.6179
  46   1.0000      -0.571220       -15.5437
  47   1.0000      -0.563050       -15.3214
  48   1.0000      -0.559102       -15.2139
  49   1.0000      -0.557749       -15.1771
  50   1.0000      -0.547765       -14.9054
  51   1.0000      -0.539912       -14.6917
  52   1.0000      -0.535202       -14.5636
  53   1.0000      -0.530935       -14.4475
  54   1.0000      -0.521961       -14.2033
  55   1.0000      -0.507842       -13.8191
  56   1.0000      -0.484837       -13.1931
  57   1.0000      -0.427794       -11.6409
  58   1.0000      -0.425387       -11.5754
  59   1.0000      -0.416498       -11.3335
  60   1.0000      -0.404388       -11.0040
  61   1.0000      -0.402552       -10.9540
  62   1.0000      -0.396918       -10.8007
  63   1.0000      -0.390337       -10.6216
  64   1.0000      -0.385203       -10.4819
  65   1.0000      -0.341631        -9.2962
  66   1.0000      -0.332360        -9.0440
  67   0.0000       0.005472         0.1489
  68   0.0000       0.027738         0.7548
  69   0.0000       0.033676         0.9164
  70   0.0000       0.037188         1.0119
  71   0.0000       0.056175         1.5286

                 SPIN DOWN ORBITALS
  NO   OCC          E(Eh)            E(eV)
   0   1.0000     -19.331329      -526.0322
   1   1.0000     -19.328887      -525.9658
   2   1.0000     -19.324572      -525.8483
   3   1.0000     -19.320920      -525.7489
   4   1.0000     -14.559783      -396.1918
   5   1.0000     -14.556245      -396.0956
   6   1.0000     -14.556023      -396.0895
   7   1.0000     -14.552577      -395.9957
   8   1.0000     -10.502282      -285.7816
   9   1.0000     -10.496261      -285.6178
  10   1.0000     -10.484087      -285.2865
  11   1.0000     -10.477587      -285.1096
  12   1.0000     -10.449978      -284.3584
  13   1.0000     -10.449546      -284.3466
  14   1.0000     -10.416848      -283.4568
  15   1.0000     -10.402790      -283.0743
  16   1.0000     -10.393281      -282.8155
  17   1.0000     -10.371877      -282.2331
  18   1.0000      -1.235715       -33.6255
  19   1.0000      -1.220040       -33.1990
  20   1.0000      -1.202723       -32.7278
  21   1.0000      -1.191930       -32.4341
  22   1.0000      -1.122616       -30.5479
  23   1.0000      -1.095914       -29.8213
  24   1.0000      -1.061037       -28.8723
  25   1.0000      -1.041573       -28.3427
  26   1.0000      -0.973681       -26.4952
  27   1.0000      -0.940404       -25.5897
  28   1.0000      -0.887011       -24.1368
  29   1.0000      -0.839307       -22.8387
  30   1.0000      -0.821217       -22.3464
  31   1.0000      -0.795249       -21.6398
  32   1.0000      -0.784831       -21.3563
  33   1.0000      -0.765511       -20.8306
  34   1.0000      -0.691589       -18.8191
  35   1.0000      -0.686829       -18.6896
  36   1.0000      -0.682082       -18.5604
  37   1.0000      -0.662513       -18.0279
  38   1.0000      -0.643315       -17.5055
  39   1.0000      -0.631988       -17.1973
  40   1.0000      -0.602720       -16.4009
  41   1.0000      -0.594997       -16.1907
  42   1.0000      -0.591481       -16.0950
  43   1.0000      -0.583039       -15.8653
  44   1.0000      -0.576786       -15.6951
  45   1.0000      -0.569054       -15.4847
  46   1.0000      -0.566552       -15.4167
  47   1.0000      -0.556948       -15.1553
  48   1.0000      -0.553552       -15.0629
  49   1.0000      -0.543014       -14.7761
  50   1.0000      -0.542056       -14.7501
  51   1.0000      -0.531812       -14.4713
  52   1.0000      -0.525521       -14.3002
  53   1.0000      -0.523078       -14.2337
  54   1.0000      -0.513362       -13.9693
  55   1.0000      -0.503863       -13.7108
  56   1.0000      -0.479242       -13.0408
  57   1.0000      -0.424036       -11.5386
  58   1.0000      -0.421783       -11.4773
  59   1.0000      -0.410716       -11.1761
  60   1.0000      -0.393122       -10.6974
  61   1.0000      -0.391553       -10.6547
  62   1.0000      -0.389948       -10.6110
  63   1.0000      -0.385360       -10.4862
  64   1.0000      -0.373525       -10.1641
  65   0.0000      -0.060295        -1.6407
  66   0.0000      -0.056512        -1.5378
  67   0.0000       0.005037         0.1371
  68   0.0000       0.027573         0.7503
  69   0.0000       0.033332         0.9070

----------------------------------------------------------------------------------------------------
          SPIN FLIP ABSORPTION SPECTRUM VIA TRANSITION ELECTRIC DIPOLE MOMENTS
----------------------------------------------------------------------------------------------------
     Transition      Energy     Energy  Wavelength fosc(D2)      D2        DX        DY        DZ
                      (eV)      (cm-1)    (nm)                 (au**2)    (au)      (au)      (au)
----------------------------------------------------------------------------------------------------
  1-3A  ->  2-1A    0.030456     245.6  40709.6   0.000001466   0.00196   0.04387  -0.00427   0.00469

Dispersion correction             ... done (  0.0 sec)

MULLIKEN ATOMIC CHARGES AND SPIN DENSITIES
------------------------------------------
   0 O :   -0.692164   -0.112049
   1 O :   -0.639474    0.144614
   2 O :   -0.616442   -0.000995
   3 O :   -0.613465    0.001164
   4 N :   -0.221508   -0.007683
   5 N :   -0.367124    0.015108
   6 N :   -0.006551   -0.010309
   7 N :    0.078395    0.018241
   8 C :    0.939462    0.382671
   9 C :   -0.244914    0.331698
  10 C :   -0.116978   -0.473381
  11 C :    0.646099    0.008900
  12 C :   -1.382408   -0.035457
  13 C :   -1.099775   -0.004553
  14 C :    0.102026   -0.427147
  15 C :    0.406973    0.102703
  16 C :    0.433614    0.029077
  17 C :    0.324425   -0.003077
  18 H :    0.547804   -0.031074
  19 H :    0.453857    0.014954
  20 H :    0.382809   -0.010141
  21 H :    0.316713    0.005197
  22 H :    0.298563   -0.003163
  23 H :    0.298131    0.026433
  24 H :    0.235361    0.020259
  25 H :    0.276986    0.010251
  26 H :   -0.016039    0.001087
  27 H :    0.125656    0.000366
  28 H :    0.130694    0.006492
  29 H :    0.019276   -0.000183
Sum of atomic charges       :    0.0000000

LOEWDIN ATOMIC CHARGES AND SPIN DENSITIES
-----------------------------------------
   0 O :    0.069218   -0.096665
   1 O :    0.121399    0.125979
   2 O :    0.143975   -0.001417
   3 O :    0.103470    0.001085
   4 N :    0.295696    0.002158
   5 N :    0.264266    0.005943
   6 N :    0.312230   -0.014512
   7 N :    0.337171    0.015008
   8 C :    0.021868   -0.410601
   9 C :   -0.059209    0.383661
  10 C :   -0.111690   -0.034557
  11 C :   -0.058472    0.008062
  12 C :    0.162517   -0.056807
  13 C :    0.198098    0.063911
  14 C :   -0.398472   -0.065200
  15 C :   -0.411893    0.073612
  16 C :   -0.533668    0.000150
  17 C :   -0.509514   -0.000034
  18 H :    0.038548   -0.008319
  19 H :    0.057618    0.000511
  20 H :    0.008922   -0.017975
  21 H :    0.011378   -0.010293
  22 H :    0.019719    0.000022
  23 H :    0.027385    0.022933
  24 H :   -0.064216    0.004797
  25 H :    0.044169    0.007663
  26 H :   -0.048159    0.000215
  27 H :   -0.023061    0.000400
  28 H :    0.009329   -0.001221
  29 H :   -0.028624    0.001490

  Mayer bond orders larger than 0.100000
B(  0-O , 14-C ) :   1.3655 B(  1-O , 15-C ) :   1.3348 B(  2-O , 16-C ) :   1.5559
B(  3-O , 17-C ) :   1.5821 B(  4-N ,  8-C ) :   0.1841 B(  4-N , 10-C ) :   0.3391
B(  4-N , 16-C ) :   1.0249 B(  4-N , 26-H ) :   1.1568 B(  5-N ,  9-C ) :   0.3699
B(  5-N , 10-C ) :   0.1257 B(  5-N , 11-C ) :  -0.1012 B(  5-N , 17-C ) :   1.1031
B(  5-N , 27-H ) :   0.9817 B(  6-N , 10-C ) :   0.1094 B(  6-N , 14-C ) :   1.0618
B(  6-N , 16-C ) :   0.9591 B(  6-N , 28-H ) :   0.9791 B(  7-N , 11-C ) :   0.1288
B(  7-N , 15-C ) :   0.9372 B(  7-N , 17-C ) :   0.9900 B(  7-N , 29-H ) :   1.0971
B(  8-C ,  9-C ) :   0.1168 B(  8-C , 10-C ) :   0.3224 B(  8-C , 11-C ) :   0.1618
B(  8-C , 12-C ) :   0.2623 B(  8-C , 14-C ) :   0.4881 B(  8-C , 16-C ) :   0.1395
B(  8-C , 18-H ) :  -0.1057 B(  8-C , 22-H ) :  -0.1617 B(  9-C , 10-C ) :   0.3368
B(  9-C , 11-C ) :  -0.2350 B(  9-C , 13-C ) :   0.6722 B(  9-C , 15-C ) :   0.9296
B(  9-C , 19-H ) :  -0.1617 B(  9-C , 25-H ) :  -0.1281 B( 10-C , 11-C ) :   0.3207
B( 10-C , 14-C ) :   0.3192 B( 10-C , 16-C ) :  -0.2086 B( 10-C , 18-H ) :   0.7285
B( 11-C , 13-C ) :  -0.1142 B( 11-C , 17-C ) :  -0.1504 B( 11-C , 19-H ) :   1.0120
B( 12-C , 20-H ) :   0.8592 B( 12-C , 21-H ) :   0.9191 B( 12-C , 22-H ) :   1.0828
B( 13-C , 23-H ) :   0.9423 B( 13-C , 24-H ) :   0.8706 B( 13-C , 25-H ) :   1.0483
B( 14-C , 16-C ) :  -0.1422

Dispersion correction           -0.058529650
FINAL SINGLE POINT ENERGY      -908.776070391772

DIPOLE MOMENT
-------------

Method             : TDA/CIS
Type of density    : Electron Density
Level              : Relaxed density
State              :   2
Multiplicity       :   3
Irrep              :   0
Energy             :     0.0000000000000000 Eh
Relativity type    :
Basis              : AO
                                X                 Y                 Z
Electronic contribution:     -4.241517426      -9.146808549      -7.524029860
Nuclear contribution   :      4.169807328      10.543545068      10.195701261
                        -----------------------------------------
Total Dipole Moment    :     -0.071710098       1.396736519       2.671671402
                        -----------------------------------------
Magnitude (a.u.)       :      3.015599993
Magnitude (Debye)      :      7.665046032

Rotational constants in cm-1:             0.019805             0.013999             0.011719
Rotational constants in MHz :           593.726111           419.675509           351.340225

                             ****ORCA TERMINATED NORMALLY****
TOTAL RUN TIME: 0 days 0 hours 4 minutes 24 seconds 505 msec
