                         Program Version 6.0.0  -   RELEASE  -
|  1> ! Engrad def2-TZVPPD wB97M-D3BJ
|  2> %pal nprocs 8 end%pal nprocs 64 end
|  3> %tddft Nroots 2 Iroot 2
|  4> sf true
|  5> end
|  6> *xyz 0 3
|  7> O   3.34431543 0.88716422 -0.64990465
|  8> O   -1.59011673 0.99421521 -2.48105246
|  9> O   0.3247476 -2.58480468 -1.07008956
| 10> O   -3.28938155 -1.48221072 0.93111503
| 11> N   0.3542391 -1.34499258 0.68163911
| 12> N   -1.84222326 0.19472739 1.468583
| 13> N   1.84840627 -0.77227951 -1.04037951
| 14> N   -2.47789564 -0.23142401 -0.79099661
| 15> C   1.97143503 0.35534331 1.0771014
| 16> C   -0.70791774 1.35247534 -0.30381675
| 17> C   0.63077578 -0.15453987 1.41642253
| 18> C   -0.6424591 0.89725692 1.05126576
| 19> C   2.73978708 1.05829215 2.09723581
| 20> C   0.31118059 2.30536974 -0.78158494
| 21> C   2.44924303 0.22123607 -0.28713407
| 22> C   -1.58165269 0.72959419 -1.30222593
| 23> C   0.81923844 -1.61465183 -0.54757235
| 24> C   -2.55896163 -0.54183936 0.59131104
| 25> H   0.3903606 -0.2372197 2.50141755
| 26> H   -0.56426783 1.83327802 1.63560359
| 27> H   3.73474308 1.30782554 1.76188816
| 28> H   2.28819085 2.0605632 2.42981403
| 29> H   2.70782635 0.542092 3.07398233
| 30> H   0.89254598 2.82993029 0.01272282
| 31> H   1.02632561 1.79013061 -1.4333326
| 32> H   -0.10749021 3.0317215 -1.32842209
| 33> H   -0.17181142 -1.98211423 1.12156528
| 34> H   -1.8764514 -0.28221341 2.38449359
| 35> H   2.13967447 -0.85140726 -1.97691019
| 36> H   -3.28884986 -0.58007137 -1.35679552
| 37> *
| 38>
| 39>                          ****END OF INPUT****

CARTESIAN COORDINATES (ANGSTROEM)
---------------------------------
  O      3.344315    0.887164   -0.649905
  O     -1.590117    0.994215   -2.481052
  O      0.324748   -2.584805   -1.070090
  O     -3.289382   -1.482211    0.931115
  N      0.354239   -1.344993    0.681639
  N     -1.842223    0.194727    1.468583
  N      1.848406   -0.772280   -1.040380
  N     -2.477896   -0.231424   -0.790997
  C      1.971435    0.355343    1.077101
  C     -0.707918    1.352475   -0.303817
  C      0.630776   -0.154540    1.416423
  C     -0.642459    0.897257    1.051266
  C      2.739787    1.058292    2.097236
  C      0.311181    2.305370   -0.781585
  C      2.449243    0.221236   -0.287134
  C     -1.581653    0.729594   -1.302226
  C      0.819238   -1.614652   -0.547572
  C     -2.558962   -0.541839    0.591311
  H      0.390361   -0.237220    2.501418
  H     -0.564268    1.833278    1.635604
  H      3.734743    1.307826    1.761888
  H      2.288191    2.060563    2.429814
  H      2.707826    0.542092    3.073982
  H      0.892546    2.829930    0.012723
  H      1.026326    1.790131   -1.433333
  H     -0.107490    3.031721   -1.328422
  H     -0.171811   -1.982114    1.121565
  H     -1.876451   -0.282213    2.384494
  H      2.139674   -0.851407   -1.976910
  H     -3.288850   -0.580071   -1.356796

 Total Charge           Charge          ....    0
 Multiplicity           Mult            ....    3
 Number of Electrons    NEL             ....  132
 Basis Dimension        Dim             ....  882

ORBITAL ENERGIES
----------------
                 SPIN UP ORBITALS
  NO   OCC          E(Eh)            E(eV)
   0   1.0000     -19.341657      -526.3132
   1   1.0000     -19.327937      -525.9399
   2   1.0000     -19.317898      -525.6667
   3   1.0000     -19.312951      -525.5321
   4   1.0000     -14.573215      -396.5573
   5   1.0000     -14.567180      -396.3931
   6   1.0000     -14.558408      -396.1544
   7   1.0000     -14.554442      -396.0465
   8   1.0000     -10.510107      -285.9946
   9   1.0000     -10.501986      -285.7736
  10   1.0000     -10.484783      -285.3054
  11   1.0000     -10.476941      -285.0921
  12   1.0000     -10.451035      -284.3871
  13   1.0000     -10.441305      -284.1224
  14   1.0000     -10.415251      -283.4134
  15   1.0000     -10.411400      -283.3086
  16   1.0000     -10.382103      -282.5114
  17   1.0000     -10.361050      -281.9385
  18   1.0000      -1.240848       -33.7652
  19   1.0000      -1.217222       -33.1223
  20   1.0000      -1.207988       -32.8710
  21   1.0000      -1.189164       -32.3588
  22   1.0000      -1.121386       -30.5145
  23   1.0000      -1.098379       -29.8884
  24   1.0000      -1.076236       -29.2859
  25   1.0000      -1.048002       -28.5176
  26   1.0000      -0.983247       -26.7555
  27   1.0000      -0.963265       -26.2118
  28   1.0000      -0.883276       -24.0352
  29   1.0000      -0.847132       -23.0516
  30   1.0000      -0.828919       -22.5560
  31   1.0000      -0.806164       -21.9368
  32   1.0000      -0.794610       -21.6224
  33   1.0000      -0.768289       -20.9062
  34   1.0000      -0.712559       -19.3897
  35   1.0000      -0.697252       -18.9732
  36   1.0000      -0.686562       -18.6823
  37   1.0000      -0.682262       -18.5653
  38   1.0000      -0.662537       -18.0285
  39   1.0000      -0.653984       -17.7958
  40   1.0000      -0.617635       -16.8067
  41   1.0000      -0.610559       -16.6142
  42   1.0000      -0.605397       -16.4737
  43   1.0000      -0.590643       -16.0722
  44   1.0000      -0.576910       -15.6985
  45   1.0000      -0.573912       -15.6169
  46   1.0000      -0.565628       -15.3915
  47   1.0000      -0.560001       -15.2384
  48   1.0000      -0.552533       -15.0352
  49   1.0000      -0.550771       -14.9872
  50   1.0000      -0.546285       -14.8652
  51   1.0000      -0.540688       -14.7129
  52   1.0000      -0.531152       -14.4534
  53   1.0000      -0.524015       -14.2592
  54   1.0000      -0.515365       -14.0238
  55   1.0000      -0.511129       -13.9085
  56   1.0000      -0.498322       -13.5600
  57   1.0000      -0.425062       -11.5665
  58   1.0000      -0.420706       -11.4480
  59   1.0000      -0.414140       -11.2693
  60   1.0000      -0.403272       -10.9736
  61   1.0000      -0.398707       -10.8494
  62   1.0000      -0.395371       -10.7586
  63   1.0000      -0.383936       -10.4474
  64   1.0000      -0.378857       -10.3092
  65   1.0000      -0.349720        -9.5164
  66   1.0000      -0.311492        -8.4761
  67   0.0000       0.007868         0.2141
  68   0.0000       0.029335         0.7982
  69   0.0000       0.032884         0.8948
  70   0.0000       0.036530         0.9940
  71   0.0000       0.054051         1.4708

                 SPIN DOWN ORBITALS
  NO   OCC          E(Eh)            E(eV)
   0   1.0000     -19.337964      -526.2128
   1   1.0000     -19.324364      -525.8427
   2   1.0000     -19.317604      -525.6587
   3   1.0000     -19.312872      -525.5300
   4   1.0000     -14.572727      -396.5441
   5   1.0000     -14.566972      -396.3875
   6   1.0000     -14.557626      -396.1331
   7   1.0000     -14.554106      -396.0374
   8   1.0000     -10.510156      -285.9959
   9   1.0000     -10.502043      -285.7751
  10   1.0000     -10.485645      -285.3289
  11   1.0000     -10.477837      -285.1164
  12   1.0000     -10.450108      -284.3619
  13   1.0000     -10.440852      -284.1100
  14   1.0000     -10.403956      -283.1060
  15   1.0000     -10.400385      -283.0089
  16   1.0000     -10.382833      -282.5312
  17   1.0000     -10.361490      -281.9505
  18   1.0000      -1.236220       -33.6393
  19   1.0000      -1.215549       -33.0768
  20   1.0000      -1.205225       -32.7959
  21   1.0000      -1.186072       -32.2747
  22   1.0000      -1.118847       -30.4454
  23   1.0000      -1.096461       -29.8362
  24   1.0000      -1.074718       -29.2446
  25   1.0000      -1.046119       -28.4663
  26   1.0000      -0.969513       -26.3818
  27   1.0000      -0.946472       -25.7548
  28   1.0000      -0.878227       -23.8978
  29   1.0000      -0.841893       -22.9091
  30   1.0000      -0.821687       -22.3592
  31   1.0000      -0.800828       -21.7916
  32   1.0000      -0.790798       -21.5187
  33   1.0000      -0.767002       -20.8712
  34   1.0000      -0.706760       -19.2319
  35   1.0000      -0.691805       -18.8250
  36   1.0000      -0.680918       -18.5287
  37   1.0000      -0.676606       -18.4114
  38   1.0000      -0.656614       -17.8674
  39   1.0000      -0.643924       -17.5221
  40   1.0000      -0.612232       -16.6597
  41   1.0000      -0.606109       -16.4931
  42   1.0000      -0.595395       -16.2015
  43   1.0000      -0.584997       -15.9186
  44   1.0000      -0.571672       -15.5560
  45   1.0000      -0.566131       -15.4052
  46   1.0000      -0.559552       -15.2262
  47   1.0000      -0.550519       -14.9804
  48   1.0000      -0.547952       -14.9105
  49   1.0000      -0.543657       -14.7937
  50   1.0000      -0.534886       -14.5550
  51   1.0000      -0.532786       -14.4978
  52   1.0000      -0.523527       -14.2459
  53   1.0000      -0.516410       -14.0522
  54   1.0000      -0.510980       -13.9045
  55   1.0000      -0.503074       -13.6893
  56   1.0000      -0.491051       -13.3622
  57   1.0000      -0.418528       -11.3887
  58   1.0000      -0.413930       -11.2636
  59   1.0000      -0.406406       -11.0589
  60   1.0000      -0.397764       -10.8237
  61   1.0000      -0.393298       -10.7022
  62   1.0000      -0.385169       -10.4810
  63   1.0000      -0.377784       -10.2800
  64   1.0000      -0.370388       -10.0788
  65   0.0000      -0.071028        -1.9328
  66   0.0000      -0.041214        -1.1215
  67   0.0000       0.007340         0.1997
  68   0.0000       0.028974         0.7884
  69   0.0000       0.032585         0.8867

----------------------------------------------------------------------------------------------------
          SPIN FLIP ABSORPTION SPECTRUM VIA TRANSITION ELECTRIC DIPOLE MOMENTS
----------------------------------------------------------------------------------------------------
     Transition      Energy     Energy  Wavelength fosc(D2)      D2        DX        DY        DZ
                      (eV)      (cm-1)    (nm)                 (au**2)    (au)      (au)      (au)
----------------------------------------------------------------------------------------------------
  1-3A  ->  2-3A    0.284456    2294.3  4358.6   0.000122396   0.01756   0.12805  -0.02757   0.02018

Dispersion correction             ... done (  0.1 sec)

MULLIKEN ATOMIC CHARGES AND SPIN DENSITIES
------------------------------------------
   0 O :   -0.606630   -0.015776
   1 O :   -0.665268    0.016460
   2 O :   -0.665482   -0.000113
   3 O :   -0.690197   -0.000338
   4 N :   -0.070682   -0.002287
   5 N :   -0.314601   -0.001325
   6 N :    0.125346   -0.001270
   7 N :    0.035786    0.003297
   8 C :    0.650697    0.340673
   9 C :    0.564921    0.352533
  10 C :    0.207595   -0.233107
  11 C :    0.277600   -0.169261
  12 C :   -1.301847   -0.014756
  13 C :   -1.586865   -0.027049
  14 C :   -0.143802   -0.205920
  15 C :    0.269806   -0.106564
  16 C :    0.453605    0.016638
  17 C :    0.393133    0.009786
  18 H :    0.510123   -0.010206
  19 H :    0.435512    0.006920
  20 H :    0.325420   -0.002019
  21 H :    0.289947    0.010956
  22 H :    0.320065    0.008152
  23 H :    0.296176   -0.000209
  24 H :    0.223445    0.014953
  25 H :    0.520625    0.007116
  26 H :   -0.119271   -0.001527
  27 H :    0.145793    0.001350
  28 H :   -0.002958    0.002084
  29 H :    0.122008    0.000807
Sum of atomic charges       :   -0.0000000

LOEWDIN ATOMIC CHARGES AND SPIN DENSITIES
-----------------------------------------
   0 O :    0.133423   -0.014196
   1 O :    0.098403    0.014504
   2 O :    0.103990    0.000089
   3 O :    0.045456   -0.000327
   4 N :    0.311394   -0.001146
   5 N :    0.252741   -0.001380
   6 N :    0.373266   -0.004508
   7 N :    0.310071    0.002381
   8 C :   -0.045242   -0.055616
   9 C :   -0.028451    0.069577
  10 C :   -0.063272   -0.000510
  11 C :   -0.107111    0.003182
  12 C :    0.171802   -0.010866
  13 C :    0.212020    0.007560
  14 C :   -0.489430   -0.015089
  15 C :   -0.403644    0.007224
  16 C :   -0.446934    0.000055
  17 C :   -0.477233   -0.000254
  18 H :    0.065471   -0.000471
  19 H :    0.061441    0.001975
  20 H :   -0.009642   -0.000007
  21 H :    0.046039   -0.004029
  22 H :    0.011879   -0.001666
  23 H :    0.039383   -0.000233
  24 H :    0.010882    0.003069
  25 H :   -0.063955    0.001364
  26 H :   -0.101717   -0.000181
  27 H :   -0.003769   -0.000254
  28 H :   -0.035686   -0.000418
  29 H :    0.028424    0.000171

  Mayer bond orders larger than 0.100000
B(  0-O ,  8-C ) :  -0.1067 B(  0-O , 14-C ) :   1.5444 B(  1-O , 15-C ) :   1.3304
B(  2-O , 16-C ) :   1.4997 B(  3-O , 17-C ) :   1.5155 B(  4-N , 10-C ) :   0.4811
B(  4-N , 16-C ) :   1.0101 B(  4-N , 26-H ) :   1.2603 B(  5-N ,  9-C ) :   0.2310
B(  5-N , 11-C ) :   0.2669 B(  5-N , 17-C ) :   1.1242 B(  5-N , 19-H ) :  -0.1040
B(  5-N , 27-H ) :   0.9810 B(  6-N ,  8-C ) :  -0.1110 B(  6-N , 10-C ) :   0.1016
B(  6-N , 14-C ) :   0.9892 B(  6-N , 16-C ) :   0.9488 B(  6-N , 28-H ) :   1.1487
B(  7-N ,  9-C ) :  -0.1103 B(  7-N , 15-C ) :   1.0723 B(  7-N , 17-C ) :   0.9609
B(  7-N , 29-H ) :   1.0274 B(  8-C ,  9-C ) :   0.1315 B(  8-C , 10-C ) :   0.5289
B(  8-C , 11-C ) :   0.1713 B(  8-C , 12-C ) :   0.3410 B(  8-C , 14-C ) :   0.6647
B(  8-C , 20-H ) :  -0.1148 B(  9-C , 10-C ) :   0.1448 B(  9-C , 11-C ) :   0.5166
B(  9-C , 13-C ) :   0.1488 B(  9-C , 15-C ) :   0.7877 B(  9-C , 19-H ) :  -0.2147
B(  9-C , 23-H ) :  -0.1331 B(  9-C , 24-H ) :  -0.1033 B( 10-C , 11-C ) :   0.4931
B( 10-C , 14-C ) :  -0.2146 B( 10-C , 18-H ) :   0.7255 B( 10-C , 19-H ) :  -0.1005
B( 10-C , 26-H ) :  -0.1165 B( 11-C , 17-C ) :  -0.1428 B( 11-C , 19-H ) :   1.0170
B( 12-C , 20-H ) :   0.9779 B( 12-C , 21-H ) :   0.8661 B( 12-C , 22-H ) :   0.9690
B( 13-C , 14-C ) :   0.1402 B( 13-C , 23-H ) :   1.0459 B( 13-C , 24-H ) :   0.9731
B( 13-C , 25-H ) :   0.7954

Dispersion correction           -0.059696129
FINAL SINGLE POINT ENERGY      -908.760514949159

DIPOLE MOMENT
-------------

Method             : TDA/CIS
Type of density    : Electron Density
Level              : Relaxed density
State              :   2
Multiplicity       :   3
Irrep              :   0
Energy             :     0.0000000000000000 Eh
Relativity type    :
Basis              : AO
                                X                 Y                 Z
Electronic contribution:     -5.745558020      -7.493677453      -6.060526079
Nuclear contribution   :      6.724491912       8.844440199       8.359093839
                        -----------------------------------------
Total Dipole Moment    :      0.978933892       1.350762745       2.298567760
                        -----------------------------------------
Magnitude (a.u.)       :      2.840120650
Magnitude (Debye)      :      7.219012988

Rotational constants in cm-1:             0.022288             0.012482             0.012179
Rotational constants in MHz :           668.187358           374.212023           365.108977

                             ****ORCA TERMINATED NORMALLY****
TOTAL RUN TIME: 0 days 0 hours 4 minutes 28 seconds 930 msec
