                         Program Version 6.0.0  -   RELEASE  -
|  1> ! Engrad def2-TZVPPD wB97M-D3BJ
|  2> %pal nprocs 8 end%pal nprocs 64 end
|  3> %tddft
|  4>  Iroot 1 Nroots 3
|  5> sf true
|  6> end
|  7> *xyz 0 3
|  8> O   0.44050642 -0.05248752 -1.10892528
|  9> C   0.80993297 -0.15609787 0.21006429
| 10> C   -0.06925199 0.45468942 1.20865534
| 11> H   1.78929681 0.25340193 0.29830108
| 12> H   0.7498237 -1.26990417 0.27736532
| 13> H   0.3751589 0.78232627 2.05237098
| 14> H   -1.16338115 0.49283088 1.1770093
| 15> *
| 16>
| 17>                          ****END OF INPUT****

CARTESIAN COORDINATES (ANGSTROEM)
---------------------------------
  O      0.440506   -0.052488   -1.108925
  C      0.809933   -0.156098    0.210064
  C     -0.069252    0.454689    1.208655
  H      1.789297    0.253402    0.298301
  H      0.749824   -1.269904    0.277365
  H      0.375159    0.782326    2.052371
  H     -1.163381    0.492831    1.177009

 Total Charge           Charge          ....    0
 Multiplicity           Mult            ....    3
 Number of Electrons    NEL             ....   24
 Basis Dimension        Dim             ....  182

ORBITAL ENERGIES
----------------
                 SPIN UP ORBITALS
  NO   OCC          E(Eh)            E(eV)
   0   1.0000     -19.384024      -527.4661
   1   1.0000     -10.409997      -283.2704
   2   1.0000     -10.362457      -281.9768
   3   1.0000      -1.166860       -31.7519
   4   1.0000      -0.887142       -24.1404
   5   1.0000      -0.735527       -20.0147
   6   1.0000      -0.628277       -17.0963
   7   1.0000      -0.590355       -16.0644
   8   1.0000      -0.559057       -15.2127
   9   1.0000      -0.514314       -13.9952
  10   1.0000      -0.445447       -12.1212
  11   1.0000      -0.410718       -11.1762
  12   1.0000      -0.323712        -8.8087
  13   0.0000       0.041685         1.1343
  14   0.0000       0.061548         1.6748
  15   0.0000       0.078539         2.1372
  16   0.0000       0.087133         2.3710
  17   0.0000       0.111843         3.0434

                 SPIN DOWN ORBITALS
  NO   OCC          E(Eh)            E(eV)
   0   1.0000     -19.360237      -526.8188
   1   1.0000     -10.411228      -283.3039
   2   1.0000     -10.349128      -281.6141
   3   1.0000      -1.113759       -30.3069
   4   1.0000      -0.853610       -23.2279
   5   1.0000      -0.707643       -19.2560
   6   1.0000      -0.600114       -16.3299
   7   1.0000      -0.548637       -14.9292
   8   1.0000      -0.537219       -14.6185
   9   1.0000      -0.495150       -13.4737
  10   1.0000      -0.381971       -10.3940
  11   0.0000      -0.047204        -1.2845
  12   0.0000      -0.002073        -0.0564
  13   0.0000       0.041641         1.1331
  14   0.0000       0.061336         1.6690
  15   0.0000       0.078647         2.1401

----------------------------------------------------------------------------------------------------
          SPIN FLIP ABSORPTION SPECTRUM VIA TRANSITION ELECTRIC DIPOLE MOMENTS
----------------------------------------------------------------------------------------------------
     Transition      Energy     Energy  Wavelength fosc(D2)      D2        DX        DY        DZ
                      (eV)      (cm-1)    (nm)                 (au**2)    (au)      (au)      (au)
----------------------------------------------------------------------------------------------------
  1-3A  ->  2-3A    0.273132    2203.0  4539.4   0.000692993   0.10356  -0.00569   0.14686   0.28629
  1-3A  ->  3-3A    0.801751    6466.6  1546.4   0.009390557   0.47807   0.09204  -0.06599  -0.68209

Dispersion correction             ... done (  0.1 sec)

MULLIKEN ATOMIC CHARGES AND SPIN DENSITIES
------------------------------------------
   0 O :   -0.424247    0.365351
   1 C :   -0.049077    0.006932
   2 C :   -0.364731   -0.344883
   3 H :    0.237177   -0.013442
   4 H :    0.194636    0.043561
   5 H :    0.214772   -0.025849
   6 H :    0.191470   -0.031670
Sum of atomic charges       :    0.0000000

LOEWDIN ATOMIC CHARGES AND SPIN DENSITIES
-----------------------------------------
   0 O :   -0.018517    0.325795
   1 C :   -0.254723   -0.006321
   2 C :    0.343023   -0.264955
   3 H :    0.015910   -0.005174
   4 H :    0.065552    0.030067
   5 H :   -0.124574   -0.046748
   6 H :   -0.026671   -0.032664

  Mayer bond orders larger than 0.100000
B(  0-O ,  1-C ) :   0.9182 B(  0-O ,  2-C ) :   0.2361 B(  1-C ,  2-C ) :   0.9366
B(  1-C ,  3-H ) :   0.9394 B(  1-C ,  4-H ) :   0.8967 B(  2-C ,  5-H ) :   1.0043
B(  2-C ,  6-H ) :   0.9931

Dispersion correction           -0.005528216
FINAL SINGLE POINT ENERGY      -153.750364496628

DIPOLE MOMENT
-------------

Method             : TDA/CIS
Type of density    : Electron Density
Level              : Relaxed density
State              :   1
Multiplicity       :   3
Irrep              :   0
Energy             :     0.0000000000000000 Eh
Relativity type    :
Basis              : AO
                                X                 Y                 Z
Electronic contribution:      0.067130744      -0.058682952      -2.199017748
Nuclear contribution   :      0.134669102      -0.015307320       3.285376470
                        -----------------------------------------
Total Dipole Moment    :      0.201799846      -0.073990272       1.086358722
                        -----------------------------------------
Magnitude (a.u.)       :      1.107417270
Magnitude (Debye)      :      2.814831003

Rotational constants in cm-1:             1.609454             0.341613             0.303025
Rotational constants in MHz :         48250.202643         10241.290457          9084.458318

                             ****ORCA TERMINATED NORMALLY****
TOTAL RUN TIME: 0 days 0 hours 0 minutes 27 seconds 98 msec
