                         Program Version 6.0.0  -   RELEASE  -
|  1> ! Engrad def2-TZVPPD wB97M-D3BJ
|  2> %pal nprocs 8 end%pal nprocs 64 end
|  3> %tddft Nroots 2 Iroot 2
|  4> sf true
|  5> end
|  6> *xyz 0 3
|  7> O   2.99935541 1.27231046 -0.49281316
|  8> O   -0.56832843 0.37521879 -1.86802534
|  9> O   1.42683417 -2.80868414 -1.78912103
| 10> O   -3.05509561 -1.36938422 1.51313622
| 11> N   0.73767857 -2.00836839 0.24518163
| 12> N   -2.3665334 0.77355177 1.64292939
| 13> N   2.16704048 -0.77908232 -1.09467164
| 14> N   -1.99096445 -0.40058404 -0.27461864
| 15> C   1.50626564 0.11442605 0.99331478
| 16> C   -0.96501256 1.7913784 -0.00799747
| 17> C   0.76140007 -1.03867012 1.19896454
| 18> C   -1.60967965 1.82144822 1.15316115
| 19> C   1.64388374 1.19612942 2.02003223
| 20> C   -0.11291542 2.90098232 -0.54113284
| 21> C   2.26615595 0.31134225 -0.23106835
| 22> C   -1.12547394 0.59192432 -0.81554593
| 23> C   1.42618146 -1.92265506 -0.9631519
| 24> C   -2.49384913 -0.43257089 1.00904463
| 25> H   0.35479229 -1.3563643 2.14940022
| 26> H   -1.5154172 2.66664148 1.83748023
| 27> H   1.39607008 2.21189731 1.55812029
| 28> H   0.98687905 0.99702422 2.86149197
| 29> H   2.69506419 1.27304424 2.29907294
| 30> H   -0.40176565 3.14481921 -1.56389208
| 31> H   -0.18870118 3.74324933 0.13878646
| 32> H   0.95050985 2.62026533 -0.56449377
| 33> H   0.20731818 -2.87293557 0.34139125
| 34> H   -2.8719479 0.88098129 2.49479094
| 35> H   2.67504939 -0.73466828 -1.94452015
| 36> H   -1.92123526 -1.28568825 -0.76949229
| 37> *
| 38>
| 39>                          ****END OF INPUT****

CARTESIAN COORDINATES (ANGSTROEM)
---------------------------------
  O      2.999355    1.272310   -0.492813
  O     -0.568328    0.375219   -1.868025
  O      1.426834   -2.808684   -1.789121
  O     -3.055096   -1.369384    1.513136
  N      0.737679   -2.008368    0.245182
  N     -2.366533    0.773552    1.642929
  N      2.167040   -0.779082   -1.094672
  N     -1.990964   -0.400584   -0.274619
  C      1.506266    0.114426    0.993315
  C     -0.965013    1.791378   -0.007997
  C      0.761400   -1.038670    1.198965
  C     -1.609680    1.821448    1.153161
  C      1.643884    1.196129    2.020032
  C     -0.112915    2.900982   -0.541133
  C      2.266156    0.311342   -0.231068
  C     -1.125474    0.591924   -0.815546
  C      1.426181   -1.922655   -0.963152
  C     -2.493849   -0.432571    1.009045
  H      0.354792   -1.356364    2.149400
  H     -1.515417    2.666641    1.837480
  H      1.396070    2.211897    1.558120
  H      0.986879    0.997024    2.861492
  H      2.695064    1.273044    2.299073
  H     -0.401766    3.144819   -1.563892
  H     -0.188701    3.743249    0.138786
  H      0.950510    2.620265   -0.564494
  H      0.207318   -2.872936    0.341391
  H     -2.871948    0.880981    2.494791
  H      2.675049   -0.734668   -1.944520
  H     -1.921235   -1.285688   -0.769492

 Total Charge           Charge          ....    0
 Multiplicity           Mult            ....    3
 Number of Electrons    NEL             ....  132
 Basis Dimension        Dim             ....  882

ORBITAL ENERGIES
----------------
                 SPIN UP ORBITALS
  NO   OCC          E(Eh)            E(eV)
   0   1.0000     -19.329747      -525.9891
   1   1.0000     -19.328667      -525.9598
   2   1.0000     -19.327230      -525.9207
   3   1.0000     -19.321992      -525.7781
   4   1.0000     -14.591982      -397.0680
   5   1.0000     -14.582109      -396.7994
   6   1.0000     -14.568813      -396.4376
   7   1.0000     -14.546911      -395.8416
   8   1.0000     -10.511505      -286.0326
   9   1.0000     -10.507611      -285.9266
  10   1.0000     -10.481792      -285.2241
  11   1.0000     -10.462594      -284.7017
  12   1.0000     -10.435270      -283.9581
  13   1.0000     -10.412785      -283.3463
  14   1.0000     -10.402489      -283.0661
  15   1.0000     -10.381480      -282.4944
  16   1.0000     -10.374305      -282.2992
  17   1.0000     -10.355553      -281.7889
  18   1.0000      -1.229012       -33.4431
  19   1.0000      -1.221963       -33.2513
  20   1.0000      -1.198265       -32.6064
  21   1.0000      -1.178860       -32.0784
  22   1.0000      -1.124627       -30.6027
  23   1.0000      -1.122166       -30.5357
  24   1.0000      -1.065764       -29.0009
  25   1.0000      -1.061256       -28.8782
  26   1.0000      -0.969207       -26.3735
  27   1.0000      -0.960128       -26.1264
  28   1.0000      -0.854000       -23.2385
  29   1.0000      -0.848335       -23.0844
  30   1.0000      -0.812735       -22.1156
  31   1.0000      -0.810238       -22.0477
  32   1.0000      -0.791055       -21.5257
  33   1.0000      -0.788736       -21.4626
  34   1.0000      -0.697136       -18.9700
  35   1.0000      -0.695664       -18.9300
  36   1.0000      -0.691903       -18.8276
  37   1.0000      -0.688402       -18.7324
  38   1.0000      -0.641559       -17.4577
  39   1.0000      -0.632063       -17.1993
  40   1.0000      -0.630529       -17.1576
  41   1.0000      -0.609620       -16.5886
  42   1.0000      -0.596211       -16.2237
  43   1.0000      -0.591924       -16.1071
  44   1.0000      -0.572581       -15.5807
  45   1.0000      -0.568672       -15.4743
  46   1.0000      -0.564510       -15.3611
  47   1.0000      -0.556278       -15.1371
  48   1.0000      -0.554037       -15.0761
  49   1.0000      -0.538668       -14.6579
  50   1.0000      -0.525687       -14.3047
  51   1.0000      -0.522725       -14.2241
  52   1.0000      -0.518871       -14.1192
  53   1.0000      -0.514726       -14.0064
  54   1.0000      -0.510650       -13.8955
  55   1.0000      -0.502728       -13.6799
  56   1.0000      -0.487792       -13.2735
  57   1.0000      -0.478147       -13.0110
  58   1.0000      -0.422429       -11.4949
  59   1.0000      -0.417777       -11.3683
  60   1.0000      -0.408598       -11.1185
  61   1.0000      -0.397484       -10.8161
  62   1.0000      -0.390237       -10.6189
  63   1.0000      -0.387548       -10.5457
  64   1.0000      -0.382413       -10.4060
  65   1.0000      -0.348585        -9.4855
  66   1.0000      -0.219695        -5.9782
  67   0.0000       0.011725         0.3191
  68   0.0000       0.018401         0.5007
  69   0.0000       0.027893         0.7590
  70   0.0000       0.037037         1.0078
  71   0.0000       0.042505         1.1566

                 SPIN DOWN ORBITALS
  NO   OCC          E(Eh)            E(eV)
   0   1.0000     -19.328712      -525.9610
   1   1.0000     -19.327718      -525.9339
   2   1.0000     -19.327180      -525.9193
   3   1.0000     -19.316108      -525.6180
   4   1.0000     -14.586894      -396.9296
   5   1.0000     -14.581957      -396.7952
   6   1.0000     -14.568734      -396.4354
   7   1.0000     -14.545932      -395.8149
   8   1.0000     -10.511510      -286.0327
   9   1.0000     -10.508050      -285.9386
  10   1.0000     -10.481773      -285.2235
  11   1.0000     -10.462348      -284.6950
  12   1.0000     -10.434968      -283.9499
  13   1.0000     -10.403158      -283.0843
  14   1.0000     -10.392151      -282.7848
  15   1.0000     -10.381519      -282.4955
  16   1.0000     -10.374807      -282.3128
  17   1.0000     -10.355540      -281.7886
  18   1.0000      -1.228841       -33.4385
  19   1.0000      -1.217720       -33.1358
  20   1.0000      -1.198266       -32.6065
  21   1.0000      -1.170058       -31.8389
  22   1.0000      -1.124288       -30.5934
  23   1.0000      -1.111154       -30.2360
  24   1.0000      -1.065342       -28.9894
  25   1.0000      -1.055849       -28.7311
  26   1.0000      -0.963042       -26.2057
  27   1.0000      -0.943165       -25.6648
  28   1.0000      -0.848400       -23.0861
  29   1.0000      -0.841612       -22.9014
  30   1.0000      -0.810615       -22.0580
  31   1.0000      -0.800241       -21.7757
  32   1.0000      -0.790788       -21.5184
  33   1.0000      -0.783468       -21.3193
  34   1.0000      -0.696793       -18.9607
  35   1.0000      -0.692131       -18.8338
  36   1.0000      -0.683867       -18.6090
  37   1.0000      -0.679811       -18.4986
  38   1.0000      -0.639052       -17.3895
  39   1.0000      -0.625372       -17.0172
  40   1.0000      -0.621807       -16.9202
  41   1.0000      -0.602804       -16.4031
  42   1.0000      -0.591375       -16.0921
  43   1.0000      -0.584470       -15.9042
  44   1.0000      -0.569054       -15.4848
  45   1.0000      -0.561699       -15.2846
  46   1.0000      -0.558180       -15.1889
  47   1.0000      -0.552764       -15.0415
  48   1.0000      -0.548633       -14.9291
  49   1.0000      -0.532989       -14.5034
  50   1.0000      -0.519523       -14.1369
  51   1.0000      -0.516889       -14.0653
  52   1.0000      -0.510050       -13.8792
  53   1.0000      -0.504932       -13.7399
  54   1.0000      -0.503397       -13.6981
  55   1.0000      -0.496033       -13.4978
  56   1.0000      -0.477012       -12.9802
  57   1.0000      -0.446904       -12.1609
  58   1.0000      -0.421774       -11.4771
  59   1.0000      -0.413550       -11.2533
  60   1.0000      -0.403608       -10.9827
  61   1.0000      -0.390227       -10.6186
  62   1.0000      -0.379857       -10.3364
  63   1.0000      -0.375152       -10.2084
  64   1.0000      -0.349773        -9.5178
  65   0.0000      -0.101296        -2.7564
  66   0.0000       0.011413         0.3106
  67   0.0000       0.020078         0.5463
  68   0.0000       0.026103         0.7103
  69   0.0000       0.035113         0.9555

----------------------------------------------------------------------------------------------------
          SPIN FLIP ABSORPTION SPECTRUM VIA TRANSITION ELECTRIC DIPOLE MOMENTS
----------------------------------------------------------------------------------------------------
     Transition      Energy     Energy  Wavelength fosc(D2)      D2        DX        DY        DZ
                      (eV)      (cm-1)    (nm)                 (au**2)    (au)      (au)      (au)
----------------------------------------------------------------------------------------------------
  1-3A  ->  2-3A    3.754176   30279.5   330.3   0.001073666   0.01167  -0.06519  -0.06144   0.06041

Dispersion correction             ... done (  0.1 sec)

MULLIKEN ATOMIC CHARGES AND SPIN DENSITIES
------------------------------------------
   0 O :   -0.715091    0.004867
   1 O :   -0.633312   -0.000920
   2 O :   -0.634013    0.003418
   3 O :   -0.652804    0.000137
   4 N :    0.038475    0.022279
   5 N :   -0.002417   -0.004018
   6 N :    0.022139   -0.009671
   7 N :   -0.041638   -0.003691
   8 C :    1.129436    0.030701
   9 C :    0.455722    0.019976
  10 C :   -0.532961    0.027247
  11 C :    0.160814    0.006039
  12 C :   -1.448619    0.001164
  13 C :   -1.296194    0.001697
  14 C :    0.427313   -0.106034
  15 C :    0.440339   -0.030299
  16 C :    0.523934    0.003404
  17 C :    0.452132    0.003126
  18 H :    0.183025    0.020927
  19 H :    0.165760   -0.001265
  20 H :    0.211403    0.007470
  21 H :    0.338768    0.000957
  22 H :    0.415465    0.005814
  23 H :    0.359306    0.000232
  24 H :    0.323601    0.000149
  25 H :    0.160523   -0.002000
  26 H :    0.069308   -0.002979
  27 H :    0.007040   -0.000582
  28 H :   -0.015484    0.002026
  29 H :    0.088031   -0.000168
Sum of atomic charges       :    0.0000000

LOEWDIN ATOMIC CHARGES AND SPIN DENSITIES
-----------------------------------------
   0 O :    0.049454    0.004615
   1 O :    0.104204   -0.000569
   2 O :    0.111257    0.002568
   3 O :    0.087564    0.000090
   4 N :    0.293255    0.018387
   5 N :    0.282715   -0.000996
   6 N :    0.322840   -0.006585
   7 N :    0.328663   -0.001000
   8 C :   -0.091505    0.006592
   9 C :   -0.154571    0.000127
  10 C :    0.012099   -0.010907
  11 C :    0.050851   -0.000056
  12 C :    0.192818    0.001417
  13 C :    0.185679   -0.000106
  14 C :   -0.416222   -0.007536
  15 C :   -0.385804   -0.000059
  16 C :   -0.460641   -0.002286
  17 C :   -0.511101   -0.000338
  18 H :    0.006140   -0.005628
  19 H :    0.047308   -0.000044
  20 H :    0.026706    0.000839
  21 H :   -0.009963   -0.000232
  22 H :    0.010270    0.000916
  23 H :    0.007770    0.000006
  24 H :   -0.007621   -0.000047
  25 H :   -0.020933   -0.000083
  26 H :    0.006878    0.001781
  27 H :   -0.029928   -0.000052
  28 H :   -0.028913   -0.000751
  29 H :   -0.009268   -0.000061

  Mayer bond orders larger than 0.100000
B(  0-O , 14-C ) :   1.2547 B(  1-O , 15-C ) :   1.4598 B(  2-O , 16-C ) :   1.5499
B(  3-O , 17-C ) :   1.5352 B(  4-N , 10-C ) :   0.9888 B(  4-N , 16-C ) :   0.9453
B(  4-N , 26-H ) :   1.0902 B(  5-N , 11-C ) :   0.9743 B(  5-N , 17-C ) :   1.0383
B(  5-N , 27-H ) :   1.1548 B(  6-N , 14-C ) :   0.9212 B(  6-N , 16-C ) :   0.9999
B(  6-N , 28-H ) :   1.1332 B(  7-N , 15-C ) :   1.0008 B(  7-N , 17-C ) :   0.9465
B(  7-N , 29-H ) :   1.0457 B(  8-C , 10-C ) :   0.4636 B(  8-C , 12-C ) :   0.2722
B(  8-C , 14-C ) :   0.8227 B(  8-C , 18-H ) :  -0.1201 B(  9-C , 11-C ) :   1.0398
B(  9-C , 13-C ) :   0.4332 B(  9-C , 15-C ) :   0.8396 B(  9-C , 24-H ) :  -0.1123
B( 10-C , 16-C ) :  -0.1017 B( 10-C , 18-H ) :   1.1610 B( 11-C , 13-C ) :  -0.1963
B( 11-C , 19-H ) :   1.0850 B( 12-C , 14-C ) :  -0.1454 B( 12-C , 20-H ) :   1.0765
B( 12-C , 21-H ) :   0.9851 B( 12-C , 22-H ) :   0.8349 B( 13-C , 23-H ) :   0.8909
B( 13-C , 24-H ) :   1.0765 B( 13-C , 25-H ) :   0.9642

Dispersion correction           -0.058086913
FINAL SINGLE POINT ENERGY      -908.771992853307

DIPOLE MOMENT
-------------

Method             : TDA/CIS
Type of density    : Electron Density
Level              : Relaxed density
State              :   2
Multiplicity       :   3
Irrep              :   0
Energy             :     0.0000000000000000 Eh
Relativity type    :
Basis              : AO
                                X                 Y                 Z
Electronic contribution:     -2.563641439      -9.531907787      -5.225014497
Nuclear contribution   :      1.754038856      10.488580439       7.364610951
                        -----------------------------------------
Total Dipole Moment    :     -0.809602582       0.956672652       2.139596454
                        -----------------------------------------
Magnitude (a.u.)       :      2.479627369
Magnitude (Debye)      :      6.302711888

Rotational constants in cm-1:             0.019603             0.013682             0.011081
Rotational constants in MHz :           587.695155           410.177143           332.187402

                             ****ORCA TERMINATED NORMALLY****
TOTAL RUN TIME: 0 days 0 hours 5 minutes 3 seconds 856 msec
