                         Program Version 6.0.0  -   RELEASE  -
|  1> ! Opt wB97M-D3BJ def2-TZVPPD
|  2> %pal nprocs 8 end %pal nprocs 64 end
|  3> %geom
|  4> Constraints
|  5>     {A 2 1 0 80.9090909090909 C }
|  6> end
|  7> MaxIter 500
|  8> end
|  9> *xyz 0 1
| 10> O   -0.0007 0.8141 0.0
| 11> C   0.7509 -0.4065 0.0
| 12> C   -0.7502 -0.4076 0.0
| 13> H   1.2625 -0.6786 0.9136
| 14> H   1.2625 -0.6787 -0.9136
| 15> H   -1.2614 -0.6806 -0.9136
| 16> H   -1.2614 -0.6805 0.9136
| 17> *
| 18>
| 19>                          ****END OF INPUT****
 Total Charge           Charge          ....    0
 Multiplicity           Mult            ....    1
 Number of Electrons    NEL             ....   24
Dispersion correction           -0.005356689
FINAL SINGLE POINT ENERGY      -153.835203781609
Dispersion correction             ... done (  0.2 sec)
Dispersion correction           -0.005347675
FINAL SINGLE POINT ENERGY      -153.845125949532
Dispersion correction             ... done (  0.1 sec)
Dispersion correction           -0.005359671
FINAL SINGLE POINT ENERGY      -153.848579010856
Dispersion correction             ... done (  0.2 sec)
FINAL SINGLE POINT ENERGY      -153.849313351977
FINAL SINGLE POINT ENERGY      -153.849507011664
FINAL SINGLE POINT ENERGY      -153.849566240108
FINAL SINGLE POINT ENERGY      -153.849580396510
Dispersion correction             ... done (  0.1 sec)
Dispersion correction           -0.005370929
FINAL SINGLE POINT ENERGY      -153.849585601200
Dispersion correction             ... done (  0.2 sec)
Dispersion correction           -0.005371447
FINAL SINGLE POINT ENERGY      -153.849588216356
Dispersion correction             ... done (  0.1 sec)
                    ***********************HURRAY********************

CARTESIAN COORDINATES (ANGSTROEM)
---------------------------------
  O      0.193655    0.916370   -0.000967
  C      0.658504   -0.349641   -0.000171
  C     -0.731905   -0.621701    0.000248
  H      1.215242   -0.646547    0.893662
  H      1.215266   -0.647265   -0.893720
  H     -1.274541   -0.685956   -0.927880
  H     -1.274021   -0.683659    0.928828

 Multiplicity           Mult            ....    1
 Number of Electrons    NEL             ....   24
 Basis Dimension        Dim             ....  182

ORBITAL ENERGIES
----------------

  NO   OCC          E(Eh)            E(eV)
   0   2.0000     -19.342879      -526.3465
   1   2.0000     -10.418980      -283.5148
   2   2.0000     -10.396621      -282.9064
   3   2.0000      -1.160880       -31.5891
   4   2.0000      -0.850853       -23.1529
   5   2.0000      -0.738148       -20.0860
   6   2.0000      -0.626870       -17.0580
   7   2.0000      -0.585394       -15.9294
   8   2.0000      -0.507961       -13.8223
   9   2.0000      -0.501453       -13.6452
  10   2.0000      -0.402265       -10.9462
  11   2.0000      -0.370665       -10.0863
  12   0.0000       0.020394         0.5550
  13   0.0000       0.043981         1.1968
  14   0.0000       0.060717         1.6522
  15   0.0000       0.076761         2.0888
  16   0.0000       0.100928         2.7464

MULLIKEN ATOMIC CHARGES
-----------------------
   0 O :   -0.448562
   1 C :   -0.089779
   2 C :   -0.303060
   3 H :    0.210576
   4 H :    0.210591
   5 H :    0.210050
   6 H :    0.210185
Sum of atomic charges:    0.0000000

LOEWDIN ATOMIC CHARGES
----------------------
   0 O :   -0.022684
   1 C :   -0.281926
   2 C :    0.262344
   3 H :    0.024715
   4 H :    0.024716
   5 H :   -0.003577
   6 H :   -0.003588

  Mayer bond orders larger than 0.100000
B(  0-O ,  1-C ) :   0.6794 B(  0-O ,  2-C ) :   0.9389 B(  1-C ,  2-C ) :   0.7733
B(  1-C ,  3-H ) :   1.0513 B(  1-C ,  4-H ) :   1.0511 B(  2-C ,  5-H ) :   0.9696
B(  2-C ,  6-H ) :   0.9696

Dispersion correction           -0.005371528
FINAL SINGLE POINT ENERGY      -153.849589042495

DIPOLE MOMENT
-------------

Method             : SCF
Type of density    : Electron Density
Multiplicity       :   1
Irrep              :   0
Energy             :  -153.8442175144749058 Eh
Relativity type    :
Basis              : AO
                                X                 Y                 Z
Electronic contribution:      0.033087803       1.481328289      -0.001261511
Nuclear contribution   :     -0.287287360      -2.511679086       0.001989161
                        -----------------------------------------
Total Dipole Moment    :     -0.254199558      -1.030350798       0.000727650
                        -----------------------------------------
Magnitude (a.u.)       :      1.061244887
Magnitude (Debye)      :      2.697470132

Rotational constants in cm-1:             0.972998             0.579386             0.424348
Rotational constants in MHz :         29169.734511         17369.543398         12721.642441

                             ****ORCA TERMINATED NORMALLY****
TOTAL RUN TIME: 0 days 0 hours 2 minutes 15 seconds 935 msec
