                         Program Version 6.0.0  -   RELEASE  -
|  1> ! Opt wB97M-D3BJ def2-TZVPPD
|  2> %pal nprocs 8 end %pal nprocs 64 end
|  3> %geom
|  4> Constraints
|  5>     {A 2 1 0 106.36363636363636 C }
|  6> end
|  7> MaxIter 500
|  8> end
|  9> *xyz 0 1
| 10> O   -0.0007 0.8141 0.0
| 11> C   0.7509 -0.4065 0.0
| 12> C   -0.7502 -0.4076 0.0
| 13> H   1.2625 -0.6786 0.9136
| 14> H   1.2625 -0.6787 -0.9136
| 15> H   -1.2614 -0.6806 -0.9136
| 16> H   -1.2614 -0.6805 0.9136
| 17> *
| 18>
| 19>                          ****END OF INPUT****
 Total Charge           Charge          ....    0
 Multiplicity           Mult            ....    1
 Number of Electrons    NEL             ....   24
Dispersion correction           -0.005799831
FINAL SINGLE POINT ENERGY      -153.705720811512
Dispersion correction             ... done (  0.2 sec)
Dispersion correction           -0.005690442
FINAL SINGLE POINT ENERGY      -153.756296150186
Dispersion correction             ... done (  0.1 sec)
Dispersion correction           -0.005630707
FINAL SINGLE POINT ENERGY      -153.771110238387
Dispersion correction             ... done (  0.1 sec)
FINAL SINGLE POINT ENERGY      -153.778217537093
FINAL SINGLE POINT ENERGY      -153.780298310567
FINAL SINGLE POINT ENERGY      -153.780689500989
FINAL SINGLE POINT ENERGY      -153.780809319854
FINAL SINGLE POINT ENERGY      -153.780872738427
FINAL SINGLE POINT ENERGY      -153.780887322865
FINAL SINGLE POINT ENERGY      -153.780895109115
FINAL SINGLE POINT ENERGY      -153.780899803060
FINAL SINGLE POINT ENERGY      -153.780903941416
FINAL SINGLE POINT ENERGY      -153.780909832659
FINAL SINGLE POINT ENERGY      -153.780918466720
FINAL SINGLE POINT ENERGY      -153.780934028925
FINAL SINGLE POINT ENERGY      -153.780951272527
FINAL SINGLE POINT ENERGY      -153.780966611326
Dispersion correction             ... done (  0.2 sec)
Dispersion correction           -0.005615214
FINAL SINGLE POINT ENERGY      -153.780973865397
Dispersion correction             ... done (  0.2 sec)
Dispersion correction           -0.005615710
FINAL SINGLE POINT ENERGY      -153.780976512715
Dispersion correction             ... done (  0.1 sec)
                    ***********************HURRAY********************

CARTESIAN COORDINATES (ANGSTROEM)
---------------------------------
  O      0.494320    1.096922   -0.002509
  C      0.601729   -0.239423   -0.000455
  C     -0.750406   -0.757345    0.001130
  H      1.148119   -0.619025    0.878540
  H      1.146458   -0.621777   -0.879310
  H     -1.319150   -0.791315   -0.920365
  H     -1.318871   -0.786438    0.922968

 Multiplicity           Mult            ....    1
 Number of Electrons    NEL             ....   24
 Basis Dimension        Dim             ....  182

ORBITAL ENERGIES
----------------

  NO   OCC          E(Eh)            E(eV)
   0   2.0000     -19.323908      -525.8303
   1   2.0000     -10.454350      -284.4773
   2   2.0000     -10.397321      -282.9255
   3   2.0000      -1.118714       -30.4418
   4   2.0000      -0.890513       -24.2321
   5   2.0000      -0.733916       -19.9709
   6   2.0000      -0.625570       -17.0226
   7   2.0000      -0.570784       -15.5318
   8   2.0000      -0.516845       -14.0641
   9   2.0000      -0.513340       -13.9687
  10   2.0000      -0.360198        -9.8015
  11   2.0000      -0.348504        -9.4833
  12   0.0000      -0.076614        -2.0848
  13   0.0000       0.034161         0.9296
  14   0.0000       0.061395         1.6706
  15   0.0000       0.075976         2.0674
  16   0.0000       0.099001         2.6940

MULLIKEN ATOMIC CHARGES
-----------------------
   0 O :   -0.515382
   1 C :   -0.132738
   2 C :   -0.195403
   3 H :    0.206625
   4 H :    0.206516
   5 H :    0.215098
   6 H :    0.215283
Sum of atomic charges:   -0.0000000

LOEWDIN ATOMIC CHARGES
----------------------
   0 O :   -0.024357
   1 C :   -0.417070
   2 C :    0.417227
   3 H :    0.020353
   4 H :    0.020347
   5 H :   -0.008242
   6 H :   -0.008258

  Mayer bond orders larger than 0.100000
B(  0-O ,  1-C ) :   0.7890 B(  0-O ,  2-C ) :   0.8414 B(  1-C ,  2-C ) :   0.7992
B(  1-C ,  3-H ) :   1.0407 B(  1-C ,  4-H ) :   1.0407 B(  2-C ,  5-H ) :   0.9699
B(  2-C ,  6-H ) :   0.9698

Dispersion correction           -0.005615667
FINAL SINGLE POINT ENERGY      -153.780977037323

DIPOLE MOMENT
-------------

Method             : SCF
Type of density    : Electron Density
Multiplicity       :   1
Irrep              :   0
Energy             :  -153.7753613700527353 Eh
Relativity type    :
Basis              : AO
                                X                 Y                 Z
Electronic contribution:      0.120164912       1.414891428      -0.001682491
Nuclear contribution   :     -0.808932586      -2.862098983       0.004263661
                        -----------------------------------------
Total Dipole Moment    :     -0.688767674      -1.447207555       0.002581171
                        -----------------------------------------
Magnitude (a.u.)       :      1.602753031
Magnitude (Debye)      :      4.073874448

Rotational constants in cm-1:             1.281136             0.396690             0.343233
Rotational constants in MHz :         38407.486147         11892.455997         10289.861546

                             ****ORCA TERMINATED NORMALLY****
TOTAL RUN TIME: 0 days 0 hours 4 minutes 45 seconds 222 msec
