                         Program Version 6.0.0  -   RELEASE  -
|  1> ! Engrad def2-TZVPPD wB97M-D3BJ
|  2> %pal nprocs 8 end%pal nprocs 32 end
|  3>  %tddft nroots 2 Iroot 1
|  4> sf true
|  5> end
|  6> *xyz 0 3
|  7> O   2.14499346932198 0.14283151665792 -1.17722358311549
|  8> O   -0.47685160306984 2.48397992320769 -2.46688334687973
|  9> O   0.44792294040861 -3.70084454175964 0.45315189890871
| 10> O   -2.41485645275961 -1.26064802024678 -1.08943149418605
| 11> N   0.44641603363657 -1.898753952079 1.83296491715944
| 12> N   -1.4683454299112 -0.17890095634966 0.64221826182073
| 13> N   1.10385693004071 -1.69206895998587 -0.3850664748446
| 14> N   -1.05713967934945 0.45605385648704 -1.62085791293735
| 15> C   1.05841795439801 0.37497102934421 0.93209299885263
| 16> C   -0.04886095923546 2.36130724242271 -0.32822516883343
| 17> C   0.56476811026008 -0.50136753569356 2.05004734274246
| 18> C   -0.39574103727565 0.43195894229882 1.35703126389111
| 19> C   2.02392580980597 1.46003949903475 1.35647600359128
| 20> C   -0.9610010048165 3.2907201588868 0.35751874937652
| 21> C   1.48301229509313 -0.36447723553045 -0.30855814285252
| 22> C   -0.58135132625075 1.74170014355806 -1.49649688046264
| 23> C   0.63951954659326 -2.52254262874148 0.63410813619518
| 24> C   -1.68215762252236 -0.37996217797255 -0.70074238081828
| 25> H   0.89078046469225 -0.23381463851583 3.04291336530554
| 26> H   -0.65675834020855 1.32024342516538 1.91270576282639
| 27> H   2.33191516014595 2.04774254755433 0.50321036081505
| 28> H   1.55574288804839 2.11781267785836 2.08658903339901
| 29> H   2.89588905299866 0.99863797424352 1.81873178425883
| 30> H   -1.98386229393213 2.93589963841461 0.50974210079183
| 31> H   -0.54708242226781 3.71822124842702 1.26700548191003
| 32> H   -1.02399243058439 4.10054734599813 -0.38365170263246
| 33> H   0.05734668163297 -2.48417558713316 2.54999172279924
| 34> H   -1.97214270889058 -0.88128251431617 1.16008929257795
| 35> H   1.35998915837254 -2.17592894154995 -1.23137668884364
| 36> H   -1.28175318437478 0.20710052031472 -2.57347470081575
| 37> *
| 38>
| 39>                          ****END OF INPUT****

CARTESIAN COORDINATES (ANGSTROEM)
---------------------------------
  O      2.144993    0.142832   -1.177224
  O     -0.476852    2.483980   -2.466883
  O      0.447923   -3.700845    0.453152
  O     -2.414856   -1.260648   -1.089431
  N      0.446416   -1.898754    1.832965
  N     -1.468345   -0.178901    0.642218
  N      1.103857   -1.692069   -0.385066
  N     -1.057140    0.456054   -1.620858
  C      1.058418    0.374971    0.932093
  C     -0.048861    2.361307   -0.328225
  C      0.564768   -0.501368    2.050047
  C     -0.395741    0.431959    1.357031
  C      2.023926    1.460039    1.356476
  C     -0.961001    3.290720    0.357519
  C      1.483012   -0.364477   -0.308558
  C     -0.581351    1.741700   -1.496497
  C      0.639520   -2.522543    0.634108
  C     -1.682158   -0.379962   -0.700742
  H      0.890780   -0.233815    3.042913
  H     -0.656758    1.320243    1.912706
  H      2.331915    2.047743    0.503210
  H      1.555743    2.117813    2.086589
  H      2.895889    0.998638    1.818732
  H     -1.983862    2.935900    0.509742
  H     -0.547082    3.718221    1.267005
  H     -1.023992    4.100547   -0.383652
  H      0.057347   -2.484176    2.549992
  H     -1.972143   -0.881283    1.160089
  H      1.359989   -2.175929   -1.231377
  H     -1.281753    0.207101   -2.573475

 Total Charge           Charge          ....    0
 Multiplicity           Mult            ....    3
 Number of Electrons    NEL             ....  132
 Basis Dimension        Dim             ....  882

ORBITAL ENERGIES
----------------
                 SPIN UP ORBITALS
  NO   OCC          E(Eh)            E(eV)
   0   1.0000     -19.338931      -526.2391
   1   1.0000     -19.334117      -526.1081
   2   1.0000     -19.321647      -525.7687
   3   1.0000     -19.320469      -525.7367
   4   1.0000     -14.568487      -396.4287
   5   1.0000     -14.567335      -396.3973
   6   1.0000     -14.566664      -396.3791
   7   1.0000     -14.563813      -396.3015
   8   1.0000     -10.510712      -286.0110
   9   1.0000     -10.508181      -285.9422
  10   1.0000     -10.493633      -285.5463
  11   1.0000     -10.480594      -285.1915
  12   1.0000     -10.437102      -284.0080
  13   1.0000     -10.434675      -283.9419
  14   1.0000     -10.417570      -283.4765
  15   1.0000     -10.395158      -282.8666
  16   1.0000     -10.373078      -282.2658
  17   1.0000     -10.369780      -282.1761
  18   1.0000      -1.227758       -33.4090
  19   1.0000      -1.220236       -33.2043
  20   1.0000      -1.205062       -32.7914
  21   1.0000      -1.199201       -32.6319
  22   1.0000      -1.130603       -30.7653
  23   1.0000      -1.090627       -29.6775
  24   1.0000      -1.074941       -29.2506
  25   1.0000      -1.063394       -28.9364
  26   1.0000      -1.016003       -27.6468
  27   1.0000      -0.937397       -25.5079
  28   1.0000      -0.881989       -24.0001
  29   1.0000      -0.823251       -22.4018
  30   1.0000      -0.819380       -22.2965
  31   1.0000      -0.810270       -22.0486
  32   1.0000      -0.792264       -21.5586
  33   1.0000      -0.774638       -21.0790
  34   1.0000      -0.729090       -19.8396
  35   1.0000      -0.702498       -19.1159
  36   1.0000      -0.695645       -18.9295
  37   1.0000      -0.666825       -18.1452
  38   1.0000      -0.641953       -17.4684
  39   1.0000      -0.630833       -17.1658
  40   1.0000      -0.614280       -16.7154
  41   1.0000      -0.611117       -16.6293
  42   1.0000      -0.598772       -16.2934
  43   1.0000      -0.590710       -16.0740
  44   1.0000      -0.580409       -15.7937
  45   1.0000      -0.569870       -15.5070
  46   1.0000      -0.564912       -15.3721
  47   1.0000      -0.563034       -15.3209
  48   1.0000      -0.555257       -15.1093
  49   1.0000      -0.552568       -15.0361
  50   1.0000      -0.546145       -14.8614
  51   1.0000      -0.542371       -14.7587
  52   1.0000      -0.535259       -14.5651
  53   1.0000      -0.513737       -13.9795
  54   1.0000      -0.504907       -13.7392
  55   1.0000      -0.481288       -13.0965
  56   1.0000      -0.453271       -12.3341
  57   1.0000      -0.428562       -11.6618
  58   1.0000      -0.419805       -11.4235
  59   1.0000      -0.409804       -11.1513
  60   1.0000      -0.405006       -11.0208
  61   1.0000      -0.400151       -10.8887
  62   1.0000      -0.394760       -10.7420
  63   1.0000      -0.390651       -10.6301
  64   1.0000      -0.381559       -10.3828
  65   1.0000      -0.369302       -10.0492
  66   1.0000      -0.296699        -8.0736
  67   0.0000       0.009140         0.2487
  68   0.0000       0.029527         0.8035
  69   0.0000       0.031875         0.8674
  70   0.0000       0.036678         0.9981
  71   0.0000       0.045862         1.2480

                 SPIN DOWN ORBITALS
  NO   OCC          E(Eh)            E(eV)
   0   1.0000     -19.338863      -526.2372
   1   1.0000     -19.328395      -525.9524
   2   1.0000     -19.321700      -525.7702
   3   1.0000     -19.320467      -525.7366
   4   1.0000     -14.568453      -396.4278
   5   1.0000     -14.567245      -396.3949
   6   1.0000     -14.566582      -396.3769
   7   1.0000     -14.563796      -396.3010
   8   1.0000     -10.510729      -286.0115
   9   1.0000     -10.508184      -285.9422
  10   1.0000     -10.493635      -285.5463
  11   1.0000     -10.481206      -285.2081
  12   1.0000     -10.436682      -283.9966
  13   1.0000     -10.434330      -283.9325
  14   1.0000     -10.416974      -283.4603
  15   1.0000     -10.373398      -282.2745
  16   1.0000     -10.369475      -282.1677
  17   1.0000     -10.367448      -282.1126
  18   1.0000      -1.227443       -33.4004
  19   1.0000      -1.219103       -33.1735
  20   1.0000      -1.204914       -32.7874
  21   1.0000      -1.191035       -32.4097
  22   1.0000      -1.130015       -30.7493
  23   1.0000      -1.089827       -29.6557
  24   1.0000      -1.073702       -29.2169
  25   1.0000      -1.062772       -28.9195
  26   1.0000      -1.014646       -27.6099
  27   1.0000      -0.908928       -24.7332
  28   1.0000      -0.880827       -23.9685
  29   1.0000      -0.822714       -22.3872
  30   1.0000      -0.815055       -22.1788
  31   1.0000      -0.804742       -21.8981
  32   1.0000      -0.788751       -21.4630
  33   1.0000      -0.769655       -20.9434
  34   1.0000      -0.724174       -19.7058
  35   1.0000      -0.700491       -19.0613
  36   1.0000      -0.687089       -18.6966
  37   1.0000      -0.666014       -18.1232
  38   1.0000      -0.635152       -17.2834
  39   1.0000      -0.626790       -17.0558
  40   1.0000      -0.611968       -16.6525
  41   1.0000      -0.607425       -16.5289
  42   1.0000      -0.589432       -16.0393
  43   1.0000      -0.580785       -15.8040
  44   1.0000      -0.576777       -15.6949
  45   1.0000      -0.563726       -15.3398
  46   1.0000      -0.560494       -15.2518
  47   1.0000      -0.555008       -15.1025
  48   1.0000      -0.551661       -15.0115
  49   1.0000      -0.550239       -14.9728
  50   1.0000      -0.541079       -14.7235
  51   1.0000      -0.531002       -14.4493
  52   1.0000      -0.526828       -14.3357
  53   1.0000      -0.511992       -13.9320
  54   1.0000      -0.493069       -13.4171
  55   1.0000      -0.480052       -13.0629
  56   1.0000      -0.445056       -12.1106
  57   1.0000      -0.422091       -11.4857
  58   1.0000      -0.418502       -11.3880
  59   1.0000      -0.406213       -11.0536
  60   1.0000      -0.400498       -10.8981
  61   1.0000      -0.392836       -10.6896
  62   1.0000      -0.388763       -10.5788
  63   1.0000      -0.381516       -10.3816
  64   1.0000      -0.368395       -10.0245
  65   0.0000      -0.051302        -1.3960
  66   0.0000       0.008720         0.2373
  67   0.0000       0.026541         0.7222
  68   0.0000       0.031524         0.8578
  69   0.0000       0.036079         0.9818

----------------------------------------------------------------------------------------------------
          SPIN FLIP ABSORPTION SPECTRUM VIA TRANSITION ELECTRIC DIPOLE MOMENTS
----------------------------------------------------------------------------------------------------
     Transition      Energy     Energy  Wavelength fosc(D2)      D2        DX        DY        DZ
                      (eV)      (cm-1)    (nm)                 (au**2)    (au)      (au)      (au)
----------------------------------------------------------------------------------------------------
  1-3A  ->  2-3A    2.027996   16356.9   611.4   0.000276148   0.00556  -0.01963  -0.04392   0.05695

Dispersion correction             ... done (  0.1 sec)

MULLIKEN ATOMIC CHARGES AND SPIN DENSITIES
------------------------------------------
   0 O :   -0.617708   -0.000969
   1 O :   -0.638875   -0.032432
   2 O :   -0.650235   -0.000075
   3 O :   -0.664702   -0.000343
   4 N :   -0.127634    0.000425
   5 N :   -0.097950    0.001951
   6 N :    0.013118    0.000981
   7 N :    0.053329   -0.005829
   8 C :    1.828153   -0.099400
   9 C :    0.427502    0.109853
  10 C :   -0.423452   -0.021038
  11 C :   -0.711124   -0.004898
  12 C :   -1.590510    0.052676
  13 C :   -1.256668    0.122464
  14 C :   -0.027143   -0.002647
  15 C :    0.344091   -0.108977
  16 C :    0.451483    0.001868
  17 C :    0.572715    0.001987
  18 H :    0.239294    0.002780
  19 H :    0.454958    0.006813
  20 H :    0.374091   -0.025196
  21 H :    0.332211    0.001499
  22 H :    0.452121   -0.014415
  23 H :    0.350462   -0.003328
  24 H :    0.301100    0.021851
  25 H :    0.421454   -0.011118
  26 H :    0.038028   -0.000155
  27 H :    0.085775   -0.000410
  28 H :    0.038291   -0.000305
  29 H :    0.027822    0.006387
Sum of atomic charges       :    0.0000000

LOEWDIN ATOMIC CHARGES AND SPIN DENSITIES
-----------------------------------------
   0 O :    0.127729   -0.002404
   1 O :    0.097428   -0.034798
   2 O :    0.096716   -0.000012
   3 O :    0.095881   -0.000327
   4 N :    0.290810    0.000063
   5 N :    0.292411    0.000135
   6 N :    0.343623   -0.000030
   7 N :    0.335566   -0.000145
   8 C :   -0.232709   -0.000089
   9 C :    0.164290    0.056286
  10 C :   -0.044144    0.000344
  11 C :   -0.081541    0.000462
  12 C :    0.183974   -0.007183
  13 C :    0.118745    0.002338
  14 C :   -0.370669   -0.000373
  15 C :   -0.507341   -0.009440
  16 C :   -0.475722    0.000002
  17 C :   -0.474413   -0.000251
  18 H :    0.055729   -0.000001
  19 H :    0.028912    0.000109
  20 H :   -0.017311   -0.003376
  21 H :    0.002791   -0.000305
  22 H :    0.010075   -0.001350
  23 H :    0.006158    0.000495
  24 H :   -0.012159   -0.000040
  25 H :    0.024862   -0.000048
  26 H :   -0.024213   -0.000013
  27 H :   -0.025935   -0.000034
  28 H :   -0.004345    0.000002
  29 H :   -0.005194   -0.000016

  Mayer bond orders larger than 0.100000
B(  0-O ,  8-C ) :  -0.1811 B(  0-O , 14-C ) :   1.6579 B(  1-O ,  9-C ) :   0.2860
B(  1-O , 15-C ) :   1.1624 B(  2-O , 16-C ) :   1.5687 B(  3-O , 17-C ) :   1.4696
B(  4-N ,  8-C ) :   0.1009 B(  4-N , 10-C ) :   0.6491 B(  4-N , 11-C ) :  -0.1202
B(  4-N , 16-C ) :   1.1005 B(  4-N , 26-H ) :   1.1224 B(  5-N , 10-C ) :  -0.1061
B(  5-N , 11-C ) :   0.7512 B(  5-N , 17-C ) :   0.9330 B(  5-N , 19-H ) :  -0.1213
B(  5-N , 27-H ) :   1.0710 B(  6-N , 14-C ) :   1.0408 B(  6-N , 16-C ) :   0.9414
B(  6-N , 28-H ) :   1.1060 B(  7-N , 15-C ) :   0.9591 B(  7-N , 17-C ) :   0.9848
B(  7-N , 29-H ) :   1.1132 B(  8-C ,  9-C ) :   0.2771 B(  8-C , 10-C ) :   0.4968
B(  8-C , 11-C ) :  -0.1496 B(  8-C , 12-C ) :   0.2536 B(  8-C , 14-C ) :   0.1231
B(  8-C , 21-H ) :  -0.1016 B(  9-C , 11-C ) :  -0.1640 B(  9-C , 12-C ) :  -0.2295
B(  9-C , 13-C ) :   0.4441 B(  9-C , 15-C ) :   0.9725 B(  9-C , 20-H ) :  -0.1438
B( 10-C , 11-C ) :   0.5966 B( 10-C , 16-C ) :  -0.1070 B( 10-C , 18-H ) :   1.1768
B( 11-C , 19-H ) :   1.0579 B( 12-C , 14-C ) :   0.1028 B( 12-C , 20-H ) :   0.9787
B( 12-C , 21-H ) :   1.0220 B( 12-C , 22-H ) :   0.7252 B( 13-C , 23-H ) :   0.9302
B( 13-C , 24-H ) :   1.0788 B( 13-C , 25-H ) :   0.8468 B( 15-C , 17-C ) :  -0.1390

Dispersion correction           -0.059786794
FINAL SINGLE POINT ENERGY      -908.732359583895

DIPOLE MOMENT
-------------

Method             : TDA/CIS
Type of density    : Electron Density
Level              : Relaxed density
State              :   1
Multiplicity       :   3
Irrep              :   0
Energy             :     0.0000000000000000 Eh
Relativity type    :
Basis              : AO
                                X                 Y                 Z
Electronic contribution:     -1.393971870      -9.916901291      -7.427635316
Nuclear contribution   :      1.136844406      10.951971229      10.161941241
                        -----------------------------------------
Total Dipole Moment    :     -0.257127464       1.035069938       2.734305926
                        -----------------------------------------
Magnitude (a.u.)       :      2.934946883
Magnitude (Debye)      :      7.460042117

Rotational constants in cm-1:             0.022277             0.013884             0.012065
Rotational constants in MHz :           667.856169           416.242673           361.712153

                             ****ORCA TERMINATED NORMALLY****
TOTAL RUN TIME: 0 days 0 hours 6 minutes 4 seconds 296 msec
