                         Program Version 6.0.0  -   RELEASE  -
|  1> ! Engrad def2-TZVPPD wB97M-D3BJ
|  2> %pal nprocs 8 end%pal nprocs 64 end
|  3>  %tddft nroots 2 Iroot 2
|  4> sf true
|  5> end
|  6> *xyz 0 3
|  7> O   3.87234133855516 0.43776046373873 0.43161817584358
|  8> O   -1.51976252080375 0.77901293788169 -2.5501958685639
|  9> O   1.19395771674454 -2.64234040561048 -1.54850381341769
| 10> O   -3.78327703238106 -0.66753665966597 1.02779292542027
| 11> N   0.2958199063531 -1.359844330105 0.08925660357331
| 12> N   -1.90662729190011 0.57678285737836 1.39921535784273
| 13> N   2.52862185764239 -1.13456895471543 -0.49795807522351
| 14> N   -2.36640610836825 -0.276308877241 -0.71466541960938
| 15> C   1.66968068473893 0.27408673570837 1.25381283492987
| 16> C   -0.68846404875136 1.40080792668487 -0.41341625210606
| 17> C   0.37411581917996 -0.40183776147317 1.15631405140804
| 18> C   -0.49343472622599 0.80941137207234 0.97287352926934
| 19> C   1.97849098461074 1.20898910797109 2.35861620005463
| 20> C   -0.5663406511439 2.85431098763919 -0.63646452277142
| 21> C   2.77757419369977 -0.09690136381577 0.38580117946673
| 22> C   -1.50585109211793 0.62460110975334 -1.34970626276012
| 23> C   1.32011983978063 -1.77931624933122 -0.71033975330314
| 24> C   -2.76281772542884 -0.15916483325653 0.62418929383312
| 25> H   0.12594584460347 -0.88249877745015 2.11406668482099
| 26> H   -0.15019125533003 1.60587731247007 1.61853256701908
| 27> H   1.91128991344128 2.25448229701322 2.03778304595787
| 28> H   1.3055596009397 1.0745480998209 3.20436742678111
| 29> H   3.00946945873927 1.06494800685488 2.67400971779369
| 30> H   -1.45163458227914 3.38137840090805 -0.25551281276412
| 31> H   0.3048046418544 3.26850487683919 -0.13269271235861
| 32> H   -0.51435907568197 3.05662657974565 -1.7039697339536
| 33> H   -0.56845607851804 -1.84570865149523 -0.06657701547133
| 34> H   -2.18504131984426 0.63419172988141 2.36462764084307
| 35> H   3.27699387414095 -1.39697049387645 -1.11826801008806
| 36> H   -3.02952216624965 -0.74832344432497 -1.31000698246656
| 37> *
| 38>
| 39>                          ****END OF INPUT****

CARTESIAN COORDINATES (ANGSTROEM)
---------------------------------
  O      3.872341    0.437760    0.431618
  O     -1.519763    0.779013   -2.550196
  O      1.193958   -2.642340   -1.548504
  O     -3.783277   -0.667537    1.027793
  N      0.295820   -1.359844    0.089257
  N     -1.906627    0.576783    1.399215
  N      2.528622   -1.134569   -0.497958
  N     -2.366406   -0.276309   -0.714665
  C      1.669681    0.274087    1.253813
  C     -0.688464    1.400808   -0.413416
  C      0.374116   -0.401838    1.156314
  C     -0.493435    0.809411    0.972874
  C      1.978491    1.208989    2.358616
  C     -0.566341    2.854311   -0.636465
  C      2.777574   -0.096901    0.385801
  C     -1.505851    0.624601   -1.349706
  C      1.320120   -1.779316   -0.710340
  C     -2.762818   -0.159165    0.624189
  H      0.125946   -0.882499    2.114067
  H     -0.150191    1.605877    1.618533
  H      1.911290    2.254482    2.037783
  H      1.305560    1.074548    3.204367
  H      3.009469    1.064948    2.674010
  H     -1.451635    3.381378   -0.255513
  H      0.304805    3.268505   -0.132693
  H     -0.514359    3.056627   -1.703970
  H     -0.568456   -1.845709   -0.066577
  H     -2.185041    0.634192    2.364628
  H      3.276994   -1.396970   -1.118268
  H     -3.029522   -0.748323   -1.310007

 Total Charge           Charge          ....    0
 Multiplicity           Mult            ....    3
 Number of Electrons    NEL             ....  132
 Basis Dimension        Dim             ....  882

ORBITAL ENERGIES
----------------
                 SPIN UP ORBITALS
  NO   OCC          E(Eh)            E(eV)
   0   1.0000     -19.339277      -526.2485
   1   1.0000     -19.333129      -526.0812
   2   1.0000     -19.326117      -525.8904
   3   1.0000     -19.315594      -525.6040
   4   1.0000     -14.564890      -396.3308
   5   1.0000     -14.563889      -396.3036
   6   1.0000     -14.562805      -396.2741
   7   1.0000     -14.558472      -396.1562
   8   1.0000     -10.508861      -285.9606
   9   1.0000     -10.504012      -285.8287
  10   1.0000     -10.484841      -285.3070
  11   1.0000     -10.482167      -285.2343
  12   1.0000     -10.445470      -284.2357
  13   1.0000     -10.443551      -284.1835
  14   1.0000     -10.420037      -283.5436
  15   1.0000     -10.418716      -283.5077
  16   1.0000     -10.381493      -282.4948
  17   1.0000     -10.375405      -282.3291
  18   1.0000      -1.224568       -33.3222
  19   1.0000      -1.218399       -33.1543
  20   1.0000      -1.202492       -32.7215
  21   1.0000      -1.195909       -32.5423
  22   1.0000      -1.123022       -30.5590
  23   1.0000      -1.100404       -29.9435
  24   1.0000      -1.067596       -29.0508
  25   1.0000      -1.059505       -28.8306
  26   1.0000      -0.994808       -27.0701
  27   1.0000      -0.960181       -26.1279
  28   1.0000      -0.897717       -24.4281
  29   1.0000      -0.847625       -23.0650
  30   1.0000      -0.828919       -22.5560
  31   1.0000      -0.804265       -21.8852
  32   1.0000      -0.787545       -21.4302
  33   1.0000      -0.783414       -21.3178
  34   1.0000      -0.707255       -19.2454
  35   1.0000      -0.697987       -18.9932
  36   1.0000      -0.696243       -18.9457
  37   1.0000      -0.683431       -18.5971
  38   1.0000      -0.656229       -17.8569
  39   1.0000      -0.636291       -17.3144
  40   1.0000      -0.627103       -17.0643
  41   1.0000      -0.604977       -16.4623
  42   1.0000      -0.599417       -16.3110
  43   1.0000      -0.591298       -16.0900
  44   1.0000      -0.582552       -15.8520
  45   1.0000      -0.574689       -15.6381
  46   1.0000      -0.569125       -15.4867
  47   1.0000      -0.565709       -15.3937
  48   1.0000      -0.561458       -15.2780
  49   1.0000      -0.556732       -15.1494
  50   1.0000      -0.550739       -14.9864
  51   1.0000      -0.543532       -14.7903
  52   1.0000      -0.534882       -14.5549
  53   1.0000      -0.524123       -14.2621
  54   1.0000      -0.519024       -14.1234
  55   1.0000      -0.511471       -13.9178
  56   1.0000      -0.500719       -13.6253
  57   1.0000      -0.427596       -11.6355
  58   1.0000      -0.423341       -11.5197
  59   1.0000      -0.409959       -11.1556
  60   1.0000      -0.405704       -11.0398
  61   1.0000      -0.402220       -10.9450
  62   1.0000      -0.394405       -10.7323
  63   1.0000      -0.390055       -10.6139
  64   1.0000      -0.384945       -10.4749
  65   1.0000      -0.343711        -9.3529
  66   1.0000      -0.336796        -9.1647
  67   0.0000       0.008933         0.2431
  68   0.0000       0.028713         0.7813
  69   0.0000       0.030997         0.8435
  70   0.0000       0.033193         0.9032
  71   0.0000       0.050987         1.3874

                 SPIN DOWN ORBITALS
  NO   OCC          E(Eh)            E(eV)
   0   1.0000     -19.335763      -526.1528
   1   1.0000     -19.329312      -525.9773
   2   1.0000     -19.325793      -525.8816
   3   1.0000     -19.315598      -525.6041
   4   1.0000     -14.564764      -396.3274
   5   1.0000     -14.562498      -396.2657
   6   1.0000     -14.561998      -396.2521
   7   1.0000     -14.558423      -396.1548
   8   1.0000     -10.508874      -285.9610
   9   1.0000     -10.504062      -285.8301
  10   1.0000     -10.485807      -285.3333
  11   1.0000     -10.483085      -285.2592
  12   1.0000     -10.444953      -284.2216
  13   1.0000     -10.443887      -284.1926
  14   1.0000     -10.408637      -283.2334
  15   1.0000     -10.406455      -283.1740
  16   1.0000     -10.382091      -282.5110
  17   1.0000     -10.375995      -282.3452
  18   1.0000      -1.222735       -33.2723
  19   1.0000      -1.216612       -33.1057
  20   1.0000      -1.198336       -32.6084
  21   1.0000      -1.191758       -32.4294
  22   1.0000      -1.119814       -30.4717
  23   1.0000      -1.098075       -29.8801
  24   1.0000      -1.065654       -28.9979
  25   1.0000      -1.057749       -28.7828
  26   1.0000      -0.983300       -26.7570
  27   1.0000      -0.942918       -25.6581
  28   1.0000      -0.891542       -24.2601
  29   1.0000      -0.841768       -22.9057
  30   1.0000      -0.820343       -22.3227
  31   1.0000      -0.799683       -21.7605
  32   1.0000      -0.785925       -21.3861
  33   1.0000      -0.781513       -21.2660
  34   1.0000      -0.703215       -19.1355
  35   1.0000      -0.691163       -18.8075
  36   1.0000      -0.687777       -18.7154
  37   1.0000      -0.674741       -18.3606
  38   1.0000      -0.645203       -17.5569
  39   1.0000      -0.630686       -17.1618
  40   1.0000      -0.624857       -17.0032
  41   1.0000      -0.598744       -16.2926
  42   1.0000      -0.593200       -16.1418
  43   1.0000      -0.585843       -15.9416
  44   1.0000      -0.575633       -15.6638
  45   1.0000      -0.568989       -15.4830
  46   1.0000      -0.563211       -15.3257
  47   1.0000      -0.561164       -15.2701
  48   1.0000      -0.554070       -15.0770
  49   1.0000      -0.548176       -14.9166
  50   1.0000      -0.542049       -14.7499
  51   1.0000      -0.536157       -14.5896
  52   1.0000      -0.529633       -14.4120
  53   1.0000      -0.515069       -14.0157
  54   1.0000      -0.513595       -13.9756
  55   1.0000      -0.504891       -13.7388
  56   1.0000      -0.493936       -13.4407
  57   1.0000      -0.423810       -11.5324
  58   1.0000      -0.418658       -11.3923
  59   1.0000      -0.404458       -11.0058
  60   1.0000      -0.394900       -10.7458
  61   1.0000      -0.391870       -10.6633
  62   1.0000      -0.389958       -10.6113
  63   1.0000      -0.386543       -10.5184
  64   1.0000      -0.379545       -10.3280
  65   0.0000      -0.061263        -1.6671
  66   0.0000      -0.046751        -1.2721
  67   0.0000       0.008315         0.2263
  68   0.0000       0.028358         0.7717
  69   0.0000       0.030990         0.8433

----------------------------------------------------------------------------------------------------
          SPIN FLIP ABSORPTION SPECTRUM VIA TRANSITION ELECTRIC DIPOLE MOMENTS
----------------------------------------------------------------------------------------------------
     Transition      Energy     Energy  Wavelength fosc(D2)      D2        DX        DY        DZ
                      (eV)      (cm-1)    (nm)                 (au**2)    (au)      (au)      (au)
----------------------------------------------------------------------------------------------------
  1-3A  ->  2-3A    0.102505     826.8  12095.4   0.000000044   0.00002   0.00153  -0.00385  -0.00073

Dispersion correction             ... done (  0.1 sec)

MULLIKEN ATOMIC CHARGES AND SPIN DENSITIES
------------------------------------------
   0 O :   -0.672163    0.141771
   1 O :   -0.646742   -0.130184
   2 O :   -0.658059    0.000957
   3 O :   -0.650917   -0.006691
   4 N :   -0.159343   -0.043775
   5 N :   -0.281911   -0.021607
   6 N :   -0.049133    0.038103
   7 N :   -0.027112   -0.002534
   8 C :   -0.204420    0.371415
   9 C :    1.226534    0.223812
  10 C :    0.960890    0.264808
  11 C :   -0.257071   -0.553839
  12 C :   -1.855712   -0.030158
  13 C :   -1.429420    0.003883
  14 C :    0.718869    0.158970
  15 C :   -0.205522   -0.410193
  16 C :    0.476542   -0.019233
  17 C :    0.375994    0.015819
  18 H :    0.363803    0.036305
  19 H :    0.618944   -0.051674
  20 H :    0.328799    0.029470
  21 H :    0.357030    0.003781
  22 H :    0.397841    0.017262
  23 H :    0.367401   -0.012780
  24 H :    0.341830    0.013556
  25 H :    0.347806   -0.018350
  26 H :    0.050584   -0.013554
  27 H :    0.063694   -0.002080
  28 H :    0.033438   -0.004150
  29 H :    0.067525    0.000885
Sum of atomic charges       :    0.0000000

LOEWDIN ATOMIC CHARGES AND SPIN DENSITIES
-----------------------------------------
   0 O :    0.088741    0.122250
   1 O :    0.103100   -0.119561
   2 O :    0.091892   -0.000488
   3 O :    0.089001   -0.006573
   4 N :    0.296596   -0.007934
   5 N :    0.295472   -0.031385
   6 N :    0.329650    0.029475
   7 N :    0.309817   -0.006560
   8 C :   -0.039150    0.491875
   9 C :    0.025464   -0.518523
  10 C :   -0.134202    0.063653
  11 C :   -0.126098   -0.019769
  12 C :    0.182329    0.071463
  13 C :    0.190991   -0.084404
  14 C :   -0.384466    0.079954
  15 C :   -0.421113   -0.077761
  16 C :   -0.471879   -0.000372
  17 C :   -0.489171   -0.001490
  18 H :    0.077648    0.021900
  19 H :    0.018932    0.002918
  20 H :    0.013421    0.024623
  21 H :    0.005999    0.004037
  22 H :    0.007136    0.009710
  23 H :    0.024592   -0.031041
  24 H :   -0.001424   -0.006813
  25 H :    0.005434   -0.006029
  26 H :   -0.035202   -0.000788
  27 H :   -0.030730   -0.004110
  28 H :   -0.010869    0.002676
  29 H :   -0.011913   -0.000933

  Mayer bond orders larger than 0.100000
B(  0-O ,  8-C ) :   0.1087 B(  0-O , 12-C ) :   0.1037 B(  0-O , 14-C ) :   1.2616
B(  1-O , 15-C ) :   1.4983 B(  2-O , 16-C ) :   1.5863 B(  3-O , 17-C ) :   1.5725
B(  4-N ,  8-C ) :   0.1703 B(  4-N , 10-C ) :   0.4689 B(  4-N , 11-C ) :   0.1316
B(  4-N , 16-C ) :   1.0414 B(  4-N , 26-H ) :   1.1442 B(  5-N ,  9-C ) :   0.2851
B(  5-N , 10-C ) :   0.1722 B(  5-N , 17-C ) :   1.2429 B(  5-N , 19-H ) :  -0.1066
B(  5-N , 27-H ) :   1.0661 B(  6-N , 14-C ) :   0.9906 B(  6-N , 16-C ) :   0.9261
B(  6-N , 28-H ) :   1.1194 B(  7-N , 15-C ) :   0.9589 B(  7-N , 17-C ) :   0.9745
B(  7-N , 29-H ) :   1.0656 B(  8-C ,  9-C ) :  -0.1140 B(  8-C , 10-C ) :  -0.6817
B(  8-C , 11-C ) :   0.8711 B(  8-C , 12-C ) :   0.1646 B(  8-C , 14-C ) :   0.8147
B(  8-C , 18-H ) :  -0.2416 B(  8-C , 21-H ) :  -0.1662 B(  9-C , 10-C ) :   0.2801
B(  9-C , 11-C ) :   0.2382 B(  9-C , 13-C ) :   0.4059 B(  9-C , 15-C ) :   0.3600
B( 10-C , 12-C ) :  -0.4101 B( 10-C , 16-C ) :  -0.1189 B( 10-C , 18-H ) :   1.1378
B( 11-C , 12-C ) :   0.2056 B( 11-C , 17-C ) :  -0.2031 B( 11-C , 18-H ) :  -0.1600
B( 11-C , 19-H ) :   0.6623 B( 12-C , 14-C ) :  -0.1371 B( 12-C , 19-H ) :  -0.1087
B( 12-C , 20-H ) :   0.9331 B( 12-C , 21-H ) :   1.0668 B( 12-C , 22-H ) :   0.8632
B( 13-C , 23-H ) :   0.8459 B( 13-C , 24-H ) :   0.9453 B( 13-C , 25-H ) :   0.9831

Dispersion correction           -0.057227918
FINAL SINGLE POINT ENERGY      -908.784429512221

DIPOLE MOMENT
-------------

Method             : TDA/CIS
Type of density    : Electron Density
Level              : Relaxed density
State              :   2
Multiplicity       :   3
Irrep              :   0
Energy             :     0.0000000000000000 Eh
Relativity type    :
Basis              : AO
                                X                 Y                 Z
Electronic contribution:     -1.769592282      -9.075144279      -5.983014047
Nuclear contribution   :      1.752229854      10.525700015       8.137133985
                        -----------------------------------------
Total Dipole Moment    :     -0.017362427       1.450555736       2.154119938
                        -----------------------------------------
Magnitude (a.u.)       :      2.597045649
Magnitude (Debye)      :      6.601165436

Rotational constants in cm-1:             0.021081             0.011590             0.010424
Rotational constants in MHz :           632.005968           347.445766           312.512956

                             ****ORCA TERMINATED NORMALLY****
TOTAL RUN TIME: 0 days 0 hours 4 minutes 27 seconds 34 msec
