                         Program Version 6.0.0  -   RELEASE  -
|  1> ! Engrad def2-TZVPPD wB97M-D3BJ
|  2> %pal nprocs 8 end%pal nprocs 64 end
|  3> %tddft Nroots 2 Iroot 2
|  4> sf true
|  5> end
|  6> *xyz 0 3
|  7> O   2.14090087 0.14114828 -1.17926309
|  8> O   -0.48497831 2.47578354 -2.46966865
|  9> O   0.44903212 -3.70329081 0.45099941
| 10> O   -2.41237814 -1.25839569 -1.08921818
| 11> N   0.44621578 -1.89303456 1.82793587
| 12> N   -1.46748779 -0.18074403 0.6419616
| 13> N   1.11397174 -1.68648824 -0.38460063
| 14> N   -1.05711835 0.45292043 -1.61819191
| 15> C   1.06133547 0.37293556 0.93953984
| 16> C   -0.06826049 2.36286047 -0.32109022
| 17> C   0.55998528 -0.49968527 2.0541782
| 18> C   -0.39856984 0.43170723 1.36209817
| 19> C   2.01954195 1.46360421 1.34607101
| 20> C   -0.95320269 3.30220473 0.34954627
| 21> C   1.48117961 -0.36856186 -0.30284837
| 22> C   -0.56052837 1.74524073 -1.51563012
| 23> C   0.63727087 -2.51888846 0.63713994
| 24> C   -1.67905513 -0.38320662 -0.69575859
| 25> H   0.89216911 -0.24141016 3.05974259
| 26> H   -0.6430646 1.33044496 1.91647954
| 27> H   2.33593635 2.05117076 0.4813655
| 28> H   1.57029383 2.0975119 2.10699612
| 29> H   2.90517251 0.98934284 1.79641633
| 30> H   -1.96739767 2.89844765 0.54938928
| 31> H   -0.56946639 3.7142623 1.28780356
| 32> H   -1.0637548 4.12588968 -0.35290956
| 33> H   0.08194453 -2.49429047 2.5568675
| 34> H   -1.97477666 -0.8828415 1.17149984
| 35> H   1.36241328 -2.19027016 -1.22646059
| 36> H   -1.27359159 0.18503347 -2.55676527
| 37> *
| 38>
| 39>                          ****END OF INPUT****

CARTESIAN COORDINATES (ANGSTROEM)
---------------------------------
  O      2.140901    0.141148   -1.179263
  O     -0.484978    2.475784   -2.469669
  O      0.449032   -3.703291    0.450999
  O     -2.412378   -1.258396   -1.089218
  N      0.446216   -1.893035    1.827936
  N     -1.467488   -0.180744    0.641962
  N      1.113972   -1.686488   -0.384601
  N     -1.057118    0.452920   -1.618192
  C      1.061335    0.372936    0.939540
  C     -0.068260    2.362860   -0.321090
  C      0.559985   -0.499685    2.054178
  C     -0.398570    0.431707    1.362098
  C      2.019542    1.463604    1.346071
  C     -0.953203    3.302205    0.349546
  C      1.481180   -0.368562   -0.302848
  C     -0.560528    1.745241   -1.515630
  C      0.637271   -2.518888    0.637140
  C     -1.679055   -0.383207   -0.695759
  H      0.892169   -0.241410    3.059743
  H     -0.643065    1.330445    1.916480
  H      2.335936    2.051171    0.481366
  H      1.570294    2.097512    2.106996
  H      2.905173    0.989343    1.796416
  H     -1.967398    2.898448    0.549389
  H     -0.569466    3.714262    1.287804
  H     -1.063755    4.125890   -0.352910
  H      0.081945   -2.494290    2.556867
  H     -1.974777   -0.882841    1.171500
  H      1.362413   -2.190270   -1.226461
  H     -1.273592    0.185033   -2.556765

 Total Charge           Charge          ....    0
 Multiplicity           Mult            ....    3
 Number of Electrons    NEL             ....  132
 Basis Dimension        Dim             ....  882

ORBITAL ENERGIES
----------------
                 SPIN UP ORBITALS
  NO   OCC          E(Eh)            E(eV)
   0   1.0000     -19.335837      -526.1549
   1   1.0000     -19.334697      -526.1238
   2   1.0000     -19.321283      -525.7588
   3   1.0000     -19.319651      -525.7144
   4   1.0000     -14.569107      -396.4455
   5   1.0000     -14.569047      -396.4439
   6   1.0000     -14.564277      -396.3141
   7   1.0000     -14.562685      -396.2708
   8   1.0000     -10.509364      -285.9743
   9   1.0000     -10.508717      -285.9567
  10   1.0000     -10.492155      -285.5060
  11   1.0000     -10.480166      -285.1798
  12   1.0000     -10.438285      -284.0402
  13   1.0000     -10.436882      -284.0020
  14   1.0000     -10.417347      -283.4704
  15   1.0000     -10.393263      -282.8151
  16   1.0000     -10.373414      -282.2749
  17   1.0000     -10.371265      -282.2165
  18   1.0000      -1.226969       -33.3875
  19   1.0000      -1.221275       -33.2326
  20   1.0000      -1.206732       -32.8368
  21   1.0000      -1.201105       -32.6837
  22   1.0000      -1.131194       -30.7814
  23   1.0000      -1.090142       -29.6643
  24   1.0000      -1.073454       -29.2102
  25   1.0000      -1.063246       -28.9324
  26   1.0000      -1.016410       -27.6579
  27   1.0000      -0.938411       -25.5355
  28   1.0000      -0.882123       -24.0038
  29   1.0000      -0.823056       -22.3965
  30   1.0000      -0.818743       -22.2791
  31   1.0000      -0.810626       -22.0583
  32   1.0000      -0.791721       -21.5438
  33   1.0000      -0.772707       -21.0264
  34   1.0000      -0.729297       -19.8452
  35   1.0000      -0.702708       -19.1217
  36   1.0000      -0.694191       -18.8899
  37   1.0000      -0.666488       -18.1361
  38   1.0000      -0.641468       -17.4552
  39   1.0000      -0.629901       -17.1405
  40   1.0000      -0.613760       -16.7013
  41   1.0000      -0.609577       -16.5874
  42   1.0000      -0.599257       -16.3066
  43   1.0000      -0.591117       -16.0851
  44   1.0000      -0.579099       -15.7581
  45   1.0000      -0.567997       -15.4560
  46   1.0000      -0.564619       -15.3641
  47   1.0000      -0.561678       -15.2840
  48   1.0000      -0.557488       -15.1700
  49   1.0000      -0.552179       -15.0255
  50   1.0000      -0.546616       -14.8742
  51   1.0000      -0.544492       -14.8164
  52   1.0000      -0.534590       -14.5469
  53   1.0000      -0.514664       -14.0047
  54   1.0000      -0.508027       -13.8241
  55   1.0000      -0.482029       -13.1167
  56   1.0000      -0.451576       -12.2880
  57   1.0000      -0.429762       -11.6944
  58   1.0000      -0.418691       -11.3932
  59   1.0000      -0.409163       -11.1339
  60   1.0000      -0.402954       -10.9649
  61   1.0000      -0.400002       -10.8846
  62   1.0000      -0.393926       -10.7193
  63   1.0000      -0.389734       -10.6052
  64   1.0000      -0.375689       -10.2230
  65   1.0000      -0.369866       -10.0646
  66   1.0000      -0.299661        -8.1542
  67   0.0000       0.008558         0.2329
  68   0.0000       0.029351         0.7987
  69   0.0000       0.032091         0.8732
  70   0.0000       0.037062         1.0085
  71   0.0000       0.046234         1.2581

                 SPIN DOWN ORBITALS
  NO   OCC          E(Eh)            E(eV)
   0   1.0000     -19.335769      -526.1530
   1   1.0000     -19.329436      -525.9807
   2   1.0000     -19.321281      -525.7588
   3   1.0000     -19.319689      -525.7155
   4   1.0000     -14.569026      -396.4434
   5   1.0000     -14.569011      -396.4429
   6   1.0000     -14.564256      -396.3136
   7   1.0000     -14.562563      -396.2675
   8   1.0000     -10.509367      -285.9744
   9   1.0000     -10.508734      -285.9572
  10   1.0000     -10.492161      -285.5062
  11   1.0000     -10.480675      -285.1937
  12   1.0000     -10.437880      -284.0291
  13   1.0000     -10.436542      -283.9927
  14   1.0000     -10.416733      -283.4537
  15   1.0000     -10.373840      -282.2865
  16   1.0000     -10.370968      -282.2084
  17   1.0000     -10.365786      -282.0674
  18   1.0000      -1.226101       -33.3639
  19   1.0000      -1.219304       -33.1789
  20   1.0000      -1.201613       -32.6976
  21   1.0000      -1.199751       -32.6469
  22   1.0000      -1.130619       -30.7657
  23   1.0000      -1.089504       -29.6469
  24   1.0000      -1.072487       -29.1839
  25   1.0000      -1.062533       -28.9130
  26   1.0000      -1.015066       -27.6213
  27   1.0000      -0.909578       -24.7509
  28   1.0000      -0.880990       -23.9730
  29   1.0000      -0.822495       -22.3812
  30   1.0000      -0.815204       -22.1828
  31   1.0000      -0.803582       -21.8666
  32   1.0000      -0.788366       -21.4525
  33   1.0000      -0.767932       -20.8965
  34   1.0000      -0.724545       -19.7159
  35   1.0000      -0.700630       -19.0651
  36   1.0000      -0.685646       -18.6574
  37   1.0000      -0.665630       -18.1127
  38   1.0000      -0.634360       -17.2618
  39   1.0000      -0.625588       -17.0231
  40   1.0000      -0.611430       -16.6379
  41   1.0000      -0.606049       -16.4914
  42   1.0000      -0.588310       -16.0087
  43   1.0000      -0.582952       -15.8629
  44   1.0000      -0.575362       -15.6564
  45   1.0000      -0.562574       -15.3084
  46   1.0000      -0.560244       -15.2450
  47   1.0000      -0.552875       -15.0445
  48   1.0000      -0.551855       -15.0167
  49   1.0000      -0.548807       -14.9338
  50   1.0000      -0.539328       -14.6759
  51   1.0000      -0.533008       -14.5039
  52   1.0000      -0.530376       -14.4323
  53   1.0000      -0.512388       -13.9428
  54   1.0000      -0.498002       -13.5513
  55   1.0000      -0.480944       -13.0872
  56   1.0000      -0.442736       -12.0475
  57   1.0000      -0.421915       -11.4809
  58   1.0000      -0.417857       -11.3705
  59   1.0000      -0.405827       -11.0431
  60   1.0000      -0.399808       -10.8793
  61   1.0000      -0.392300       -10.6750
  62   1.0000      -0.388396       -10.5688
  63   1.0000      -0.382721       -10.4144
  64   1.0000      -0.369399       -10.0518
  65   0.0000      -0.046536        -1.2663
  66   0.0000       0.008068         0.2196
  67   0.0000       0.025400         0.6912
  68   0.0000       0.031549         0.8585
  69   0.0000       0.035859         0.9758

----------------------------------------------------------------------------------------------------
          SPIN FLIP ABSORPTION SPECTRUM VIA TRANSITION ELECTRIC DIPOLE MOMENTS
----------------------------------------------------------------------------------------------------
     Transition      Energy     Energy  Wavelength fosc(D2)      D2        DX        DY        DZ
                      (eV)      (cm-1)    (nm)                 (au**2)    (au)      (au)      (au)
----------------------------------------------------------------------------------------------------
  1-3A  ->  2-3A    1.788412   14424.5   693.3   0.000206022   0.00470   0.01322   0.02794  -0.06121

Dispersion correction             ... done (  0.1 sec)

MULLIKEN ATOMIC CHARGES AND SPIN DENSITIES
------------------------------------------
   0 O :   -0.645590   -0.000268
   1 O :   -0.563878   -0.005530
   2 O :   -0.658707   -0.000070
   3 O :   -0.665849   -0.000241
   4 N :   -0.128595   -0.000411
   5 N :   -0.130728   -0.001770
   6 N :    0.008740    0.000760
   7 N :    0.082525   -0.001855
   8 C :    1.828257   -0.030159
   9 C :    0.596240    0.187403
  10 C :   -0.463521    0.002761
  11 C :   -0.551212   -0.002042
  12 C :   -1.656061    0.002983
  13 C :   -1.372548    0.025068
  14 C :   -0.018220    0.001159
  15 C :    0.266135   -0.190622
  16 C :    0.451776    0.000558
  17 C :    0.577079    0.000096
  18 H :    0.237689    0.001901
  19 H :    0.394829    0.003330
  20 H :    0.346609    0.000462
  21 H :    0.345235   -0.002848
  22 H :    0.455604   -0.007575
  23 H :    0.341938    0.005847
  24 H :    0.296420   -0.001806
  25 H :    0.432525    0.008898
  26 H :    0.049081    0.000171
  27 H :    0.096442   -0.000319
  28 H :    0.047890   -0.000213
  29 H :   -0.000104    0.004333
Sum of atomic charges       :   -0.0000000

LOEWDIN ATOMIC CHARGES AND SPIN DENSITIES
-----------------------------------------
   0 O :    0.115441   -0.001200
   1 O :    0.131349   -0.012276
   2 O :    0.089483   -0.000021
   3 O :    0.096720   -0.000199
   4 N :    0.283201   -0.000086
   5 N :    0.290310   -0.000577
   6 N :    0.341285   -0.000105
   7 N :    0.337504   -0.001268
   8 C :   -0.238674   -0.000599
   9 C :    0.130478    0.040942
  10 C :   -0.054939   -0.000133
  11 C :   -0.089705   -0.000331
  12 C :    0.190929   -0.003673
  13 C :    0.101198   -0.004216
  14 C :   -0.376124   -0.000417
  15 C :   -0.479989   -0.009258
  16 C :   -0.469108   -0.000026
  17 C :   -0.481485   -0.000163
  18 H :    0.063368   -0.000028
  19 H :    0.029979   -0.000441
  20 H :   -0.001990   -0.001892
  21 H :    0.002322   -0.000189
  22 H :    0.020315   -0.000684
  23 H :    0.022828   -0.002055
  24 H :   -0.001112   -0.000876
  25 H :   -0.004090   -0.000010
  26 H :   -0.013148   -0.000011
  27 H :   -0.016489   -0.000044
  28 H :    0.001255   -0.000014
  29 H :   -0.021110   -0.000150

  Mayer bond orders larger than 0.100000
B(  0-O ,  8-C ) :  -0.1640 B(  0-O , 14-C ) :   1.5952 B(  1-O ,  9-C ) :  -0.1078
B(  1-O , 15-C ) :   1.4139 B(  2-O , 16-C ) :   1.5601 B(  3-O , 17-C ) :   1.4669
B(  4-N , 10-C ) :   0.6553 B(  4-N , 11-C ) :  -0.1194 B(  4-N , 16-C ) :   1.1100
B(  4-N , 26-H ) :   1.1157 B(  5-N , 11-C ) :   0.7834 B(  5-N , 17-C ) :   0.9483
B(  5-N , 19-H ) :  -0.1198 B(  5-N , 27-H ) :   1.0710 B(  6-N , 14-C ) :   1.0720
B(  6-N , 16-C ) :   0.9388 B(  6-N , 28-H ) :   1.0960 B(  7-N , 15-C ) :   0.9405
B(  7-N , 17-C ) :   0.9673 B(  7-N , 29-H ) :   1.1308 B(  8-C ,  9-C ) :   0.1091
B(  8-C , 10-C ) :   0.5059 B(  8-C , 14-C ) :   0.2071 B(  8-C , 20-H ) :  -0.1110
B(  8-C , 21-H ) :  -0.1284 B(  9-C , 13-C ) :   0.2451 B(  9-C , 15-C ) :   0.6982
B(  9-C , 24-H ) :  -0.1046 B( 10-C , 11-C ) :   0.6854 B( 10-C , 16-C ) :  -0.1048
B( 10-C , 18-H ) :   1.1591 B( 11-C , 14-C ) :  -0.1181 B( 11-C , 15-C ) :   0.1215
B( 11-C , 19-H ) :   1.1000 B( 12-C , 20-H ) :   0.9876 B( 12-C , 21-H ) :   1.0641
B( 12-C , 22-H ) :   0.7339 B( 13-C , 23-H ) :   0.8937 B( 13-C , 24-H ) :   1.0541
B( 13-C , 25-H ) :   0.8939 B( 15-C , 17-C ) :  -0.1205

Dispersion correction           -0.059735015
FINAL SINGLE POINT ENERGY      -908.664025478013

DIPOLE MOMENT
-------------

Method             : TDA/CIS
Type of density    : Electron Density
Level              : Relaxed density
State              :   2
Multiplicity       :   3
Irrep              :   0
Energy             :     0.0000000000000000 Eh
Relativity type    :
Basis              : AO
                                X                 Y                 Z
Electronic contribution:     -1.163368705      -9.832387293      -7.567914414
Nuclear contribution   :      1.163251375      10.868239885      10.282294429
                        -----------------------------------------
Total Dipole Moment    :     -0.000117331       1.035852593       2.714380015
                        -----------------------------------------
Magnitude (a.u.)       :      2.905314006
Magnitude (Debye)      :      7.384721330

Rotational constants in cm-1:             0.022283             0.013876             0.012071
Rotational constants in MHz :           668.029380           415.977905           361.876239

                             ****ORCA TERMINATED NORMALLY****
TOTAL RUN TIME: 0 days 0 hours 4 minutes 37 seconds 996 msec
