                         Program Version 6.0.0  -   RELEASE  -
|  1> ! opt def2-TZVPPD wB97M-D3BJ
|  2> %pal nprocs 8 end%pal nprocs 32 end
|  3> %geom Constraints
|  4> {B 9 8 3.6 C}
|  5> {A 8 9 11 79.71428571428571 C}
|  6>  end
|  7>  end
|  8> *xyz 0 1
|  9> O   2.98579685529314 0.88758230159078 -0.86184571092411
| 10> O   -0.03983205397054 0.68929041702508 -2.10362336723772
| 11> O   0.93431434349854 -3.13274393337945 -0.68767288184107
| 12> O   -3.75829998830163 -0.84727300865116 -0.0472717177755
| 13> N   0.21184538946282 -1.54604804365365 0.7617588924445
| 14> N   -2.13631993928911 0.03188773433438 1.27350571071531
| 15> N   2.02598672506387 -1.14318467211666 -0.64531219127023
| 16> N   -1.91814233924584 0.03137116037665 -1.04498946748291
| 17> C   1.18097737274226 0.71693507080484 0.70173889017321
| 18> C   -0.20686880480777 1.27024627933494 0.21345042231937
| 19> C   0.41441080275909 -0.34173258966541 1.52336266615173
| 20> C   -0.82922175114212 0.58960593673968 1.44434972027296
| 21> C   1.92822011286806 1.69488653817281 1.5963734975385
| 22> C   -0.37809776891576 2.77134929626422 0.04819649358288
| 23> C   2.1403947470937 0.1972384729179 -0.35038567829864
| 24> C   -0.67361678962426 0.6214190571346 -1.0793014500539
| 25> C   1.04142578622994 -2.02697492875068 -0.21027082435993
| 26> C   -2.68467002550422 -0.30396816036989 0.07167054343891
| 27> H   0.80817443950001 -0.54572267081061 2.51895215321335
| 28> H   -0.83785272399001 1.27240685039143 2.28901317073582
| 29> H   2.31167340578204 2.52284411740894 1.00913016264629
| 30> H   1.28982602448342 2.08257620823614 2.38710022492991
| 31> H   2.77390820759972 1.19140411795486 2.06045858523949
| 32> H   -1.41857211141493 3.00964947214868 -0.16882755561625
| 33> H   -0.09065531563179 3.29799318042223 0.95389844358819
| 34> H   0.23426221611057 3.12492645074476 -0.77764887675592
| 35> H   -0.46772570547622 -2.21560145172536 1.0787081584806
| 36> H   -2.71769301149571 -0.17090724573546 2.06627440900372
| 37> H   2.60065167263658 -1.49057255715425 -1.3966820077142
| 38> H   -2.27169977231386 -0.32388339999036 -1.91951041514436
| 39> *
| 40>
| 41>                          ****END OF INPUT****
 Total Charge           Charge          ....    0
 Multiplicity           Mult            ....    1
 Number of Electrons    NEL             ....  132
Dispersion correction           -0.050693430
FINAL SINGLE POINT ENERGY      -908.546321361699
Dispersion correction             ... done (  0.0 sec)
Dispersion correction           -0.051294555
FINAL SINGLE POINT ENERGY      -908.610934191145
Dispersion correction             ... done (  0.0 sec)
Dispersion correction           -0.051893325
FINAL SINGLE POINT ENERGY      -908.667984589979
Dispersion correction             ... done (  0.0 sec)
FINAL SINGLE POINT ENERGY      -908.740836685455
FINAL SINGLE POINT ENERGY      -908.809473725952
FINAL SINGLE POINT ENERGY      -908.849244281411
FINAL SINGLE POINT ENERGY      -908.872499654555
FINAL SINGLE POINT ENERGY      -908.897545976226
FINAL SINGLE POINT ENERGY      -908.912588335602
FINAL SINGLE POINT ENERGY      -908.919690515101
FINAL SINGLE POINT ENERGY      -908.935389753608
FINAL SINGLE POINT ENERGY      -908.935616075783
FINAL SINGLE POINT ENERGY      -908.935837512478
FINAL SINGLE POINT ENERGY      -908.936039619378
FINAL SINGLE POINT ENERGY      -908.936150221214
FINAL SINGLE POINT ENERGY      -908.936202031506
FINAL SINGLE POINT ENERGY      -908.936215349138
Dispersion correction             ... done (  0.0 sec)
Dispersion correction           -0.058115987
FINAL SINGLE POINT ENERGY      -908.936223743145
Dispersion correction             ... done (  0.0 sec)
Dispersion correction           -0.058112176
FINAL SINGLE POINT ENERGY      -908.936226764413
Dispersion correction             ... done (  0.0 sec)
                    ***********************HURRAY********************

CARTESIAN COORDINATES (ANGSTROEM)
---------------------------------
  O      2.503259    1.223035   -0.475209
  O     -0.665678    0.832496   -2.293629
  O      0.528892   -2.712751   -1.575461
  O     -2.380584   -1.595815    1.142578
  N      0.690518   -2.156733    0.625418
  N     -2.021005    0.632024    1.445014
  N      1.644743   -0.811759   -0.984771
  N     -1.594876   -0.338365   -0.593845
  C      1.578920   -0.049990    1.298930
  C     -0.979049    1.968572   -0.231496
  C      0.962230   -1.204988    1.579318
  C     -1.491683    1.823003    0.995002
  C      1.872502    1.008290    2.311788
  C     -0.345703    3.224322   -0.735464
  C      1.964143    0.207200   -0.089198
  C     -1.049887    0.826096   -1.145642
  C      0.928094   -1.957411   -0.716838
  C     -2.029966   -0.522136    0.697301
  H      0.631589   -1.453697    2.576393
  H     -1.498855    2.628285    1.713813
  H      1.392105    1.944398    2.030213
  H      1.519985    0.710770    3.296930
  H      2.940785    1.208402    2.366578
  H     -0.838589    3.565064   -1.643514
  H     -0.398095    4.010965    0.013837
  H      0.698744    3.039228   -0.980455
  H      0.061698   -2.912242    0.837763
  H     -2.344990    0.535354    2.389879
  H      1.772807   -0.600530   -1.963020
  H     -1.599453   -1.156088   -1.187613

 Multiplicity           Mult            ....    1
 Number of Electrons    NEL             ....  132
 Basis Dimension        Dim             ....  882

ORBITAL ENERGIES
----------------

  NO   OCC          E(Eh)            E(eV)
   0   2.0000     -19.328571      -525.9572
   1   2.0000     -19.323121      -525.8088
   2   2.0000     -19.319572      -525.7123
   3   2.0000     -19.319153      -525.7009
   4   2.0000     -14.584880      -396.8748
   5   2.0000     -14.574403      -396.5897
   6   2.0000     -14.570556      -396.4850
   7   2.0000     -14.562778      -396.2733
   8   2.0000     -10.515099      -286.1304
   9   2.0000     -10.505665      -285.8737
  10   2.0000     -10.478639      -285.1383
  11   2.0000     -10.474777      -285.0332
  12   2.0000     -10.431411      -283.8531
  13   2.0000     -10.428401      -283.7712
  14   2.0000     -10.379818      -282.4492
  15   2.0000     -10.377842      -282.3954
  16   2.0000     -10.359488      -281.8960
  17   2.0000     -10.348871      -281.6071
  18   2.0000      -1.227725       -33.4081
  19   2.0000      -1.218947       -33.1692
  20   2.0000      -1.193984       -32.4900
  21   2.0000      -1.188523       -32.3413
  22   2.0000      -1.123196       -30.5637
  23   2.0000      -1.115941       -30.3663
  24   2.0000      -1.070108       -29.1191
  25   2.0000      -1.063324       -28.9345
  26   2.0000      -0.956314       -26.0226
  27   2.0000      -0.953784       -25.9538
  28   2.0000      -0.846939       -23.0464
  29   2.0000      -0.845287       -23.0014
  30   2.0000      -0.809731       -22.0339
  31   2.0000      -0.806219       -21.9383
  32   2.0000      -0.794538       -21.6205
  33   2.0000      -0.786868       -21.4118
  34   2.0000      -0.695073       -18.9139
  35   2.0000      -0.691734       -18.8230
  36   2.0000      -0.690074       -18.7779
  37   2.0000      -0.686422       -18.6785
  38   2.0000      -0.643009       -17.4972
  39   2.0000      -0.635366       -17.2892
  40   2.0000      -0.633271       -17.2322
  41   2.0000      -0.597717       -16.2647
  42   2.0000      -0.596168       -16.2225
  43   2.0000      -0.591135       -16.0856
  44   2.0000      -0.568266       -15.4633
  45   2.0000      -0.560545       -15.2532
  46   2.0000      -0.558435       -15.1958
  47   2.0000      -0.550113       -14.9693
  48   2.0000      -0.548276       -14.9193
  49   2.0000      -0.545500       -14.8438
  50   2.0000      -0.517770       -14.0892
  51   2.0000      -0.517112       -14.0713
  52   2.0000      -0.513896       -13.9838
  53   2.0000      -0.512925       -13.9574
  54   2.0000      -0.503010       -13.6876
  55   2.0000      -0.496623       -13.5138
  56   2.0000      -0.480121       -13.0648
  57   2.0000      -0.469487       -12.7754
  58   2.0000      -0.420646       -11.4464
  59   2.0000      -0.412403       -11.2221
  60   2.0000      -0.404669       -11.0116
  61   2.0000      -0.395813       -10.7706
  62   2.0000      -0.387310       -10.5392
  63   2.0000      -0.382762       -10.4155
  64   2.0000      -0.346810        -9.4372
  65   2.0000      -0.343323        -9.3423
  66   0.0000       0.011450         0.3116
  67   0.0000       0.019812         0.5391
  68   0.0000       0.024474         0.6660
  69   0.0000       0.034416         0.9365
  70   0.0000       0.041569         1.1312

MULLIKEN ATOMIC CHARGES
-----------------------
   0 O :   -0.676658
   1 O :   -0.656532
   2 O :   -0.640537
   3 O :   -0.668627
   4 N :   -0.035178
   5 N :    0.001011
   6 N :    0.028890
   7 N :    0.048825
   8 C :    0.714555
   9 C :    0.659537
  10 C :    0.093538
  11 C :   -0.040386
  12 C :   -1.422906
  13 C :   -1.405567
  14 C :    0.431229
  15 C :    0.545698
  16 C :    0.322543
  17 C :    0.439247
  18 H :    0.134826
  19 H :    0.132830
  20 H :    0.227189
  21 H :    0.340126
  22 H :    0.346441
  23 H :    0.344747
  24 H :    0.335080
  25 H :    0.219597
  26 H :    0.062346
  27 H :    0.019418
  28 H :    0.049969
  29 H :    0.048748
Sum of atomic charges:   -0.0000000

LOEWDIN ATOMIC CHARGES
----------------------
   0 O :    0.089576
   1 O :    0.101820
   2 O :    0.084693
   3 O :    0.070861
   4 N :    0.278081
   5 N :    0.281624
   6 N :    0.342036
   7 N :    0.344855
   8 C :   -0.137046
   9 C :   -0.134014
  10 C :    0.048641
  11 C :    0.052573
  12 C :    0.175136
  13 C :    0.183313
  14 C :   -0.397325
  15 C :   -0.392315
  16 C :   -0.489000
  17 C :   -0.486675
  18 H :    0.040389
  19 H :    0.036535
  20 H :   -0.011426
  21 H :   -0.007118
  22 H :    0.001030
  23 H :    0.000632
  24 H :   -0.006051
  25 H :   -0.011665
  26 H :   -0.020501
  27 H :   -0.021218
  28 H :   -0.004565
  29 H :   -0.012878

  Mayer bond orders larger than 0.100000
B(  0-O , 14-C ) :   1.4737 B(  1-O , 15-C ) :   1.4430 B(  2-O , 16-C ) :   1.5789
B(  3-O , 17-C ) :   1.5319 B(  4-N , 10-C ) :   0.8846 B(  4-N , 16-C ) :   1.0006
B(  4-N , 26-H ) :   1.1095 B(  5-N , 11-C ) :   0.9651 B(  5-N , 17-C ) :   1.0431
B(  5-N , 27-H ) :   1.1329 B(  6-N , 14-C ) :   0.9916 B(  6-N , 16-C ) :   0.9122
B(  6-N , 28-H ) :   1.0949 B(  7-N , 15-C ) :   0.9952 B(  7-N , 16-C ) :   0.1095
B(  7-N , 17-C ) :   0.9438 B(  7-N , 29-H ) :   1.1120 B(  8-C , 10-C ) :   1.1434
B(  8-C , 12-C ) :   0.3471 B(  8-C , 14-C ) :   0.7976 B(  9-C , 11-C ) :   1.2159
B(  9-C , 13-C ) :   0.3759 B(  9-C , 15-C ) :   0.8180 B(  9-C , 25-H ) :  -0.1070
B( 10-C , 12-C ) :  -0.1132 B( 10-C , 18-H ) :   1.1262 B( 11-C , 13-C ) :  -0.1699
B( 11-C , 19-H ) :   1.1180 B( 12-C , 20-H ) :   1.0160 B( 12-C , 21-H ) :   0.9830
B( 12-C , 22-H ) :   0.9430 B( 13-C , 23-H ) :   0.9260 B( 13-C , 24-H ) :   0.9926
B( 13-C , 25-H ) :   1.0226

Dispersion correction           -0.058106058
FINAL SINGLE POINT ENERGY      -908.936227737435

DIPOLE MOMENT
-------------

Method             : SCF
Type of density    : Electron Density
Multiplicity       :   1
Irrep              :   0
Energy             :  -908.8781216796660374 Eh
Relativity type    :
Basis              : AO
                                X                 Y                 Z
Electronic contribution:     -2.662824090      -9.814948876      -5.747762499
Nuclear contribution   :      2.135423961      10.668242163       8.246486377
                        -----------------------------------------
Total Dipole Moment    :     -0.527400129       0.853293287       2.498723878
                        -----------------------------------------
Magnitude (a.u.)       :      2.692560370
Magnitude (Debye)      :      6.843944564

Rotational constants in cm-1:             0.017181             0.015582             0.013486
Rotational constants in MHz :           515.072636           467.135977           404.314930

                             ****ORCA TERMINATED NORMALLY****
TOTAL RUN TIME: 0 days 1 hours 16 minutes 52 seconds 269 msec
