                         Program Version 6.0.0  -   RELEASE  -
|  1> ! opt def2-TZVPPD wB97M-D3BJ
|  2> %pal nprocs 8 end%pal nprocs 32 end
|  3> %geom Constraints
|  4> {B 9 8 2.7 C}
|  5> {A 8 9 11 88.85714285714286 C}
|  6> end
|  7> MaxIter 300
|  8> end
|  9> *xyz 0 1
| 10> O   2.98579685529314 0.88758230159078 -0.86184571092411
| 11> O   -0.03983205397054 0.68929041702508 -2.10362336723772
| 12> O   0.93431434349854 -3.13274393337945 -0.68767288184107
| 13> O   -3.75829998830163 -0.84727300865116 -0.0472717177755
| 14> N   0.21184538946282 -1.54604804365365 0.7617588924445
| 15> N   -2.13631993928911 0.03188773433438 1.27350571071531
| 16> N   2.02598672506387 -1.14318467211666 -0.64531219127023
| 17> N   -1.91814233924584 0.03137116037665 -1.04498946748291
| 18> C   1.18097737274226 0.71693507080484 0.70173889017321
| 19> C   -0.20686880480777 1.27024627933494 0.21345042231937
| 20> C   0.41441080275909 -0.34173258966541 1.52336266615173
| 21> C   -0.82922175114212 0.58960593673968 1.44434972027296
| 22> C   1.92822011286806 1.69488653817281 1.5963734975385
| 23> C   -0.37809776891576 2.77134929626422 0.04819649358288
| 24> C   2.1403947470937 0.1972384729179 -0.35038567829864
| 25> C   -0.67361678962426 0.6214190571346 -1.0793014500539
| 26> C   1.04142578622994 -2.02697492875068 -0.21027082435993
| 27> C   -2.68467002550422 -0.30396816036989 0.07167054343891
| 28> H   0.80817443950001 -0.54572267081061 2.51895215321335
| 29> H   -0.83785272399001 1.27240685039143 2.28901317073582
| 30> H   2.31167340578204 2.52284411740894 1.00913016264629
| 31> H   1.28982602448342 2.08257620823614 2.38710022492991
| 32> H   2.77390820759972 1.19140411795486 2.06045858523949
| 33> H   -1.41857211141493 3.00964947214868 -0.16882755561625
| 34> H   -0.09065531563179 3.29799318042223 0.95389844358819
| 35> H   0.23426221611057 3.12492645074476 -0.77764887675592
| 36> H   -0.46772570547622 -2.21560145172536 1.0787081584806
| 37> H   -2.71769301149571 -0.17090724573546 2.06627440900372
| 38> H   2.60065167263658 -1.49057255715425 -1.3966820077142
| 39> H   -2.27169977231386 -0.32388339999036 -1.91951041514436
| 40> *
| 41>
| 42>                          ****END OF INPUT****
 Total Charge           Charge          ....    0
 Multiplicity           Mult            ....    1
 Number of Electrons    NEL             ....  132
Dispersion correction           -0.054516764
FINAL SINGLE POINT ENERGY      -908.689682990582
Dispersion correction             ... done (  0.0 sec)
Dispersion correction           -0.055045769
FINAL SINGLE POINT ENERGY      -908.713849990788
Dispersion correction             ... done (  0.1 sec)
Dispersion correction           -0.055795290
FINAL SINGLE POINT ENERGY      -908.728599967582
Dispersion correction             ... done (  0.0 sec)
FINAL SINGLE POINT ENERGY      -908.739444143884
FINAL SINGLE POINT ENERGY      -908.745738539273
FINAL SINGLE POINT ENERGY      -908.752952321593
FINAL SINGLE POINT ENERGY      -908.756995038372
FINAL SINGLE POINT ENERGY      -908.761971632095
FINAL SINGLE POINT ENERGY      -908.780169529936
FINAL SINGLE POINT ENERGY      -908.817332292971
FINAL SINGLE POINT ENERGY      -908.918493106094
FINAL SINGLE POINT ENERGY      -908.919547428799
FINAL SINGLE POINT ENERGY      -908.920145857250
FINAL SINGLE POINT ENERGY      -908.920450267972
FINAL SINGLE POINT ENERGY      -908.920568834125
FINAL SINGLE POINT ENERGY      -908.920631326510
FINAL SINGLE POINT ENERGY      -908.920658589515
Dispersion correction             ... done (  0.0 sec)
Dispersion correction           -0.062549579
FINAL SINGLE POINT ENERGY      -908.920670765993
Dispersion correction             ... done (  0.0 sec)
Dispersion correction           -0.062573133
FINAL SINGLE POINT ENERGY      -908.920673237544
Dispersion correction             ... done (  0.0 sec)
                    ***********************HURRAY********************

CARTESIAN COORDINATES (ANGSTROEM)
---------------------------------
  O      2.684504    1.163345   -0.609286
  O     -0.515993    0.785392   -2.163476
  O      0.875359   -2.916721   -1.470875
  O     -2.690304   -1.643704    0.997000
  N      0.588835   -2.003841    0.596253
  N     -2.059816    0.488890    1.489768
  N      1.809564   -0.887113   -1.001207
  N     -1.678527   -0.373625   -0.606843
  C      1.259255    0.245391    1.053080
  C     -0.714720    1.754189   -0.003779
  C      0.678217   -0.907248    1.421531
  C     -1.384149    1.637396    1.147967
  C      1.542330    1.343707    2.030589
  C     -0.012988    3.006891   -0.426252
  C      1.977247    0.256092   -0.225423
  C     -0.928620    0.727406   -1.027161
  C      1.072574   -2.010472   -0.694315
  C     -2.185353   -0.596588    0.650757
  H      0.238886   -1.040496    2.398136
  H     -1.374020    2.408933    1.901972
  H      1.405795    2.322754    1.584864
  H      0.897329    1.255115    2.902534
  H      2.577735    1.289668    2.363955
  H     -0.487518    3.415996   -1.316039
  H     -0.049499    3.752548    0.365018
  H      1.025230    2.807518   -0.678660
  H     -0.016111   -2.770665    0.835422
  H     -2.486826    0.384913    2.392387
  H      2.183959   -0.850744   -1.936281
  H     -1.779774   -1.129927   -1.267037

 Multiplicity           Mult            ....    1
 Number of Electrons    NEL             ....  132
 Basis Dimension        Dim             ....  882

ORBITAL ENERGIES
----------------

  NO   OCC          E(Eh)            E(eV)
   0   2.0000     -19.331513      -526.0372
   1   2.0000     -19.324998      -525.8599
   2   2.0000     -19.320030      -525.7247
   3   2.0000     -19.318298      -525.6776
   4   2.0000     -14.589297      -396.9949
   5   2.0000     -14.574823      -396.6011
   6   2.0000     -14.572831      -396.5469
   7   2.0000     -14.562582      -396.2680
   8   2.0000     -10.517623      -286.1991
   9   2.0000     -10.504956      -285.8544
  10   2.0000     -10.480415      -285.1866
  11   2.0000     -10.475842      -285.0622
  12   2.0000     -10.429497      -283.8010
  13   2.0000     -10.426880      -283.7298
  14   2.0000     -10.380802      -282.4760
  15   2.0000     -10.379891      -282.4512
  16   2.0000     -10.360943      -281.9356
  17   2.0000     -10.349737      -281.6307
  18   2.0000      -1.230822       -33.4924
  19   2.0000      -1.218728       -33.1633
  20   2.0000      -1.196640       -32.5622
  21   2.0000      -1.189282       -32.3620
  22   2.0000      -1.126909       -30.6648
  23   2.0000      -1.116068       -30.3698
  24   2.0000      -1.073608       -29.2144
  25   2.0000      -1.063080       -28.9279
  26   2.0000      -0.965270       -26.2663
  27   2.0000      -0.950279       -25.8584
  28   2.0000      -0.848250       -23.0821
  29   2.0000      -0.847983       -23.0748
  30   2.0000      -0.813608       -22.1394
  31   2.0000      -0.807120       -21.9629
  32   2.0000      -0.796766       -21.6811
  33   2.0000      -0.787778       -21.4365
  34   2.0000      -0.697686       -18.9850
  35   2.0000      -0.695799       -18.9336
  36   2.0000      -0.691327       -18.8120
  37   2.0000      -0.687234       -18.7006
  38   2.0000      -0.645843       -17.5743
  39   2.0000      -0.642291       -17.4776
  40   2.0000      -0.634506       -17.2658
  41   2.0000      -0.599711       -16.3190
  42   2.0000      -0.597490       -16.2585
  43   2.0000      -0.590786       -16.0761
  44   2.0000      -0.572037       -15.5659
  45   2.0000      -0.569572       -15.4988
  46   2.0000      -0.558955       -15.2099
  47   2.0000      -0.552906       -15.0453
  48   2.0000      -0.550372       -14.9764
  49   2.0000      -0.539597       -14.6832
  50   2.0000      -0.521044       -14.1783
  51   2.0000      -0.520085       -14.1522
  52   2.0000      -0.515268       -14.0212
  53   2.0000      -0.510114       -13.8809
  54   2.0000      -0.504682       -13.7331
  55   2.0000      -0.496151       -13.5009
  56   2.0000      -0.480538       -13.0761
  57   2.0000      -0.470952       -12.8153
  58   2.0000      -0.422942       -11.5088
  59   2.0000      -0.411197       -11.1892
  60   2.0000      -0.406751       -11.0683
  61   2.0000      -0.394321       -10.7300
  62   2.0000      -0.389409       -10.5964
  63   2.0000      -0.383955       -10.4480
  64   2.0000      -0.359841        -9.7918
  65   2.0000      -0.329140        -8.9564
  66   0.0000       0.008637         0.2350
  67   0.0000       0.012587         0.3425
  68   0.0000       0.025642         0.6978
  69   0.0000       0.034065         0.9270
  70   0.0000       0.039938         1.0868

MULLIKEN ATOMIC CHARGES
-----------------------
   0 O :   -0.679638
   1 O :   -0.664893
   2 O :   -0.655887
   3 O :   -0.667129
   4 N :   -0.054718
   5 N :    0.005615
   6 N :    0.042886
   7 N :    0.009217
   8 C :    1.091653
   9 C :    0.369333
  10 C :   -0.081763
  11 C :    0.317574
  12 C :   -1.558929
  13 C :   -1.595927
  14 C :    0.177904
  15 C :    0.625776
  16 C :    0.452483
  17 C :    0.412094
  18 H :    0.203160
  19 H :    0.197962
  20 H :    0.260884
  21 H :    0.337259
  22 H :    0.390985
  23 H :    0.375472
  24 H :    0.342497
  25 H :    0.246469
  26 H :    0.049845
  27 H :    0.020975
  28 H :    0.017414
  29 H :    0.011428
Sum of atomic charges:   -0.0000000

LOEWDIN ATOMIC CHARGES
----------------------
   0 O :    0.093029
   1 O :    0.107621
   2 O :    0.088711
   3 O :    0.077351
   4 N :    0.281397
   5 N :    0.287188
   6 N :    0.346253
   7 N :    0.346685
   8 C :   -0.154164
   9 C :   -0.159489
  10 C :    0.039421
  11 C :    0.034591
  12 C :    0.182197
  13 C :    0.184368
  14 C :   -0.397691
  15 C :   -0.394944
  16 C :   -0.478629
  17 C :   -0.494628
  18 H :    0.040700
  19 H :    0.041138
  20 H :   -0.021167
  21 H :   -0.002716
  22 H :    0.008808
  23 H :    0.006257
  24 H :   -0.002725
  25 H :   -0.020215
  26 H :   -0.019102
  27 H :   -0.017282
  28 H :   -0.001173
  29 H :   -0.001788

  Mayer bond orders larger than 0.100000
B(  0-O , 14-C ) :   1.4037 B(  1-O , 15-C ) :   1.3982 B(  2-O , 16-C ) :   1.5636
B(  3-O , 17-C ) :   1.5528 B(  4-N , 10-C ) :   0.8215 B(  4-N , 16-C ) :   1.0189
B(  4-N , 26-H ) :   1.1254 B(  5-N , 11-C ) :   0.9738 B(  5-N , 17-C ) :   1.0340
B(  5-N , 27-H ) :   1.1315 B(  6-N ,  8-C ) :  -0.1197 B(  6-N , 14-C ) :   1.0849
B(  6-N , 16-C ) :   0.9288 B(  6-N , 28-H ) :   1.1076 B(  7-N , 15-C ) :   0.9878
B(  7-N , 17-C ) :   0.9432 B(  7-N , 29-H ) :   1.1233 B(  8-C , 10-C ) :   1.0002
B(  8-C , 12-C ) :   0.3253 B(  8-C , 14-C ) :   0.5679 B(  8-C , 15-C ) :  -0.1424
B(  8-C , 18-H ) :  -0.1254 B(  8-C , 20-H ) :  -0.1235 B(  8-C , 21-H ) :  -0.1041
B(  9-C , 11-C ) :   0.9702 B(  9-C , 13-C ) :   0.5108 B(  9-C , 15-C ) :   0.6407
B(  9-C , 24-H ) :  -0.1191 B( 10-C , 12-C ) :  -0.1924 B( 10-C , 18-H ) :   1.1761
B( 11-C , 13-C ) :  -0.3201 B( 11-C , 19-H ) :   1.1100 B( 12-C , 20-H ) :   1.0175
B( 12-C , 21-H ) :   1.0453 B( 12-C , 22-H ) :   0.8264 B( 13-C , 15-C ) :  -0.1145
B( 13-C , 23-H ) :   0.8302 B( 13-C , 24-H ) :   1.0794 B( 13-C , 25-H ) :   0.9675
B( 14-C , 15-C ) :   0.1199

Dispersion correction           -0.062565253
FINAL SINGLE POINT ENERGY      -908.920674515259

DIPOLE MOMENT
-------------

Method             : SCF
Type of density    : Electron Density
Multiplicity       :   1
Irrep              :   0
Energy             :  -908.8581092618962884 Eh
Relativity type    :
Basis              : AO
                                X                 Y                 Z
Electronic contribution:     -2.509199296     -10.191073357      -5.943364367
Nuclear contribution   :      1.789726912      11.202411401       8.391828094
                        -----------------------------------------
Total Dipole Moment    :     -0.719472384       1.011338044       2.448463727
                        -----------------------------------------
Magnitude (a.u.)       :      2.745071906
Magnitude (Debye)      :      6.977418281

Rotational constants in cm-1:             0.018033             0.017078             0.013119
Rotational constants in MHz :           540.611882           511.992018           393.289020

                             ****ORCA TERMINATED NORMALLY****
TOTAL RUN TIME: 0 days 1 hours 19 minutes 38 seconds 356 msec
