                         Program Version 6.0.0  -   RELEASE  -
|  1> ! Opt wB97M-D3BJ def2-TZVPPD
|  2> %pal nprocs 8 end %pal nprocs 64 end
|  3> %geom
|  4> Constraints
|  5>     {A 2 1 0 130.9090909090909 C }
|  6> end
|  7> MaxIter 500
|  8> end
|  9> *xyz 0 1
| 10> O   -0.0007 0.8141 0.0
| 11> C   0.7509 -0.4065 0.0
| 12> C   -0.7502 -0.4076 0.0
| 13> H   1.2625 -0.6786 0.9136
| 14> H   1.2625 -0.6787 -0.9136
| 15> H   -1.2614 -0.6806 -0.9136
| 16> H   -1.2614 -0.6805 0.9136
| 17> *
| 18>
| 19>                          ****END OF INPUT****
 Total Charge           Charge          ....    0
 Multiplicity           Mult            ....    1
 Number of Electrons    NEL             ....   24
Dispersion correction           -0.005727219
FINAL SINGLE POINT ENERGY      -153.552477701495
Dispersion correction             ... done (  0.1 sec)
Dispersion correction           -0.005639265
FINAL SINGLE POINT ENERGY      -153.674207402703
Dispersion correction             ... done (  0.1 sec)
Dispersion correction           -0.005576810
FINAL SINGLE POINT ENERGY      -153.706863291974
Dispersion correction             ... done (  0.1 sec)
FINAL SINGLE POINT ENERGY      -153.719859409244
FINAL SINGLE POINT ENERGY      -153.724836810123
FINAL SINGLE POINT ENERGY      -153.728811770372
FINAL SINGLE POINT ENERGY      -153.732551978307
FINAL SINGLE POINT ENERGY      -153.733930696425
FINAL SINGLE POINT ENERGY      -153.734679009604
FINAL SINGLE POINT ENERGY      -153.735669326688
FINAL SINGLE POINT ENERGY      -153.930059533978
FINAL SINGLE POINT ENERGY      -153.930068784528
FINAL SINGLE POINT ENERGY      -153.930083462214
FINAL SINGLE POINT ENERGY      -153.930105142925
FINAL SINGLE POINT ENERGY      -153.930131520996
FINAL SINGLE POINT ENERGY      -153.930163956684
FINAL SINGLE POINT ENERGY      -153.930194402138
Dispersion correction             ... done (  0.1 sec)
Dispersion correction           -0.005523513
FINAL SINGLE POINT ENERGY      -153.930209864994
Dispersion correction             ... done (  0.1 sec)
Dispersion correction           -0.005521480
FINAL SINGLE POINT ENERGY      -153.930213653919
Dispersion correction             ... done (  0.1 sec)
                    ***********************HURRAY********************

CARTESIAN COORDINATES (ANGSTROEM)
---------------------------------
  O      0.669607    1.367630    0.057092
  C      0.540916    0.212483   -0.241038
  C     -0.444232   -0.815601    0.221593
  H      0.110209   -1.651330    0.648839
  H      1.250779   -0.212876   -0.983825
  H     -0.975204   -1.196129   -0.651178
  H     -1.149875   -0.422577    0.948516

 Multiplicity           Mult            ....    1
 Number of Electrons    NEL             ....   24
 Basis Dimension        Dim             ....  182

ORBITAL ENERGIES
----------------

  NO   OCC          E(Eh)            E(eV)
   0   2.0000     -19.340831      -526.2908
   1   2.0000     -10.443579      -284.1842
   2   2.0000     -10.360749      -281.9303
   3   2.0000      -1.189193       -32.3596
   4   2.0000      -0.889378       -24.2012
   5   2.0000      -0.699786       -19.0422
   6   2.0000      -0.597475       -16.2581
   7   2.0000      -0.563323       -15.3288
   8   2.0000      -0.557413       -15.1680
   9   2.0000      -0.509345       -13.8600
  10   2.0000      -0.478340       -13.0163
  11   2.0000      -0.367162        -9.9910
  12   0.0000       0.036362         0.9895
  13   0.0000       0.056260         1.5309
  14   0.0000       0.059236         1.6119
  15   0.0000       0.082507         2.2451
  16   0.0000       0.085770         2.3339

MULLIKEN ATOMIC CHARGES
-----------------------
   0 O :   -0.474669
   1 C :    0.232908
   2 C :   -0.694297
   3 H :    0.231851
   4 H :    0.232026
   5 H :    0.231438
   6 H :    0.240743
Sum of atomic charges:   -0.0000000

LOEWDIN ATOMIC CHARGES
----------------------
   0 O :    0.073794
   1 C :   -0.239702
   2 C :    0.170747
   3 H :   -0.009303
   4 H :    0.022285
   5 H :   -0.009302
   6 H :   -0.008520

  Mayer bond orders larger than 0.100000
B(  0-O ,  1-C ) :   1.7703 B(  1-C ,  2-C ) :   0.7503 B(  1-C ,  4-H ) :   0.9937
B(  2-C ,  3-H ) :   0.9909 B(  2-C ,  5-H ) :   0.9912 B(  2-C ,  6-H ) :   0.9585

Dispersion correction           -0.005521182
FINAL SINGLE POINT ENERGY      -153.930213996148

DIPOLE MOMENT
-------------

Method             : SCF
Type of density    : Electron Density
Multiplicity       :   1
Irrep              :   0
Energy             :  -153.9246928145859954 Eh
Relativity type    :
Basis              : AO
                                X                 Y                 Z
Electronic contribution:      1.382349284       3.081050258      -0.073802696
Nuclear contribution   :     -1.656593811      -4.198867021      -0.089374610
                        -----------------------------------------
Total Dipole Moment    :     -0.274244526      -1.117816763      -0.163177306
                        -----------------------------------------
Magnitude (a.u.)       :      1.162476327
Magnitude (Debye)      :      2.954780002

Rotational constants in cm-1:             2.099455             0.325510             0.297219
Rotational constants in MHz :         62940.086573          9758.546018          8910.396421

                             ****ORCA TERMINATED NORMALLY****
TOTAL RUN TIME: 0 days 0 hours 13 minutes 15 seconds 797 msec
