                         Program Version 6.0.0  -   RELEASE  -
|  1> ! Engrad def2-TZVPPD wB97M-D3BJ
|  2> %pal nprocs 8 end%pal nprocs 64 end
|  3> %tddft Nroots 2 Iroot 2
|  4> sf true
|  5> end
|  6> *xyz 0 3
|  7> O   2.49127954 1.24124719 -0.49369879
|  8> O   -0.66545556 0.86042569 -2.30505836
|  9> O   0.59223636 -2.71623153 -1.59849411
| 10> O   -2.38914486 -1.62201158 1.14817254
| 11> N   0.6905054 -2.16279841 0.66072693
| 12> N   -2.05301248 0.63419732 1.42073159
| 13> N   1.62400713 -0.79859292 -0.96540552
| 14> N   -1.60693703 -0.35298163 -0.61000025
| 15> C   1.6183111 -0.04116959 1.31346757
| 16> C   -1.00885399 1.97394011 -0.26432266
| 17> C   0.95567264 -1.25390135 1.63251887
| 18> C   -1.46399212 1.79003485 0.97522511
| 19> C   1.91053853 1.05042846 2.32086317
| 20> C   -0.35489951 3.2349699 -0.72511254
| 21> C   1.96926968 0.21733497 -0.06952314
| 22> C   -1.09159784 0.82317747 -1.16271838
| 23> C   0.90690887 -1.94297276 -0.71172227
| 24> C   -2.02204648 -0.5513299 0.70590148
| 25> H   0.68700918 -1.46683117 2.59852258
| 26> H   -1.52235964 2.58691611 1.70425897
| 27> H   1.47812912 2.01349224 1.93484038
| 28> H   1.54701806 0.82555103 3.28622495
| 29> H   2.9972042 1.19933251 2.32295448
| 30> H   -0.8025243 3.64003923 -1.65021348
| 31> H   -0.44460134 3.8988505 0.11443609
| 32> H   0.70761771 3.07470725 -0.97095517
| 33> H   0.00022129 -2.92029195 0.82097474
| 34> H   -2.44213197 0.56605606 2.35412414
| 35> H   1.69296931 -0.63630471 -1.93638268
| 36> H   -1.48595381 -1.21632406 -1.1760728
| 37> *
| 38>
| 39>                          ****END OF INPUT****

CARTESIAN COORDINATES (ANGSTROEM)
---------------------------------
  O      2.491280    1.241247   -0.493699
  O     -0.665456    0.860426   -2.305058
  O      0.592236   -2.716232   -1.598494
  O     -2.389145   -1.622012    1.148173
  N      0.690505   -2.162798    0.660727
  N     -2.053012    0.634197    1.420732
  N      1.624007   -0.798593   -0.965406
  N     -1.606937   -0.352982   -0.610000
  C      1.618311   -0.041170    1.313468
  C     -1.008854    1.973940   -0.264323
  C      0.955673   -1.253901    1.632519
  C     -1.463992    1.790035    0.975225
  C      1.910539    1.050428    2.320863
  C     -0.354900    3.234970   -0.725113
  C      1.969270    0.217335   -0.069523
  C     -1.091598    0.823177   -1.162718
  C      0.906909   -1.942973   -0.711722
  C     -2.022046   -0.551330    0.705901
  H      0.687009   -1.466831    2.598523
  H     -1.522360    2.586916    1.704259
  H      1.478129    2.013492    1.934840
  H      1.547018    0.825551    3.286225
  H      2.997204    1.199333    2.322954
  H     -0.802524    3.640039   -1.650213
  H     -0.444601    3.898850    0.114436
  H      0.707618    3.074707   -0.970955
  H      0.000221   -2.920292    0.820975
  H     -2.442132    0.566056    2.354124
  H      1.692969   -0.636305   -1.936383
  H     -1.485954   -1.216324   -1.176073

 Total Charge           Charge          ....    0
 Multiplicity           Mult            ....    3
 Number of Electrons    NEL             ....  132
 Basis Dimension        Dim             ....  882

ORBITAL ENERGIES
----------------
                 SPIN UP ORBITALS
  NO   OCC          E(Eh)            E(eV)
   0   1.0000     -19.335010      -526.1324
   1   1.0000     -19.333723      -526.0973
   2   1.0000     -19.322506      -525.7921
   3   1.0000     -19.320879      -525.7478
   4   1.0000     -14.591197      -397.0467
   5   1.0000     -14.586347      -396.9147
   6   1.0000     -14.574909      -396.6034
   7   1.0000     -14.548045      -395.8724
   8   1.0000     -10.519572      -286.2521
   9   1.0000     -10.511730      -286.0387
  10   1.0000     -10.477750      -285.1141
  11   1.0000     -10.462687      -284.7042
  12   1.0000     -10.430168      -283.8193
  13   1.0000     -10.415246      -283.4133
  14   1.0000     -10.396586      -282.9055
  15   1.0000     -10.378904      -282.4243
  16   1.0000     -10.374399      -282.3018
  17   1.0000     -10.351436      -281.6769
  18   1.0000      -1.226171       -33.3658
  19   1.0000      -1.221001       -33.2251
  20   1.0000      -1.188197       -32.3325
  21   1.0000      -1.185547       -32.2604
  22   1.0000      -1.124655       -30.6034
  23   1.0000      -1.119958       -30.4756
  24   1.0000      -1.066164       -29.0118
  25   1.0000      -1.060620       -28.8609
  26   1.0000      -0.962221       -26.1834
  27   1.0000      -0.956617       -26.0309
  28   1.0000      -0.854875       -23.2623
  29   1.0000      -0.844815       -22.9886
  30   1.0000      -0.814749       -22.1704
  31   1.0000      -0.807992       -21.9866
  32   1.0000      -0.791290       -21.5321
  33   1.0000      -0.781083       -21.2543
  34   1.0000      -0.694519       -18.8988
  35   1.0000      -0.693657       -18.8754
  36   1.0000      -0.689439       -18.7606
  37   1.0000      -0.688176       -18.7262
  38   1.0000      -0.645597       -17.5676
  39   1.0000      -0.634118       -17.2552
  40   1.0000      -0.628961       -17.1149
  41   1.0000      -0.600237       -16.3333
  42   1.0000      -0.594979       -16.1902
  43   1.0000      -0.592318       -16.1178
  44   1.0000      -0.569775       -15.5044
  45   1.0000      -0.569098       -15.4860
  46   1.0000      -0.565886       -15.3986
  47   1.0000      -0.557600       -15.1731
  48   1.0000      -0.548031       -14.9127
  49   1.0000      -0.546964       -14.8837
  50   1.0000      -0.527326       -14.3493
  51   1.0000      -0.518468       -14.1082
  52   1.0000      -0.517935       -14.0937
  53   1.0000      -0.513784       -13.9808
  54   1.0000      -0.511596       -13.9212
  55   1.0000      -0.498682       -13.5698
  56   1.0000      -0.491763       -13.3815
  57   1.0000      -0.476823       -12.9750
  58   1.0000      -0.423153       -11.5146
  59   1.0000      -0.421159       -11.4603
  60   1.0000      -0.405214       -11.0264
  61   1.0000      -0.403807       -10.9882
  62   1.0000      -0.388403       -10.5690
  63   1.0000      -0.384877       -10.4730
  64   1.0000      -0.380113       -10.3434
  65   1.0000      -0.346924        -9.4403
  66   1.0000      -0.220516        -6.0005
  67   0.0000       0.011189         0.3045
  68   0.0000       0.021298         0.5796
  69   0.0000       0.033568         0.9134
  70   0.0000       0.037816         1.0290
  71   0.0000       0.042867         1.1665

                 SPIN DOWN ORBITALS
  NO   OCC          E(Eh)            E(eV)
   0   1.0000     -19.333683      -526.0963
   1   1.0000     -19.333212      -526.0834
   2   1.0000     -19.320871      -525.7476
   3   1.0000     -19.316382      -525.6255
   4   1.0000     -14.586402      -396.9162
   5   1.0000     -14.586207      -396.9109
   6   1.0000     -14.574915      -396.6036
   7   1.0000     -14.547099      -395.8467
   8   1.0000     -10.519579      -286.2523
   9   1.0000     -10.512000      -286.0461
  10   1.0000     -10.477750      -285.1141
  11   1.0000     -10.462675      -284.7039
  12   1.0000     -10.430112      -283.8178
  13   1.0000     -10.405353      -283.1441
  14   1.0000     -10.386143      -282.6213
  15   1.0000     -10.378890      -282.4239
  16   1.0000     -10.374881      -282.3149
  17   1.0000     -10.351410      -281.6762
  18   1.0000      -1.225656       -33.3518
  19   1.0000      -1.217499       -33.1298
  20   1.0000      -1.187957       -32.3260
  21   1.0000      -1.176801       -32.0224
  22   1.0000      -1.124493       -30.5990
  23   1.0000      -1.109320       -30.1861
  24   1.0000      -1.066092       -29.0098
  25   1.0000      -1.054971       -28.7072
  26   1.0000      -0.956785       -26.0355
  27   1.0000      -0.939168       -25.5561
  28   1.0000      -0.844923       -22.9915
  29   1.0000      -0.842574       -22.9276
  30   1.0000      -0.807989       -21.9865
  31   1.0000      -0.802076       -21.8256
  32   1.0000      -0.791215       -21.5300
  33   1.0000      -0.775624       -21.1058
  34   1.0000      -0.694377       -18.8950
  35   1.0000      -0.688959       -18.7475
  36   1.0000      -0.684538       -18.6272
  37   1.0000      -0.677436       -18.4340
  38   1.0000      -0.642272       -17.4771
  39   1.0000      -0.627208       -17.0672
  40   1.0000      -0.622940       -16.9511
  41   1.0000      -0.596157       -16.2223
  42   1.0000      -0.588362       -16.0101
  43   1.0000      -0.584613       -15.9081
  44   1.0000      -0.569561       -15.4985
  45   1.0000      -0.562829       -15.3154
  46   1.0000      -0.553300       -15.0561
  47   1.0000      -0.549210       -14.9448
  48   1.0000      -0.547423       -14.8961
  49   1.0000      -0.538223       -14.6458
  50   1.0000      -0.519581       -14.1385
  51   1.0000      -0.517886       -14.0924
  52   1.0000      -0.510572       -13.8934
  53   1.0000      -0.505690       -13.7605
  54   1.0000      -0.500799       -13.6274
  55   1.0000      -0.495714       -13.4891
  56   1.0000      -0.478138       -13.0108
  57   1.0000      -0.446604       -12.1527
  58   1.0000      -0.422104       -11.4860
  59   1.0000      -0.417539       -11.3618
  60   1.0000      -0.404599       -11.0097
  61   1.0000      -0.385413       -10.4876
  62   1.0000      -0.381647       -10.3851
  63   1.0000      -0.378057       -10.2874
  64   1.0000      -0.346104        -9.4180
  65   0.0000      -0.097395        -2.6502
  66   0.0000       0.010163         0.2765
  67   0.0000       0.022188         0.6038
  68   0.0000       0.031193         0.8488
  69   0.0000       0.036810         1.0016

----------------------------------------------------------------------------------------------------
          SPIN FLIP ABSORPTION SPECTRUM VIA TRANSITION ELECTRIC DIPOLE MOMENTS
----------------------------------------------------------------------------------------------------
     Transition      Energy     Energy  Wavelength fosc(D2)      D2        DX        DY        DZ
                      (eV)      (cm-1)    (nm)                 (au**2)    (au)      (au)      (au)
----------------------------------------------------------------------------------------------------
  1-3A  ->  2-3A    3.698967   29834.2   335.2   0.001022887   0.01129  -0.04374  -0.05507   0.07964

Dispersion correction             ... done (  0.1 sec)

MULLIKEN ATOMIC CHARGES AND SPIN DENSITIES
------------------------------------------
   0 O :   -0.693755    0.006176
   1 O :   -0.657174   -0.000217
   2 O :   -0.610044    0.000448
   3 O :   -0.650892    0.000477
   4 N :   -0.000747    0.019627
   5 N :    0.000913   -0.001978
   6 N :    0.032643   -0.011321
   7 N :    0.021289   -0.000032
   8 C :    1.138267    0.109699
   9 C :    0.765471    0.005867
  10 C :   -0.358691    0.042735
  11 C :   -0.133132    0.000399
  12 C :   -1.360664   -0.020706
  13 C :   -1.301313    0.002198
  14 C :    0.254167   -0.134497
  15 C :    0.483077   -0.005881
  16 C :    0.289420   -0.001878
  17 C :    0.336184   -0.008056
  18 H :    0.181582   -0.021366
  19 H :    0.115809   -0.000740
  20 H :    0.260100    0.011568
  21 H :    0.349442   -0.001206
  22 H :    0.359693    0.007222
  23 H :    0.343286   -0.000046
  24 H :    0.335105    0.000256
  25 H :    0.186862   -0.001121
  26 H :    0.134165   -0.000850
  27 H :    0.043539    0.000594
  28 H :    0.014756    0.003112
  29 H :    0.120642   -0.000480
Sum of atomic charges       :    0.0000000

LOEWDIN ATOMIC CHARGES AND SPIN DENSITIES
-----------------------------------------
   0 O :    0.063939    0.004795
   1 O :    0.090763   -0.000090
   2 O :    0.099908   -0.000211
   3 O :    0.069848   -0.000431
   4 N :    0.281972    0.017060
   5 N :    0.272880   -0.000919
   6 N :    0.323007   -0.005740
   7 N :    0.329687   -0.000159
   8 C :   -0.053982    0.006151
   9 C :   -0.139837   -0.000251
  10 C :    0.035126   -0.007218
  11 C :    0.033947   -0.000261
  12 C :    0.208330    0.000923
  13 C :    0.182925   -0.000015
  14 C :   -0.424372   -0.006996
  15 C :   -0.389585    0.000006
  16 C :   -0.464858   -0.002706
  17 C :   -0.474693   -0.000244
  18 H :   -0.047405   -0.005471
  19 H :    0.037047   -0.000050
  20 H :    0.023158    0.000600
  21 H :   -0.035474   -0.000275
  22 H :    0.015453    0.000761
  23 H :    0.013998   -0.000006
  24 H :   -0.024746   -0.000011
  25 H :   -0.001952   -0.000029
  26 H :    0.017125    0.001532
  27 H :   -0.010696   -0.000117
  28 H :   -0.038848   -0.000619
  29 H :    0.007334   -0.000008

  Mayer bond orders larger than 0.100000
B(  0-O , 14-C ) :   1.2951 B(  1-O , 15-C ) :   1.4724 B(  2-O , 16-C ) :   1.6004
B(  3-O , 17-C ) :   1.5441 B(  4-N , 10-C ) :   0.9073 B(  4-N , 16-C ) :   0.9400
B(  4-N , 26-H ) :   1.0305 B(  5-N , 11-C ) :   0.9091 B(  5-N , 17-C ) :   1.0454
B(  5-N , 27-H ) :   1.1096 B(  6-N , 14-C ) :   0.8201 B(  6-N , 16-C ) :   0.9093
B(  6-N , 28-H ) :   1.1277 B(  7-N , 15-C ) :   0.9936 B(  7-N , 17-C ) :   0.9570
B(  7-N , 29-H ) :   1.0442 B(  8-C , 10-C ) :   0.4566 B(  8-C , 12-C ) :   0.3195
B(  8-C , 14-C ) :   1.0132 B(  8-C , 18-H ) :  -0.1229 B(  9-C , 11-C ) :   1.1496
B(  9-C , 13-C ) :   0.3636 B(  9-C , 15-C ) :   0.8295 B(  9-C , 19-H ) :  -0.1133
B(  9-C , 24-H ) :  -0.1072 B( 10-C , 16-C ) :  -0.1377 B( 10-C , 18-H ) :   1.1543
B( 11-C , 19-H ) :   1.1565 B( 12-C , 20-H ) :   0.9756 B( 12-C , 21-H ) :   0.9985
B( 12-C , 22-H ) :   0.9090 B( 13-C , 23-H ) :   0.9291 B( 13-C , 24-H ) :   0.9948
B( 13-C , 25-H ) :   1.0083

Dispersion correction           -0.057803054
FINAL SINGLE POINT ENERGY      -908.772417179147

DIPOLE MOMENT
-------------

Method             : TDA/CIS
Type of density    : Electron Density
Level              : Relaxed density
State              :   2
Multiplicity       :   3
Irrep              :   0
Energy             :     0.0000000000000000 Eh
Relativity type    :
Basis              : AO
                                X                 Y                 Z
Electronic contribution:     -2.777705616      -9.882511747      -5.601280548
Nuclear contribution   :      2.207174572      10.712530138       8.200550658
                        -----------------------------------------
Total Dipole Moment    :     -0.570531044       0.830018391       2.599270110
                        -----------------------------------------
Magnitude (a.u.)       :      2.787587004
Magnitude (Debye)      :      7.085483072

Rotational constants in cm-1:             0.016968             0.015465             0.013366
Rotational constants in MHz :           508.677964           463.626632           400.698877

                             ****ORCA TERMINATED NORMALLY****
TOTAL RUN TIME: 0 days 0 hours 4 minutes 51 seconds 952 msec
