                         Program Version 6.0.0  -   RELEASE  -
|  1> ! Engrad wB97M-D3BJ def2-TZVPPD
|  2> %pal nprocs 8 end%pal nprocs 16 end
|  3> %tddft nroots 2 Iroot 1
|  4>  sf true
|  5> end
|  6> *xyz 0 3
|  7> O   1.59917800027676 0.9782692084312 0.00742806452389
|  8> C   0.95795029961996 -0.01165531183302 0.22210113472885
|  9> C   -0.30215611392411 -0.67333129808056 -0.24668701568414
| 10> H   1.38827843034297 -0.68479604511015 1.00612657432188
| 11> H   -0.02296244477459 -1.66497634028151 -0.60125292863296
| 12> H   -0.84887994784996 -0.13808026691088 -1.02004779264637
| 13> H   -0.93118930289289 -0.80930383251072 0.63233196338885
| 14> *
| 15>
| 16>                          ****END OF INPUT****

CARTESIAN COORDINATES (ANGSTROEM)
---------------------------------
  O      1.599178    0.978269    0.007428
  C      0.957950   -0.011655    0.222101
  C     -0.302156   -0.673331   -0.246687
  H      1.388278   -0.684796    1.006127
  H     -0.022962   -1.664976   -0.601253
  H     -0.848880   -0.138080   -1.020048
  H     -0.931189   -0.809304    0.632332

 Total Charge           Charge          ....    0
 Multiplicity           Mult            ....    3
 Number of Electrons    NEL             ....   24
 Basis Dimension        Dim             ....  182

ORBITAL ENERGIES
----------------
                 SPIN UP ORBITALS
  NO   OCC          E(Eh)            E(eV)
   0   1.0000     -19.405235      -528.0433
   1   1.0000     -10.381089      -282.4838
   2   1.0000     -10.371317      -282.2179
   3   1.0000      -1.242000       -33.7965
   4   1.0000      -0.889422       -24.2024
   5   1.0000      -0.715247       -19.4629
   6   1.0000      -0.628488       -17.1020
   7   1.0000      -0.589526       -16.0418
   8   1.0000      -0.580246       -15.7893
   9   1.0000      -0.517603       -14.0847
  10   1.0000      -0.517057       -14.0698
  11   1.0000      -0.422878       -11.5071
  12   1.0000      -0.216977        -5.9042
  13   0.0000       0.037534         1.0214
  14   0.0000       0.059689         1.6242
  15   0.0000       0.077502         2.1089
  16   0.0000       0.087357         2.3771
  17   0.0000       0.106035         2.8854

                 SPIN DOWN ORBITALS
  NO   OCC          E(Eh)            E(eV)
   0   1.0000     -19.378258      -527.3092
   1   1.0000     -10.370830      -282.2046
   2   1.0000     -10.369401      -282.1657
   3   1.0000      -1.186316       -32.2813
   4   1.0000      -0.870428       -23.6855
   5   1.0000      -0.669234       -18.2108
   6   1.0000      -0.584900       -15.9159
   7   1.0000      -0.542125       -14.7520
   8   1.0000      -0.535639       -14.5755
   9   1.0000      -0.497167       -13.5286
  10   1.0000      -0.471390       -12.8272
  11   0.0000      -0.081253        -2.2110
  12   0.0000       0.038721         1.0537
  13   0.0000       0.059355         1.6151
  14   0.0000       0.077052         2.0967
  15   0.0000       0.084928         2.3110

----------------------------------------------------------------------------------------------------
          SPIN FLIP ABSORPTION SPECTRUM VIA TRANSITION ELECTRIC DIPOLE MOMENTS
----------------------------------------------------------------------------------------------------
     Transition      Energy     Energy  Wavelength fosc(D2)      D2        DX        DY        DZ
                      (eV)      (cm-1)    (nm)                 (au**2)    (au)      (au)      (au)
----------------------------------------------------------------------------------------------------
  1-3A  ->  2-3A    4.607039   37158.3   269.1   0.000360887   0.00320  -0.02931   0.02753   0.03976

Dispersion correction             ... done (  0.0 sec)

MULLIKEN ATOMIC CHARGES AND SPIN DENSITIES
------------------------------------------
   0 O :   -0.503038    0.054759
   1 C :    0.208197   -0.170183
   2 C :   -0.695963    0.036621
   3 H :    0.267479    0.074378
   4 H :    0.244282   -0.001587
   5 H :    0.234218    0.007553
   6 H :    0.244825   -0.001542
Sum of atomic charges       :   -0.0000000

LOEWDIN ATOMIC CHARGES AND SPIN DENSITIES
-----------------------------------------
   0 O :    0.053125    0.020834
   1 C :   -0.241264   -0.015084
   2 C :    0.179714   -0.002083
   3 H :    0.027040   -0.002809
   4 H :   -0.005755   -0.001254
   5 H :   -0.007014    0.001644
   6 H :   -0.005846   -0.001249

  Mayer bond orders larger than 0.100000
B(  0-O ,  1-C ) :   1.7940 B(  1-C ,  2-C ) :   0.7434 B(  1-C ,  3-H ) :   0.9488
B(  2-C ,  4-H ) :   0.9849 B(  2-C ,  5-H ) :   0.9699 B(  2-C ,  6-H ) :   0.9850

Dispersion correction           -0.005502330
FINAL SINGLE POINT ENERGY      -153.916892007290

DIPOLE MOMENT
-------------

Method             : TDA/CIS
Type of density    : Electron Density
Level              : Relaxed density
State              :   1
Multiplicity       :   3
Irrep              :   0
Energy             :     0.0000000000000000 Eh
Relativity type    :
Basis              : AO
                                X                 Y                 Z
Electronic contribution:      2.364700332       2.406614476       0.071669817
Nuclear contribution   :     -3.191438989      -3.429522228       0.029818946
                        -----------------------------------------
Total Dipole Moment    :     -0.826738657      -1.022907752       0.101488763
                        -----------------------------------------
Magnitude (a.u.)       :      1.319142542
Magnitude (Debye)      :      3.352993874

Rotational constants in cm-1:             2.374712             0.308026             0.287068
Rotational constants in MHz :         71192.076269          9234.375735          8606.091109

                             ****ORCA TERMINATED NORMALLY****
TOTAL RUN TIME: 0 days 0 hours 0 minutes 16 seconds 362 msec
