                         Program Version 6.0.0  -   RELEASE  -
|  1> ! Engrad def2-TZVPPD wB97M-D3BJ
|  2> %pal nprocs 8 end%pal nprocs 64 end
|  3> %tddft
|  4>  Iroot 1 Nroots 3
|  5> sf true
|  6> end
|  7> *xyz 0 3
|  8> O   1.33169892 0.66447431 0.53491493
|  9> C   0.07401918 0.38533183 0.2036543
| 10> C   -0.17418688 -0.97179929 -0.51717308
| 11> H   -0.34654698 1.16795729 -0.61243499
| 12> H   -0.67945283 0.6028363 1.08169129
| 13> H   -1.00603832 -0.81995724 -1.20565028
| 14> H   0.63037335 -1.60462675 -0.82876985
| 15> *
| 16>
| 17>                          ****END OF INPUT****

CARTESIAN COORDINATES (ANGSTROEM)
---------------------------------
  O      1.331699    0.664474    0.534915
  C      0.074019    0.385332    0.203654
  C     -0.174187   -0.971799   -0.517173
  H     -0.346547    1.167957   -0.612435
  H     -0.679453    0.602836    1.081691
  H     -1.006038   -0.819957   -1.205650
  H      0.630373   -1.604627   -0.828770

 Total Charge           Charge          ....    0
 Multiplicity           Mult            ....    3
 Number of Electrons    NEL             ....   24
 Basis Dimension        Dim             ....  182

ORBITAL ENERGIES
----------------
                 SPIN UP ORBITALS
  NO   OCC          E(Eh)            E(eV)
   0   1.0000     -19.392783      -527.7045
   1   1.0000     -10.435866      -283.9743
   2   1.0000     -10.370094      -282.1846
   3   1.0000      -1.183161       -32.1954
   4   1.0000      -0.863860       -23.5068
   5   1.0000      -0.727010       -19.7829
   6   1.0000      -0.601677       -16.3725
   7   1.0000      -0.592542       -16.1239
   8   1.0000      -0.552037       -15.0217
   9   1.0000      -0.517318       -14.0769
  10   1.0000      -0.439880       -11.9698
  11   1.0000      -0.409463       -11.1420
  12   1.0000      -0.324219        -8.8224
  13   0.0000       0.038842         1.0569
  14   0.0000       0.060800         1.6545
  15   0.0000       0.079122         2.1530
  16   0.0000       0.082239         2.2378
  17   0.0000       0.110978         3.0199

                 SPIN DOWN ORBITALS
  NO   OCC          E(Eh)            E(eV)
   0   1.0000     -19.370781      -527.1057
   1   1.0000     -10.437481      -284.0183
   2   1.0000     -10.356733      -281.8210
   3   1.0000      -1.134234       -30.8641
   4   1.0000      -0.832983       -22.6666
   5   1.0000      -0.699893       -19.0451
   6   1.0000      -0.572070       -15.5668
   7   1.0000      -0.538702       -14.6588
   8   1.0000      -0.534133       -14.5345
   9   1.0000      -0.496350       -13.5064
  10   1.0000      -0.379200       -10.3186
  11   0.0000      -0.066240        -1.8025
  12   0.0000      -0.000019        -0.0005
  13   0.0000       0.038915         1.0589
  14   0.0000       0.061036         1.6609
  15   0.0000       0.078943         2.1481

----------------------------------------------------------------------------------------------------
          SPIN FLIP ABSORPTION SPECTRUM VIA TRANSITION ELECTRIC DIPOLE MOMENTS
----------------------------------------------------------------------------------------------------
     Transition      Energy     Energy  Wavelength fosc(D2)      D2        DX        DY        DZ
                      (eV)      (cm-1)    (nm)                 (au**2)    (au)      (au)      (au)
----------------------------------------------------------------------------------------------------
  1-3A  ->  2-3A    0.434673    3505.9  2852.4   0.000423137   0.03973  -0.03236   0.16188   0.11172
  1-3A  ->  3-3A    0.853251    6881.9  1453.1   0.012587814   0.60216   0.61664   0.36829   0.29375

Dispersion correction             ... done (  0.2 sec)

MULLIKEN ATOMIC CHARGES AND SPIN DENSITIES
------------------------------------------
   0 O :   -0.494588   -0.217869
   1 C :    0.015646   -0.058006
   2 C :   -0.444806    0.200119
   3 H :    0.221349   -0.047099
   4 H :    0.237679    0.087888
   5 H :    0.219599    0.010093
   6 H :    0.245121    0.024873
Sum of atomic charges       :   -0.0000000

LOEWDIN ATOMIC CHARGES AND SPIN DENSITIES
-----------------------------------------
   0 O :   -0.079455   -0.234742
   1 C :   -0.337897   -0.008973
   2 C :    0.347447    0.197605
   3 H :    0.104927   -0.050562
   4 H :    0.079475    0.053208
   5 H :   -0.060196    0.019093
   6 H :   -0.054302    0.024372

  Mayer bond orders larger than 0.100000
B(  0-O ,  1-C ) :   1.1897 B(  0-O ,  2-C ) :   0.2930 B(  1-C ,  2-C ) :   0.8953
B(  1-C ,  3-H ) :   0.8630 B(  1-C ,  4-H ) :   0.9027 B(  2-C ,  5-H ) :   0.9916
B(  2-C ,  6-H ) :   0.9671

Dispersion correction           -0.005476817
FINAL SINGLE POINT ENERGY      -153.750449957914

DIPOLE MOMENT
-------------

Method             : TDA/CIS
Type of density    : Electron Density
Level              : Relaxed density
State              :   1
Multiplicity       :   3
Irrep              :   0
Energy             :     0.0000000000000000 Eh
Relativity type    :
Basis              : AO
                                X                 Y                 Z
Electronic contribution:      1.737193855       0.450280600       1.087289263
Nuclear contribution   :     -2.893705623      -0.853938245      -1.735419762
                        -----------------------------------------
Total Dipole Moment    :     -1.156511768      -0.403657645      -0.648130499
                        -----------------------------------------
Magnitude (a.u.)       :      1.385832640
Magnitude (Debye)      :      3.522506633

Rotational constants in cm-1:             1.428867             0.338625             0.291956
Rotational constants in MHz :         42836.365652         10151.722967          8752.610010

                             ****ORCA TERMINATED NORMALLY****
TOTAL RUN TIME: 0 days 0 hours 0 minutes 27 seconds 552 msec
