                         Program Version 6.0.0  -   RELEASE  -
|  1> ! Engrad def2-TZVPPD wB97M-D3BJ
|  2> %pal nprocs 8 end%pal nprocs 32 end
|  3> %tddft Nroots 2 Iroot 1
|  4> sf true
|  5> end
|  6> *xyz 0 3
|  7> O   0.70713198 1.35728732 0.07306435
|  8> C   0.5550993 0.18586305 -0.25364947
|  9> C   -0.45068502 -0.80885567 0.22552738
| 10> H   0.07711289 -1.65917619 0.64250903
| 11> H   1.23435616 -0.23025271 -1.01266345
| 12> H   -1.0325126 -1.17288865 -0.64324899
| 13> H   -1.13165147 -0.39654596 0.95272897
| 14> *
| 15>
| 16>                          ****END OF INPUT****

CARTESIAN COORDINATES (ANGSTROEM)
---------------------------------
  O      0.707132    1.357287    0.073064
  C      0.555099    0.185863   -0.253649
  C     -0.450685   -0.808856    0.225527
  H      0.077113   -1.659176    0.642509
  H      1.234356   -0.230253   -1.012663
  H     -1.032513   -1.172889   -0.643249
  H     -1.131651   -0.396546    0.952729

 Total Charge           Charge          ....    0
 Multiplicity           Mult            ....    3
 Number of Electrons    NEL             ....   24
 Basis Dimension        Dim             ....  182

ORBITAL ENERGIES
----------------
                 SPIN UP ORBITALS
  NO   OCC          E(Eh)            E(eV)
   0   1.0000     -19.412674      -528.2457
   1   1.0000     -10.381415      -282.4927
   2   1.0000     -10.366749      -282.0936
   3   1.0000      -1.235224       -33.6122
   4   1.0000      -0.885059       -24.0837
   5   1.0000      -0.719060       -19.5666
   6   1.0000      -0.629825       -17.1384
   7   1.0000      -0.586551       -15.9609
   8   1.0000      -0.577176       -15.7058
   9   1.0000      -0.515858       -14.0372
  10   1.0000      -0.511175       -13.9098
  11   1.0000      -0.436406       -11.8752
  12   1.0000      -0.226215        -6.1556
  13   0.0000       0.039778         1.0824
  14   0.0000       0.060215         1.6385
  15   0.0000       0.078472         2.1353
  16   0.0000       0.088087         2.3970
  17   0.0000       0.107375         2.9218

                 SPIN DOWN ORBITALS
  NO   OCC          E(Eh)            E(eV)
   0   1.0000     -19.384858      -527.4888
   1   1.0000     -10.370805      -282.2040
   2   1.0000     -10.364944      -282.0445
   3   1.0000      -1.175772       -31.9944
   4   1.0000      -0.866143       -23.5690
   5   1.0000      -0.675414       -18.3790
   6   1.0000      -0.583822       -15.8866
   7   1.0000      -0.538850       -14.6629
   8   1.0000      -0.532819       -14.4987
   9   1.0000      -0.497322       -13.5328
  10   1.0000      -0.467669       -12.7259
  11   0.0000      -0.082773        -2.2524
  12   0.0000       0.040418         1.0998
  13   0.0000       0.060057         1.6342
  14   0.0000       0.078320         2.1312
  15   0.0000       0.082475         2.2443

----------------------------------------------------------------------------------------------------
          SPIN FLIP ABSORPTION SPECTRUM VIA TRANSITION ELECTRIC DIPOLE MOMENTS
----------------------------------------------------------------------------------------------------
     Transition      Energy     Energy  Wavelength fosc(D2)      D2        DX        DY        DZ
                      (eV)      (cm-1)    (nm)                 (au**2)    (au)      (au)      (au)
----------------------------------------------------------------------------------------------------
  1-3A  ->  2-3A    4.428228   35716.1   280.0   0.000113465   0.00105   0.01798  -0.01318   0.02343

Dispersion correction             ... done (  0.1 sec)

MULLIKEN ATOMIC CHARGES AND SPIN DENSITIES
------------------------------------------
   0 O :   -0.530893    0.055041
   1 C :    0.221487   -0.177219
   2 C :   -0.681734    0.045070
   3 H :    0.235829   -0.003290
   4 H :    0.289376    0.079845
   5 H :    0.230253   -0.003628
   6 H :    0.235682    0.004182
Sum of atomic charges       :    0.0000000

LOEWDIN ATOMIC CHARGES AND SPIN DENSITIES
-----------------------------------------
   0 O :    0.022448    0.020010
   1 C :   -0.203753   -0.014856
   2 C :    0.176114   -0.001482
   3 H :   -0.012411   -0.001124
   4 H :    0.022880   -0.002430
   5 H :    0.007497   -0.001239
   6 H :   -0.012775    0.001120

  Mayer bond orders larger than 0.100000
B(  0-O ,  1-C ) :   1.7695 B(  1-C ,  2-C ) :   0.7419 B(  1-C ,  4-H ) :   0.9371
B(  2-C ,  3-H ) :   0.9866 B(  2-C ,  5-H ) :   0.9878 B(  2-C ,  6-H ) :   0.9707

Dispersion correction           -0.005511908
FINAL SINGLE POINT ENERGY      -153.921777728225

DIPOLE MOMENT
-------------

Method             : TDA/CIS
Type of density    : Electron Density
Level              : Relaxed density
State              :   1
Multiplicity       :   3
Irrep              :   0
Energy             :     0.0000000000000000 Eh
Relativity type    :
Basis              : AO
                                X                 Y                 Z
Electronic contribution:      1.461642868       2.858627599      -0.098928751
Nuclear contribution   :     -1.790811107      -4.143963826      -0.121696504
                        -----------------------------------------
Total Dipole Moment    :     -0.329168240      -1.285336227      -0.220625255
                        -----------------------------------------
Magnitude (a.u.)       :      1.345033995
Magnitude (Debye)      :      3.418804720

Rotational constants in cm-1:             2.042716             0.324226             0.295231
Rotational constants in MHz :         61239.093100          9720.037028          8850.804534

                             ****ORCA TERMINATED NORMALLY****
TOTAL RUN TIME: 0 days 0 hours 0 minutes 16 seconds 579 msec
