                         Program Version 6.0.0  -   RELEASE  -
|  1> ! EnGrad wB97M-D3BJ def2-TZVPPD
|  2> %pal nprocs 8 end%pal nprocs 16 end
|  3> %tddft
|  4>  sf true
|  5>  nroots 2 Iroot 2 end
|  6> *xyz 0 3
|  7> O   0.15886298324314 0.89174510775561 -0.00053342754895
|  8> C   0.66726935713895 -0.36280784097657 -3.452945801e-05
|  9> C   -0.73027766692539 -0.59248963211675 7.581214505e-05
| 10> H   1.22247214982406 -0.64913512248616 0.89642137477226
| 11> H   1.22233314921619 -0.64935948720514 -0.89650571103895
| 12> H   -1.269429450839 -0.67921693834691 -0.92788362869529
| 13> H   -1.26903052165796 -0.67713608662406 0.92846010982389
| 14> *
| 15>
| 16>                          ****END OF INPUT****

CARTESIAN COORDINATES (ANGSTROEM)
---------------------------------
  O      0.158863    0.891745   -0.000533
  C      0.667269   -0.362808   -0.000035
  C     -0.730278   -0.592490    0.000076
  H      1.222472   -0.649135    0.896421
  H      1.222333   -0.649359   -0.896506
  H     -1.269429   -0.679217   -0.927884
  H     -1.269031   -0.677136    0.928460

 Total Charge           Charge          ....    0
 Multiplicity           Mult            ....    3
 Number of Electrons    NEL             ....   24
 Basis Dimension        Dim             ....  182

ORBITAL ENERGIES
----------------
                 SPIN UP ORBITALS
  NO   OCC          E(Eh)            E(eV)
   0   1.0000     -19.430971      -528.7436
   1   1.0000     -10.410293      -283.2785
   2   1.0000     -10.335244      -281.2363
   3   1.0000      -1.246471       -33.9182
   4   1.0000      -0.859701       -23.3937
   5   1.0000      -0.752540       -20.4777
   6   1.0000      -0.660858       -17.9829
   7   1.0000      -0.624815       -17.0021
   8   1.0000      -0.551400       -15.0044
   9   1.0000      -0.499070       -13.5804
  10   1.0000      -0.472238       -12.8503
  11   1.0000      -0.455412       -12.3924
  12   1.0000      -0.213003        -5.7961
  13   0.0000       0.039612         1.0779
  14   0.0000       0.063327         1.7232
  15   0.0000       0.071803         1.9539
  16   0.0000       0.085736         2.3330
  17   0.0000       0.113737         3.0949

                 SPIN DOWN ORBITALS
  NO   OCC          E(Eh)            E(eV)
   0   1.0000     -19.399392      -527.8843
   1   1.0000     -10.411133      -283.3013
   2   1.0000     -10.323488      -280.9164
   3   1.0000      -1.181225       -32.1428
   4   1.0000      -0.825015       -22.4498
   5   1.0000      -0.732841       -19.9416
   6   1.0000      -0.612159       -16.6577
   7   1.0000      -0.588703       -16.0194
   8   1.0000      -0.520753       -14.1704
   9   1.0000      -0.471167       -12.8211
  10   1.0000      -0.408167       -11.1068
  11   0.0000      -0.090505        -2.4628
  12   0.0000       0.036311         0.9881
  13   0.0000       0.053749         1.4626
  14   0.0000       0.061436         1.6718
  15   0.0000       0.068371         1.8605

----------------------------------------------------------------------------------------------------
          SPIN FLIP ABSORPTION SPECTRUM VIA TRANSITION ELECTRIC DIPOLE MOMENTS
----------------------------------------------------------------------------------------------------
     Transition      Energy     Energy  Wavelength fosc(D2)      D2        DX        DY        DZ
                      (eV)      (cm-1)    (nm)                 (au**2)    (au)      (au)      (au)
----------------------------------------------------------------------------------------------------
  1-3A  ->  2-3A    4.434140   35763.8   279.6   0.002859668   0.02632   0.00007   0.00001  -0.16225

Dispersion correction             ... done (  0.0 sec)

MULLIKEN ATOMIC CHARGES AND SPIN DENSITIES
------------------------------------------
   0 O :   -0.290390    0.583232
   1 C :    0.152409    0.266037
   2 C :   -0.310932   -0.482709
   3 H :    0.204505    0.023133
   4 H :    0.204231    0.022988
   5 H :    0.020020   -0.206359
   6 H :    0.020157   -0.206321
Sum of atomic charges       :    0.0000000

LOEWDIN ATOMIC CHARGES AND SPIN DENSITIES
-----------------------------------------
   0 O :    0.108383    0.595394
   1 C :   -0.152306    0.047278
   2 C :    0.119236   -0.492174
   3 H :    0.034496    0.019859
   4 H :    0.034519    0.019910
   5 H :   -0.072194   -0.095179
   6 H :   -0.072135   -0.095088

  Mayer bond orders larger than 0.100000
B(  0-O ,  1-C ) :   0.7975 B(  0-O ,  2-C ) :   0.4911 B(  1-C ,  2-C ) :   0.5923
B(  1-C ,  3-H ) :   0.9887 B(  1-C ,  4-H ) :   0.9885 B(  2-C ,  5-H ) :   1.1604
B(  2-C ,  6-H ) :   1.1606 B(  5-H ,  6-H ) :   0.1249

Dispersion correction           -0.005281409
FINAL SINGLE POINT ENERGY      -153.678467678924

DIPOLE MOMENT
-------------

Method             : TDA/CIS
Type of density    : Electron Density
Level              : Relaxed density
State              :   2
Multiplicity       :   3
Irrep              :   0
Energy             :     0.0000000000000000 Eh
Relativity type    :
Basis              : AO
                                X                 Y                 Z
Electronic contribution:      0.828688929       2.467926628      -0.001261712
Nuclear contribution   :     -0.230085764      -2.487521722       0.001098868
                        -----------------------------------------
Total Dipole Moment    :      0.598603165      -0.019595093      -0.000162844
                        -----------------------------------------
Magnitude (a.u.)       :      0.598923821
Magnitude (Debye)      :      1.522343370

Rotational constants in cm-1:             0.942021             0.613725             0.436172
Rotational constants in MHz :         28241.081732         18399.007053         13076.113125

                             ****ORCA TERMINATED NORMALLY****
TOTAL RUN TIME: 0 days 0 hours 0 minutes 18 seconds 146 msec
