                         Program Version 6.0.0  -   RELEASE  -
|  1> ! opt def2-TZVPPD wB97M-D3BJ
|  2> %pal nprocs 8 end%pal nprocs 32 end
|  3> %geom Constraints
|  4> {B 9 8 3.5 C}
|  5> {A 8 9 11 52.285714285714285 C}
|  6> end
|  7> MaxIter 300
|  8> end
|  9> *xyz 0 1
| 10> O   2.98579685529314 0.88758230159078 -0.86184571092411
| 11> O   -0.03983205397054 0.68929041702508 -2.10362336723772
| 12> O   0.93431434349854 -3.13274393337945 -0.68767288184107
| 13> O   -3.75829998830163 -0.84727300865116 -0.0472717177755
| 14> N   0.21184538946282 -1.54604804365365 0.7617588924445
| 15> N   -2.13631993928911 0.03188773433438 1.27350571071531
| 16> N   2.02598672506387 -1.14318467211666 -0.64531219127023
| 17> N   -1.91814233924584 0.03137116037665 -1.04498946748291
| 18> C   1.18097737274226 0.71693507080484 0.70173889017321
| 19> C   -0.20686880480777 1.27024627933494 0.21345042231937
| 20> C   0.41441080275909 -0.34173258966541 1.52336266615173
| 21> C   -0.82922175114212 0.58960593673968 1.44434972027296
| 22> C   1.92822011286806 1.69488653817281 1.5963734975385
| 23> C   -0.37809776891576 2.77134929626422 0.04819649358288
| 24> C   2.1403947470937 0.1972384729179 -0.35038567829864
| 25> C   -0.67361678962426 0.6214190571346 -1.0793014500539
| 26> C   1.04142578622994 -2.02697492875068 -0.21027082435993
| 27> C   -2.68467002550422 -0.30396816036989 0.07167054343891
| 28> H   0.80817443950001 -0.54572267081061 2.51895215321335
| 29> H   -0.83785272399001 1.27240685039143 2.28901317073582
| 30> H   2.31167340578204 2.52284411740894 1.00913016264629
| 31> H   1.28982602448342 2.08257620823614 2.38710022492991
| 32> H   2.77390820759972 1.19140411795486 2.06045858523949
| 33> H   -1.41857211141493 3.00964947214868 -0.16882755561625
| 34> H   -0.09065531563179 3.29799318042223 0.95389844358819
| 35> H   0.23426221611057 3.12492645074476 -0.77764887675592
| 36> H   -0.46772570547622 -2.21560145172536 1.0787081584806
| 37> H   -2.71769301149571 -0.17090724573546 2.06627440900372
| 38> H   2.60065167263658 -1.49057255715425 -1.3966820077142
| 39> H   -2.27169977231386 -0.32388339999036 -1.91951041514436
| 40> *
| 41>
| 42>                          ****END OF INPUT****
 Total Charge           Charge          ....    0
 Multiplicity           Mult            ....    1
 Number of Electrons    NEL             ....  132
Dispersion correction           -0.051010337
FINAL SINGLE POINT ENERGY      -908.602414740855
Dispersion correction             ... done (  0.0 sec)
Dispersion correction           -0.051552054
FINAL SINGLE POINT ENERGY      -908.640213920413
Dispersion correction             ... done (  0.1 sec)
Dispersion correction           -0.052195242
FINAL SINGLE POINT ENERGY      -908.667210782813
Dispersion correction             ... done (  0.1 sec)
FINAL SINGLE POINT ENERGY      -908.695548849327
FINAL SINGLE POINT ENERGY      -908.719458758427
FINAL SINGLE POINT ENERGY      -908.728176162677
FINAL SINGLE POINT ENERGY      -908.732198318619
FINAL SINGLE POINT ENERGY      -908.734256894714
FINAL SINGLE POINT ENERGY      -908.735599748979
FINAL SINGLE POINT ENERGY      -908.736523480079
FINAL SINGLE POINT ENERGY      -908.748502801422
FINAL SINGLE POINT ENERGY      -908.748601176822
FINAL SINGLE POINT ENERGY      -908.748678496187
FINAL SINGLE POINT ENERGY      -908.748720879388
FINAL SINGLE POINT ENERGY      -908.748737922868
FINAL SINGLE POINT ENERGY      -908.748748114392
FINAL SINGLE POINT ENERGY      -908.748756570394
Dispersion correction             ... done (  0.1 sec)
Dispersion correction           -0.056582547
FINAL SINGLE POINT ENERGY      -908.748760855250
Dispersion correction             ... done (  0.1 sec)
Dispersion correction           -0.056586929
FINAL SINGLE POINT ENERGY      -908.748762229774
Dispersion correction             ... done (  0.1 sec)
                    ***********************HURRAY********************

CARTESIAN COORDINATES (ANGSTROEM)
---------------------------------
  O      4.124293   -0.400982    1.418785
  O     -2.293504    1.961469   -2.017127
  O      1.401647   -2.696691   -1.300473
  O     -3.579402   -1.672465    0.346195
  N      0.530293   -0.833536   -0.299231
  N     -1.939516   -0.376745    1.227275
  N      2.556116   -1.726213    0.414339
  N     -2.743587    0.036656   -0.904316
  C      1.914882    0.436176    1.149441
  C     -1.188784    1.611870    0.038135
  C      0.520151   -0.171940    0.998070
  C     -0.923776    0.638360    1.124513
  C      2.209007    1.845831    1.244293
  C     -0.552658    2.925570    0.021004
  C      2.976978   -0.564170    1.055868
  C     -2.087888    1.263862   -1.039894
  C      1.464582   -1.819992   -0.475095
  C     -2.813470   -0.741897    0.241048
  H      0.457992   -0.963122    1.762575
  H     -0.844824    1.173037    2.074224
  H      3.252300    2.017723    1.490785
  H      1.978992    2.368503    0.286755
  H      1.541244    2.347105    1.955743
  H     -0.412076    3.329879    1.025600
  H      0.468185    2.884696   -0.417838
  H     -1.114777    3.614691   -0.602451
  H     -0.342838   -0.993465   -0.778715
  H     -1.962211   -0.972153    2.035424
  H      3.271832   -2.417730    0.248948
  H     -3.416581   -0.189329   -1.619279

 Multiplicity           Mult            ....    1
 Number of Electrons    NEL             ....  132
 Basis Dimension        Dim             ....  882

ORBITAL ENERGIES
----------------

  NO   OCC          E(Eh)            E(eV)
   0   2.0000     -19.344689      -526.3957
   1   2.0000     -19.328567      -525.9570
   2   2.0000     -19.326450      -525.8994
   3   2.0000     -19.321282      -525.7588
   4   2.0000     -14.575025      -396.6066
   5   2.0000     -14.568605      -396.4319
   6   2.0000     -14.566101      -396.3638
   7   2.0000     -14.564606      -396.3231
   8   2.0000     -10.510558      -286.0068
   9   2.0000     -10.508989      -285.9641
  10   2.0000     -10.494719      -285.5758
  11   2.0000     -10.480283      -285.1830
  12   2.0000     -10.461301      -284.6665
  13   2.0000     -10.453841      -284.4635
  14   2.0000     -10.439073      -284.0616
  15   2.0000     -10.410385      -283.2810
  16   2.0000     -10.394522      -282.8493
  17   2.0000     -10.378488      -282.4130
  18   2.0000      -1.227616       -33.4051
  19   2.0000      -1.221127       -33.2286
  20   2.0000      -1.205671       -32.8080
  21   2.0000      -1.192544       -32.4508
  22   2.0000      -1.124071       -30.5875
  23   2.0000      -1.106532       -30.1103
  24   2.0000      -1.069685       -29.1076
  25   2.0000      -1.060999       -28.8712
  26   2.0000      -0.978774       -26.6338
  27   2.0000      -0.960248       -26.1297
  28   2.0000      -0.893093       -24.3023
  29   2.0000      -0.852763       -23.2049
  30   2.0000      -0.830005       -22.5856
  31   2.0000      -0.796662       -21.6783
  32   2.0000      -0.792309       -21.5598
  33   2.0000      -0.785979       -21.3876
  34   2.0000      -0.706632       -19.2284
  35   2.0000      -0.698814       -19.0157
  36   2.0000      -0.691905       -18.8277
  37   2.0000      -0.674627       -18.3575
  38   2.0000      -0.652527       -17.7562
  39   2.0000      -0.633752       -17.2453
  40   2.0000      -0.628316       -17.0974
  41   2.0000      -0.609282       -16.5794
  42   2.0000      -0.602518       -16.3954
  43   2.0000      -0.587757       -15.9937
  44   2.0000      -0.582035       -15.8380
  45   2.0000      -0.580531       -15.7971
  46   2.0000      -0.573253       -15.5990
  47   2.0000      -0.564240       -15.3538
  48   2.0000      -0.562417       -15.3041
  49   2.0000      -0.557967       -15.1830
  50   2.0000      -0.554090       -15.0776
  51   2.0000      -0.537725       -14.6323
  52   2.0000      -0.535053       -14.5595
  53   2.0000      -0.527042       -14.3415
  54   2.0000      -0.514552       -14.0017
  55   2.0000      -0.506141       -13.7728
  56   2.0000      -0.497544       -13.5389
  57   2.0000      -0.434902       -11.8343
  58   2.0000      -0.418386       -11.3849
  59   2.0000      -0.410541       -11.1714
  60   2.0000      -0.403823       -10.9886
  61   2.0000      -0.400460       -10.8971
  62   2.0000      -0.393377       -10.7043
  63   2.0000      -0.389657       -10.6031
  64   2.0000      -0.385143       -10.4803
  65   2.0000      -0.276483        -7.5235
  66   0.0000      -0.131013        -3.5650
  67   0.0000       0.006484         0.1764
  68   0.0000       0.027436         0.7466
  69   0.0000       0.031300         0.8517
  70   0.0000       0.033680         0.9165

MULLIKEN ATOMIC CHARGES
-----------------------
   0 O :   -0.617492
   1 O :   -0.673866
   2 O :   -0.617907
   3 O :   -0.651093
   4 N :   -0.211503
   5 N :   -0.149108
   6 N :   -0.019348
   7 N :   -0.021473
   8 C :    0.360153
   9 C :    0.420456
  10 C :    0.456949
  11 C :    0.117452
  12 C :   -1.181532
  13 C :   -1.384422
  14 C :    0.297882
  15 C :    0.465291
  16 C :    0.243050
  17 C :    0.481320
  18 H :    0.334498
  19 H :    0.428589
  20 H :    0.314356
  21 H :    0.204206
  22 H :    0.245873
  23 H :    0.307033
  24 H :    0.178198
  25 H :    0.338829
  26 H :    0.164700
  27 H :    0.039124
  28 H :    0.094917
  29 H :    0.034869
Sum of atomic charges:   -0.0000000

LOEWDIN ATOMIC CHARGES
----------------------
   0 O :    0.100767
   1 O :    0.085168
   2 O :    0.105215
   3 O :    0.088620
   4 N :    0.281229
   5 N :    0.269954
   6 N :    0.325527
   7 N :    0.318570
   8 C :    0.018323
   9 C :   -0.045647
  10 C :   -0.068905
  11 C :   -0.083914
  12 C :    0.183692
  13 C :    0.164785
  14 C :   -0.401530
  15 C :   -0.407904
  16 C :   -0.466706
  17 C :   -0.493976
  18 H :    0.039587
  19 H :    0.052521
  20 H :    0.007974
  21 H :    0.003146
  22 H :    0.010770
  23 H :    0.003970
  24 H :   -0.006240
  25 H :    0.004705
  26 H :   -0.039236
  27 H :   -0.026613
  28 H :   -0.012623
  29 H :   -0.011229

  Mayer bond orders larger than 0.100000
B(  0-O , 14-C ) :   1.4412 B(  1-O , 15-C ) :   1.2726 B(  2-O , 16-C ) :   1.6058
B(  3-O , 17-C ) :   1.6007 B(  4-N ,  8-C ) :   0.3558 B(  4-N ,  9-C ) :   0.1136
B(  4-N , 10-C ) :   0.1542 B(  4-N , 11-C ) :   0.1283 B(  4-N , 16-C ) :   1.1728
B(  4-N , 26-H ) :   0.9724 B(  5-N , 10-C ) :   0.1707 B(  5-N , 11-C ) :   0.4016
B(  5-N , 17-C ) :   1.0536 B(  5-N , 27-H ) :   1.1363 B(  6-N ,  8-C ) :  -0.1249
B(  6-N , 14-C ) :   1.0075 B(  6-N , 16-C ) :   0.9865 B(  6-N , 28-H ) :   1.0283
B(  7-N , 15-C ) :   1.0089 B(  7-N , 17-C ) :   0.9821 B(  7-N , 29-H ) :   1.1070
B(  8-C ,  9-C ) :   0.3931 B(  8-C , 10-C ) :  -0.3770 B(  8-C , 11-C ) :   0.1068
B(  8-C , 12-C ) :   0.5175 B(  8-C , 14-C ) :   0.8390 B(  8-C , 18-H ) :  -0.1021
B(  8-C , 20-H ) :  -0.1039 B(  9-C , 10-C ) :   0.1892 B(  9-C , 11-C ) :   0.3431
B(  9-C , 13-C ) :   0.3223 B(  9-C , 15-C ) :   0.7625 B(  9-C , 19-H ) :  -0.1771
B(  9-C , 23-H ) :  -0.1540 B( 10-C , 11-C ) :   0.6267 B( 10-C , 16-C ) :  -0.1471
B( 10-C , 18-H ) :   0.9107 B( 11-C , 13-C ) :  -0.2207 B( 11-C , 17-C ) :  -0.1052
B( 11-C , 19-H ) :   0.8996 B( 12-C , 20-H ) :   1.0333 B( 12-C , 21-H ) :   0.8453
B( 12-C , 22-H ) :   0.9862 B( 13-C , 23-H ) :   1.0534 B( 13-C , 24-H ) :   0.8929
B( 13-C , 25-H ) :   0.9452

Dispersion correction           -0.056585706
FINAL SINGLE POINT ENERGY      -908.748761858741

DIPOLE MOMENT
-------------

Method             : SCF
Type of density    : Electron Density
Multiplicity       :   1
Irrep              :   0
Energy             :  -908.6921761530720687 Eh
Relativity type    :
Basis              : AO
                                X                 Y                 Z
Electronic contribution:     -2.554994590     -10.329368162      -3.330955273
Nuclear contribution   :      2.989820221      11.752811113       5.129798714
                        -----------------------------------------
Total Dipole Moment    :      0.434825630       1.423442952       1.798843441
                        -----------------------------------------
Magnitude (a.u.)       :      2.334759279
Magnitude (Debye)      :      5.934486465

Rotational constants in cm-1:             0.021884             0.010476             0.008624
Rotational constants in MHz :           656.071454           314.054915           258.526214

                             ****ORCA TERMINATED NORMALLY****
TOTAL RUN TIME: 0 days 12 hours 29 minutes 47 seconds 130 msec
