                         Program Version 6.0.0  -   RELEASE  -
|  1> ! Engrad def2-TZVPPD wB97M-D3BJ
|  2> %pal nprocs 8 end%pal nprocs 32 end
|  3>  %tddft nroots 2 Iroot 2
|  4> sf true
|  5> end
|  6> *xyz 0 3
|  7> O   3.64349577767894 0.35800079043883 -0.43490663687913
|  8> O   -1.18485055487252 1.2176651086852 -2.61976943564785
|  9> O   0.48029428214752 -2.74568122408155 -0.79734730437408
| 10> O   -3.0671495667116 -1.71226714544309 0.20803732521913
| 11> N   0.33588349427781 -1.30364158081368 0.95611297491725
| 12> N   -2.06367012609544 0.12714858867198 1.10260738890222
| 13> N   1.74693985545162 -0.8473331316187 -0.82064309203246
| 14> N   -1.7465858786646 -0.41746390870414 -1.13073467887349
| 15> C   1.97230735365221 0.39259730795611 1.22374985007031
| 16> C   -1.0116390600811 1.69621414991699 -0.31138755648474
| 17> C   0.43560979580086 0.04973641871759 1.44436179324572
| 18> C   -0.88868862442324 0.96305996454597 1.04150460167677
| 19> C   2.76535863593059 1.00671008191695 2.29626523868654
| 20> C   -1.06009223647187 3.16082046696323 -0.40444239584619
| 21> C   2.54124214631732 0.01059965400716 -0.04010153773947
| 22> C   -1.30477021824852 0.86177571359204 -1.46239819205814
| 23> C   0.82115919401483 -1.71314091672387 -0.26811578540928
| 24> C   -2.34602448024713 -0.75272449026917 0.08059433690509
| 25> H   0.31021506289462 -0.01605100602515 2.52839183280293
| 26> H   -0.96016272998612 1.71699523222161 1.8225522082436
| 27> H   3.80815411184517 1.07934542310577 2.00360424989441
| 28> H   2.39704909622147 2.00662764533407 2.54793949619987
| 29> H   2.68440584489922 0.41581204887244 3.21607618394579
| 30> H   -2.00541673542525 3.53086225097162 0.01586137620595
| 31> H   -0.26108895913052 3.62924897043114 0.16988082880019
| 32> H   -1.00961217306203 3.47292641316306 -1.44341609280294
| 33> H   -0.31535881453586 -1.95011712256968 1.36843625828196
| 34> H   -2.48921980843883 -0.11018709962154 1.98231862049036
| 35> H   2.17086764189127 -1.16798483275939 -1.67609755649776
| 36> H   -1.9460523266288 -1.04455377088182 -1.89433429984255
| 37> *
| 38>
| 39>                          ****END OF INPUT****

CARTESIAN COORDINATES (ANGSTROEM)
---------------------------------
  O      3.643496    0.358001   -0.434907
  O     -1.184851    1.217665   -2.619769
  O      0.480294   -2.745681   -0.797347
  O     -3.067150   -1.712267    0.208037
  N      0.335883   -1.303642    0.956113
  N     -2.063670    0.127149    1.102607
  N      1.746940   -0.847333   -0.820643
  N     -1.746586   -0.417464   -1.130735
  C      1.972307    0.392597    1.223750
  C     -1.011639    1.696214   -0.311388
  C      0.435610    0.049736    1.444362
  C     -0.888689    0.963060    1.041505
  C      2.765359    1.006710    2.296265
  C     -1.060092    3.160820   -0.404442
  C      2.541242    0.010600   -0.040102
  C     -1.304770    0.861776   -1.462398
  C      0.821159   -1.713141   -0.268116
  C     -2.346024   -0.752724    0.080594
  H      0.310215   -0.016051    2.528392
  H     -0.960163    1.716995    1.822552
  H      3.808154    1.079345    2.003604
  H      2.397049    2.006628    2.547939
  H      2.684406    0.415812    3.216076
  H     -2.005417    3.530862    0.015861
  H     -0.261089    3.629249    0.169881
  H     -1.009612    3.472926   -1.443416
  H     -0.315359   -1.950117    1.368436
  H     -2.489220   -0.110187    1.982319
  H      2.170868   -1.167985   -1.676098
  H     -1.946052   -1.044554   -1.894334

 Total Charge           Charge          ....    0
 Multiplicity           Mult            ....    3
 Number of Electrons    NEL             ....  132
 Basis Dimension        Dim             ....  882

ORBITAL ENERGIES
----------------
                 SPIN UP ORBITALS
  NO   OCC          E(Eh)            E(eV)
   0   1.0000     -19.337177      -526.1913
   1   1.0000     -19.331214      -526.0291
   2   1.0000     -19.321540      -525.7658
   3   1.0000     -19.315525      -525.6022
   4   1.0000     -14.563043      -396.2805
   5   1.0000     -14.557907      -396.1408
   6   1.0000     -14.556944      -396.1146
   7   1.0000     -14.554368      -396.0445
   8   1.0000     -10.504300      -285.8365
   9   1.0000     -10.498940      -285.6907
  10   1.0000     -10.480332      -285.1843
  11   1.0000     -10.476220      -285.0724
  12   1.0000     -10.450924      -284.3841
  13   1.0000     -10.449447      -284.3439
  14   1.0000     -10.426346      -283.7153
  15   1.0000     -10.414701      -283.3984
  16   1.0000     -10.376690      -282.3641
  17   1.0000     -10.371160      -282.2136
  18   1.0000      -1.220372       -33.2080
  19   1.0000      -1.215200       -33.0673
  20   1.0000      -1.194854       -32.5136
  21   1.0000      -1.194356       -32.5001
  22   1.0000      -1.116282       -30.3756
  23   1.0000      -1.097212       -29.8567
  24   1.0000      -1.062455       -28.9109
  25   1.0000      -1.052729       -28.6462
  26   1.0000      -0.964620       -26.2486
  27   1.0000      -0.954892       -25.9839
  28   1.0000      -0.883086       -24.0300
  29   1.0000      -0.840110       -22.8606
  30   1.0000      -0.826985       -22.5034
  31   1.0000      -0.803439       -21.8627
  32   1.0000      -0.780566       -21.2403
  33   1.0000      -0.774107       -21.0645
  34   1.0000      -0.696050       -18.9405
  35   1.0000      -0.692300       -18.8384
  36   1.0000      -0.674626       -18.3575
  37   1.0000      -0.659815       -17.9545
  38   1.0000      -0.653760       -17.7897
  39   1.0000      -0.640439       -17.4272
  40   1.0000      -0.618796       -16.8383
  41   1.0000      -0.601536       -16.3686
  42   1.0000      -0.593922       -16.1614
  43   1.0000      -0.586221       -15.9519
  44   1.0000      -0.571586       -15.5536
  45   1.0000      -0.568766       -15.4769
  46   1.0000      -0.562038       -15.2938
  47   1.0000      -0.559828       -15.2337
  48   1.0000      -0.556875       -15.1533
  49   1.0000      -0.548761       -14.9325
  50   1.0000      -0.545637       -14.8475
  51   1.0000      -0.541768       -14.7423
  52   1.0000      -0.535738       -14.5782
  53   1.0000      -0.521031       -14.1780
  54   1.0000      -0.515103       -14.0167
  55   1.0000      -0.504510       -13.7284
  56   1.0000      -0.487889       -13.2761
  57   1.0000      -0.422347       -11.4927
  58   1.0000      -0.419377       -11.4118
  59   1.0000      -0.415888       -11.3169
  60   1.0000      -0.399932       -10.8827
  61   1.0000      -0.399292       -10.8653
  62   1.0000      -0.390894       -10.6368
  63   1.0000      -0.389076       -10.5873
  64   1.0000      -0.376796       -10.2532
  65   1.0000      -0.340572        -9.2674
  66   1.0000      -0.331672        -9.0252
  67   0.0000       0.004746         0.1291
  68   0.0000       0.027267         0.7420
  69   0.0000       0.031524         0.8578
  70   0.0000       0.038627         1.0511
  71   0.0000       0.055113         1.4997

                 SPIN DOWN ORBITALS
  NO   OCC          E(Eh)            E(eV)
   0   1.0000     -19.332009      -526.0507
   1   1.0000     -19.326831      -525.9098
   2   1.0000     -19.321291      -525.7590
   3   1.0000     -19.315217      -525.5938
   4   1.0000     -14.562241      -396.2587
   5   1.0000     -14.557673      -396.1344
   6   1.0000     -14.556691      -396.1077
   7   1.0000     -14.553663      -396.0253
   8   1.0000     -10.504314      -285.8369
   9   1.0000     -10.498957      -285.6911
  10   1.0000     -10.481431      -285.2142
  11   1.0000     -10.477253      -285.1005
  12   1.0000     -10.451042      -284.3873
  13   1.0000     -10.449634      -284.3490
  14   1.0000     -10.414860      -283.4027
  15   1.0000     -10.402997      -283.0799
  16   1.0000     -10.377274      -282.3800
  17   1.0000     -10.371741      -282.2294
  18   1.0000      -1.218844       -33.1664
  19   1.0000      -1.212789       -33.0017
  20   1.0000      -1.189156       -32.3586
  21   1.0000      -1.188942       -32.3528
  22   1.0000      -1.113830       -30.3089
  23   1.0000      -1.094570       -29.7848
  24   1.0000      -1.060798       -28.8658
  25   1.0000      -1.051142       -28.6030
  26   1.0000      -0.949897       -25.8480
  27   1.0000      -0.938050       -25.5256
  28   1.0000      -0.879698       -23.9378
  29   1.0000      -0.834425       -22.7059
  30   1.0000      -0.818405       -22.2699
  31   1.0000      -0.798452       -21.7270
  32   1.0000      -0.779267       -21.2049
  33   1.0000      -0.772562       -21.0225
  34   1.0000      -0.689665       -18.7667
  35   1.0000      -0.685758       -18.6604
  36   1.0000      -0.670018       -18.2321
  37   1.0000      -0.654394       -17.8070
  38   1.0000      -0.643807       -17.5189
  39   1.0000      -0.636199       -17.3119
  40   1.0000      -0.616147       -16.7662
  41   1.0000      -0.596814       -16.2401
  42   1.0000      -0.583909       -15.8890
  43   1.0000      -0.577550       -15.7159
  44   1.0000      -0.566456       -15.4141
  45   1.0000      -0.559988       -15.2381
  46   1.0000      -0.556382       -15.1399
  47   1.0000      -0.554298       -15.0832
  48   1.0000      -0.546600       -14.8737
  49   1.0000      -0.542121       -14.7519
  50   1.0000      -0.540200       -14.6996
  51   1.0000      -0.533570       -14.5192
  52   1.0000      -0.530439       -14.4340
  53   1.0000      -0.508969       -13.8497
  54   1.0000      -0.505761       -13.7624
  55   1.0000      -0.498621       -13.5682
  56   1.0000      -0.481655       -13.1065
  57   1.0000      -0.417296       -11.3552
  58   1.0000      -0.416356       -11.3296
  59   1.0000      -0.407522       -11.0892
  60   1.0000      -0.388692       -10.5769
  61   1.0000      -0.387539       -10.5455
  62   1.0000      -0.384736       -10.4692
  63   1.0000      -0.383311       -10.4304
  64   1.0000      -0.370904       -10.0928
  65   0.0000      -0.057360        -1.5608
  66   0.0000      -0.047477        -1.2919
  67   0.0000       0.004518         0.1229
  68   0.0000       0.027065         0.7365
  69   0.0000       0.031391         0.8542

----------------------------------------------------------------------------------------------------
          SPIN FLIP ABSORPTION SPECTRUM VIA TRANSITION ELECTRIC DIPOLE MOMENTS
----------------------------------------------------------------------------------------------------
     Transition      Energy     Energy  Wavelength fosc(D2)      D2        DX        DY        DZ
                      (eV)      (cm-1)    (nm)                 (au**2)    (au)      (au)      (au)
----------------------------------------------------------------------------------------------------
  1-3A  ->  2-3A    0.007273      58.7  170474.7   0.000000003   0.00001  -0.00334  -0.00046  -0.00176

Dispersion correction             ... done (  0.0 sec)

MULLIKEN ATOMIC CHARGES AND SPIN DENSITIES
------------------------------------------
   0 O :   -0.648250    0.180229
   1 O :   -0.680432   -0.153598
   2 O :   -0.657031    0.010730
   3 O :   -0.638952   -0.007921
   4 N :   -0.269355    0.016818
   5 N :   -0.301973   -0.023113
   6 N :    0.075878    0.002146
   7 N :    0.061441   -0.015598
   8 C :   -0.083815    0.405343
   9 C :    1.252829    0.264087
  10 C :    0.377411    0.061737
  11 C :    0.081656   -0.364637
  12 C :   -1.390863   -0.005854
  13 C :   -1.396662    0.035721
  14 C :    0.551023    0.153520
  15 C :   -0.213598   -0.599255
  16 C :    0.320895   -0.015098
  17 C :    0.389279    0.025377
  18 H :    0.552476    0.017622
  19 H :    0.395172   -0.024437
  20 H :    0.332258    0.008141
  21 H :    0.272348    0.025900
  22 H :    0.305705    0.022201
  23 H :    0.361181   -0.016375
  24 H :    0.345779    0.010112
  25 H :    0.327337   -0.019744
  26 H :    0.081272    0.001891
  27 H :    0.101827    0.001691
  28 H :    0.063549   -0.001011
  29 H :    0.031616    0.003375
Sum of atomic charges       :   -0.0000000

LOEWDIN ATOMIC CHARGES AND SPIN DENSITIES
-----------------------------------------
   0 O :    0.096243    0.162539
   1 O :    0.083391   -0.142969
   2 O :    0.092606    0.010273
   3 O :    0.096674   -0.007750
   4 N :    0.252422    0.016903
   5 N :    0.260788   -0.020549
   6 N :    0.327144    0.002788
   7 N :    0.323144   -0.012493
   8 C :    0.000739    0.501278
   9 C :    0.010351   -0.489228
  10 C :   -0.040169    0.015206
  11 C :   -0.072246   -0.030169
  12 C :    0.175506    0.081097
  13 C :    0.178699   -0.081372
  14 C :   -0.395074    0.082917
  15 C :   -0.426199   -0.087472
  16 C :   -0.496292    0.000946
  17 C :   -0.495580   -0.001659
  18 H :    0.033711   -0.000378
  19 H :    0.038686    0.000711
  20 H :   -0.004751   -0.001233
  21 H :    0.007149    0.023257
  22 H :    0.007995    0.020757
  23 H :    0.020257   -0.028165
  24 H :    0.003063   -0.013327
  25 H :   -0.000529   -0.000793
  26 H :   -0.030229    0.001836
  27 H :   -0.028357   -0.002210
  28 H :   -0.012775    0.000299
  29 H :   -0.006367   -0.001040

  Mayer bond orders larger than 0.100000
B(  0-O , 14-C ) :   1.4246 B(  1-O , 15-C ) :   1.4140 B(  2-O , 16-C ) :   1.4997
B(  3-O , 17-C ) :   1.5548 B(  4-N ,  8-C ) :   0.2751 B(  4-N , 10-C ) :   0.1833
B(  4-N , 16-C ) :   1.0427 B(  4-N , 26-H ) :   1.0709 B(  5-N ,  9-C ) :   0.2344
B(  5-N , 10-C ) :   0.1741 B(  5-N , 11-C ) :   0.1233 B(  5-N , 17-C ) :   1.1042
B(  5-N , 27-H ) :   1.0165 B(  6-N , 14-C ) :   1.0573 B(  6-N , 16-C ) :   1.0196
B(  6-N , 28-H ) :   1.0407 B(  7-N , 11-C ) :   0.1087 B(  7-N , 15-C ) :   0.9027
B(  7-N , 17-C ) :   1.0162 B(  7-N , 29-H ) :   1.0888 B(  8-C , 10-C ) :  -0.3650
B(  8-C , 12-C ) :   0.5220 B(  8-C , 14-C ) :   0.7481 B(  8-C , 16-C ) :   0.1482
B(  8-C , 18-H ) :  -0.1385 B(  8-C , 20-H ) :  -0.1172 B(  9-C , 10-C ) :   0.1376
B(  9-C , 13-C ) :   0.4415 B(  9-C , 15-C ) :   0.2847 B( 10-C , 11-C ) :   0.6652
B( 10-C , 16-C ) :  -0.1695 B( 10-C , 18-H ) :   0.7489 B( 10-C , 19-H ) :  -0.1353
B( 11-C , 15-C ) :   0.1271 B( 11-C , 17-C ) :  -0.1496 B( 11-C , 19-H ) :   1.0113
B( 12-C , 14-C ) :  -0.1293 B( 12-C , 20-H ) :   0.9824 B( 12-C , 21-H ) :   0.9398
B( 12-C , 22-H ) :   0.9345 B( 13-C , 23-H ) :   0.8790 B( 13-C , 24-H ) :   0.8876
B( 13-C , 25-H ) :   0.9800 B( 15-C , 17-C ) :  -0.1123

Dispersion correction           -0.056220120
FINAL SINGLE POINT ENERGY      -908.781937300216

DIPOLE MOMENT
-------------

Method             : TDA/CIS
Type of density    : Electron Density
Level              : Relaxed density
State              :   2
Multiplicity       :   3
Irrep              :   0
Energy             :     0.0000000000000000 Eh
Relativity type    :
Basis              : AO
                                X                 Y                 Z
Electronic contribution:     -2.317045854      -9.029040978      -7.313145075
Nuclear contribution   :      2.257807452      10.813712915      10.057272796
                        -----------------------------------------
Total Dipole Moment    :     -0.059238402       1.784671937       2.744127721
                        -----------------------------------------
Magnitude (a.u.)       :      3.273957858
Magnitude (Debye)      :      8.321739537

Rotational constants in cm-1:             0.019640             0.012887             0.011419
Rotational constants in MHz :           588.799669           386.340459           342.328858

                             ****ORCA TERMINATED NORMALLY****
TOTAL RUN TIME: 0 days 0 hours 22 minutes 0 seconds 371 msec
