                         Program Version 6.0.0  -   RELEASE  -
|  1> ! Engrad wB97M-D3BJ def2-TZVPPD
|  2> %pal nprocs 8 end%pal nprocs 16 end
|  3> %tddft nroots 2 Iroot 2
|  4>  sf true
|  5> end
|  6> *xyz 0 3
|  7> O   0.61133788251504 0.98802597096459 -0.00029198789918
|  8> C   0.75643431840758 -0.34337962840791 -9.415442818e-05
|  9> C   -0.65156944830478 -0.58604926244647 0.00011758307237
| 10> H   1.26918195959404 -0.74326260740822 0.88534298953401
| 11> H   1.26894716551591 -0.74369238392932 -0.88547303958402
| 12> H   -1.20644480323888 -0.54008441222947 -0.92527077364434
| 13> H   -1.20614439737512 -0.53981206479313 0.92566938294935
| 14> *
| 15>
| 16>                          ****END OF INPUT****

CARTESIAN COORDINATES (ANGSTROEM)
---------------------------------
  O      0.611338    0.988026   -0.000292
  C      0.756434   -0.343380   -0.000094
  C     -0.651569   -0.586049    0.000118
  H      1.269182   -0.743263    0.885343
  H      1.268947   -0.743692   -0.885473
  H     -1.206445   -0.540084   -0.925271
  H     -1.206144   -0.539812    0.925669

 Total Charge           Charge          ....    0
 Multiplicity           Mult            ....    3
 Number of Electrons    NEL             ....   24
 Basis Dimension        Dim             ....  182

ORBITAL ENERGIES
----------------
                 SPIN UP ORBITALS
  NO   OCC          E(Eh)            E(eV)
   0   1.0000     -19.403096      -527.9851
   1   1.0000     -10.406769      -283.1826
   2   1.0000     -10.343002      -281.4474
   3   1.0000      -1.206020       -32.8175
   4   1.0000      -0.869580       -23.6625
   5   1.0000      -0.738574       -20.0976
   6   1.0000      -0.641173       -17.4472
   7   1.0000      -0.602823       -16.4036
   8   1.0000      -0.552405       -15.0317
   9   1.0000      -0.509441       -13.8626
  10   1.0000      -0.447389       -12.1741
  11   1.0000      -0.432767       -11.7762
  12   1.0000      -0.286735        -7.8025
  13   0.0000       0.041113         1.1187
  14   0.0000       0.063627         1.7314
  15   0.0000       0.073188         1.9915
  16   0.0000       0.086288         2.3480
  17   0.0000       0.117227         3.1899

                 SPIN DOWN ORBITALS
  NO   OCC          E(Eh)            E(eV)
   0   1.0000     -19.375705      -527.2397
   1   1.0000     -10.408002      -283.2161
   2   1.0000     -10.330288      -281.1014
   3   1.0000      -1.147314       -31.2200
   4   1.0000      -0.835534       -22.7360
   5   1.0000      -0.716386       -19.4939
   6   1.0000      -0.599804       -16.3215
   7   1.0000      -0.567232       -15.4352
   8   1.0000      -0.529749       -14.4152
   9   1.0000      -0.474935       -12.9236
  10   1.0000      -0.387472       -10.5437
  11   0.0000      -0.071619        -1.9489
  12   0.0000       0.024237         0.6595
  13   0.0000       0.039781         1.0825
  14   0.0000       0.064283         1.7492
  15   0.0000       0.072236         1.9657

----------------------------------------------------------------------------------------------------
          SPIN FLIP ABSORPTION SPECTRUM VIA TRANSITION ELECTRIC DIPOLE MOMENTS
----------------------------------------------------------------------------------------------------
     Transition      Energy     Energy  Wavelength fosc(D2)      D2        DX        DY        DZ
                      (eV)      (cm-1)    (nm)                 (au**2)    (au)      (au)      (au)
----------------------------------------------------------------------------------------------------
  1-3A  ->  2-3A    1.936553   15619.4   640.2   0.000504527   0.01063  -0.00002  -0.00002  -0.10312

Dispersion correction             ... done (  0.0 sec)

MULLIKEN ATOMIC CHARGES AND SPIN DENSITIES
------------------------------------------
   0 O :   -0.312771    0.752260
   1 C :    0.101239    0.257248
   2 C :   -0.453976   -0.814715
   3 H :    0.205548    0.020455
   4 H :    0.205564    0.020434
   5 H :    0.127201   -0.117848
   6 H :    0.127195   -0.117835
Sum of atomic charges       :    0.0000000

LOEWDIN ATOMIC CHARGES AND SPIN DENSITIES
-----------------------------------------
   0 O :    0.105050    0.687608
   1 C :   -0.267521    0.042057
   2 C :    0.216284   -0.613373
   3 H :    0.040846    0.029697
   4 H :    0.040842    0.029690
   5 H :   -0.067748   -0.087839
   6 H :   -0.067753   -0.087840

  Mayer bond orders larger than 0.100000
B(  0-O ,  1-C ) :   0.8782 B(  0-O ,  2-C ) :   0.1937 B(  1-C ,  2-C ) :   0.6119
B(  1-C ,  3-H ) :   0.9793 B(  1-C ,  4-H ) :   0.9793 B(  2-C ,  5-H ) :   1.1129
B(  2-C ,  6-H ) :   1.1129

Dispersion correction           -0.005672506
FINAL SINGLE POINT ENERGY      -153.727787783278

DIPOLE MOMENT
-------------

Method             : TDA/CIS
Type of density    : Electron Density
Level              : Relaxed density
State              :   2
Multiplicity       :   3
Irrep              :   0
Energy             :     0.0000000000000000 Eh
Relativity type    :
Basis              : AO
                                X                 Y                 Z
Electronic contribution:      1.175941336       2.265047891      -0.000590597
Nuclear contribution   :     -0.828191840      -2.569437637       0.000599937
                        -----------------------------------------
Total Dipole Moment    :      0.347749496      -0.304389746       0.000009340
                        -----------------------------------------
Magnitude (a.u.)       :      0.462150224
Magnitude (Debye)      :      1.174692515

Rotational constants in cm-1:             1.102257             0.476378             0.382549
Rotational constants in MHz :         33044.819483         14281.467412         11468.543715

                             ****ORCA TERMINATED NORMALLY****
TOTAL RUN TIME: 0 days 0 hours 0 minutes 16 seconds 125 msec
