                         Program Version 6.0.0  -   RELEASE  -
|  1> ! Engrad def2-TZVPPD wB97M-D3BJ
|  2> %pal nprocs 8 end%pal nprocs 32 end
|  3>  %tddft nroots 2 Iroot 1
|  4> sf true
|  5> end
|  6> *xyz 0 3
|  7> O   2.45915603901572 1.27059076903402 -0.31410837823296
|  8> O   -0.82220356017181 0.81572920433937 -2.40267593707086
|  9> O   0.52924814584588 -2.6313798619981 -1.61252242119925
| 10> O   -2.39174457009078 -1.52675149821245 1.16210516132533
| 11> N   0.63645466838829 -2.1556249772295 0.61062072429361
| 12> N   -1.84196941741387 0.66407849545354 1.44388061384181
| 13> N   1.59303282206562 -0.73175677997681 -0.92717664389632
| 14> N   -1.66972386738019 -0.30819252479151 -0.62959767281848
| 15> C   1.50065362540287 -0.07523872673471 1.3886026910673
| 16> C   -0.91661224197246 1.96712394159758 -0.3276666290413
| 17> C   0.8899883886746 -1.24597041489286 1.60901275221351
| 18> C   -1.28342726367727 1.82280691993677 0.95044239434664
| 19> C   1.78834072500328 0.93142725599888 2.45392830706013
| 20> C   -0.28073556206499 3.19844020841585 -0.8845982510757
| 21> C   1.90598450308958 0.24303601235126 0.01848050912174
| 22> C   -1.11666467837484 0.8300799775185 -1.22864476275064
| 23> C   0.89414222686927 -1.9013918245411 -0.71858540045392
| 24> C   -2.00490907048883 -0.47564279783669 0.69311613109394
| 25> H   0.54902623889614 -1.54152983026232 2.58965550478615
| 26> H   -1.16552312886462 2.61612159536815 1.67276466810249
| 27> H   1.34627984187767 1.8930274764304 2.19739486822967
| 28> H   1.39594815393958 0.60315188949441 3.41403564019079
| 29> H   2.85924991479394 1.0988901908228 2.55229466830144
| 30> H   -0.83581860493779 3.5574569187415 -1.74860212217266
| 31> H   -0.24239680232104 3.98497580034409 -0.13449966667196
| 32> H   0.73370697250032 2.97864244738436 -1.21157770998525
| 33> H   0.02165667802162 -2.9317593443157 0.78488352969277
| 34> H   -2.07349319663593 0.57648093064655 2.41627192046559
| 35> H   1.7528415286983 -0.48841812265416 -1.89317639416579
| 36> H   -1.75788850868832 -1.1234033304321 -1.21945809459785
| 37> *
| 38>
| 39>                          ****END OF INPUT****

CARTESIAN COORDINATES (ANGSTROEM)
---------------------------------
  O      2.459156    1.270591   -0.314108
  O     -0.822204    0.815729   -2.402676
  O      0.529248   -2.631380   -1.612522
  O     -2.391745   -1.526751    1.162105
  N      0.636455   -2.155625    0.610621
  N     -1.841969    0.664078    1.443881
  N      1.593033   -0.731757   -0.927177
  N     -1.669724   -0.308193   -0.629598
  C      1.500654   -0.075239    1.388603
  C     -0.916612    1.967124   -0.327667
  C      0.889988   -1.245970    1.609013
  C     -1.283427    1.822807    0.950442
  C      1.788341    0.931427    2.453928
  C     -0.280736    3.198440   -0.884598
  C      1.905985    0.243036    0.018481
  C     -1.116665    0.830080   -1.228645
  C      0.894142   -1.901392   -0.718585
  C     -2.004909   -0.475643    0.693116
  H      0.549026   -1.541530    2.589656
  H     -1.165523    2.616122    1.672765
  H      1.346280    1.893027    2.197395
  H      1.395948    0.603152    3.414036
  H      2.859250    1.098890    2.552295
  H     -0.835819    3.557457   -1.748602
  H     -0.242397    3.984976   -0.134500
  H      0.733707    2.978642   -1.211578
  H      0.021657   -2.931759    0.784884
  H     -2.073493    0.576481    2.416272
  H      1.752842   -0.488418   -1.893176
  H     -1.757889   -1.123403   -1.219458

 Total Charge           Charge          ....    0
 Multiplicity           Mult            ....    3
 Number of Electrons    NEL             ....  132
 Basis Dimension        Dim             ....  882

ORBITAL ENERGIES
----------------
                 SPIN UP ORBITALS
  NO   OCC          E(Eh)            E(eV)
   0   1.0000     -19.332439      -526.0624
   1   1.0000     -19.326986      -525.9140
   2   1.0000     -19.322195      -525.7837
   3   1.0000     -19.319269      -525.7040
   4   1.0000     -14.592793      -397.0901
   5   1.0000     -14.584429      -396.8625
   6   1.0000     -14.570166      -396.4744
   7   1.0000     -14.549805      -395.9203
   8   1.0000     -10.514057      -286.1020
   9   1.0000     -10.509467      -285.9771
  10   1.0000     -10.477763      -285.1144
  11   1.0000     -10.457535      -284.5640
  12   1.0000     -10.430858      -283.8381
  13   1.0000     -10.408739      -283.2362
  14   1.0000     -10.395585      -282.8782
  15   1.0000     -10.379059      -282.4286
  16   1.0000     -10.373259      -282.2707
  17   1.0000     -10.347682      -281.5748
  18   1.0000      -1.228204       -33.4211
  19   1.0000      -1.224035       -33.3077
  20   1.0000      -1.192854       -32.4592
  21   1.0000      -1.189670       -32.3726
  22   1.0000      -1.125016       -30.6132
  23   1.0000      -1.122921       -30.5562
  24   1.0000      -1.069641       -29.1064
  25   1.0000      -1.060482       -28.8572
  26   1.0000      -0.975996       -26.5582
  27   1.0000      -0.955263       -25.9940
  28   1.0000      -0.859226       -23.3807
  29   1.0000      -0.845126       -22.9970
  30   1.0000      -0.810408       -22.0523
  31   1.0000      -0.808732       -22.0067
  32   1.0000      -0.793979       -21.6053
  33   1.0000      -0.788860       -21.4660
  34   1.0000      -0.701261       -19.0823
  35   1.0000      -0.694671       -18.9029
  36   1.0000      -0.691906       -18.8277
  37   1.0000      -0.690499       -18.7894
  38   1.0000      -0.644350       -17.5337
  39   1.0000      -0.639863       -17.4115
  40   1.0000      -0.628888       -17.1129
  41   1.0000      -0.599864       -16.3231
  42   1.0000      -0.596631       -16.2351
  43   1.0000      -0.593641       -16.1538
  44   1.0000      -0.573330       -15.6011
  45   1.0000      -0.569579       -15.4990
  46   1.0000      -0.567027       -15.4296
  47   1.0000      -0.556058       -15.1311
  48   1.0000      -0.550523       -14.9805
  49   1.0000      -0.548599       -14.9282
  50   1.0000      -0.532496       -14.4900
  51   1.0000      -0.521697       -14.1961
  52   1.0000      -0.516674       -14.0594
  53   1.0000      -0.513375       -13.9697
  54   1.0000      -0.511487       -13.9183
  55   1.0000      -0.496254       -13.5037
  56   1.0000      -0.492962       -13.4142
  57   1.0000      -0.476649       -12.9703
  58   1.0000      -0.420776       -11.4499
  59   1.0000      -0.418737       -11.3944
  60   1.0000      -0.404794       -11.0150
  61   1.0000      -0.403657       -10.9841
  62   1.0000      -0.389075       -10.5873
  63   1.0000      -0.386826       -10.5261
  64   1.0000      -0.385124       -10.4797
  65   1.0000      -0.346950        -9.4410
  66   1.0000      -0.208312        -5.6685
  67   0.0000       0.012247         0.3333
  68   0.0000       0.021128         0.5749
  69   0.0000       0.033040         0.8991
  70   0.0000       0.039759         1.0819
  71   0.0000       0.041773         1.1367

                 SPIN DOWN ORBITALS
  NO   OCC          E(Eh)            E(eV)
   0   1.0000     -19.330434      -526.0079
   1   1.0000     -19.326946      -525.9129
   2   1.0000     -19.322133      -525.7820
   3   1.0000     -19.313122      -525.5368
   4   1.0000     -14.587499      -396.9460
   5   1.0000     -14.584251      -396.8576
   6   1.0000     -14.570180      -396.4747
   7   1.0000     -14.548889      -395.8954
   8   1.0000     -10.514062      -286.1022
   9   1.0000     -10.509867      -285.9880
  10   1.0000     -10.477769      -285.1146
  11   1.0000     -10.457094      -284.5520
  12   1.0000     -10.430843      -283.8377
  13   1.0000     -10.399232      -282.9775
  14   1.0000     -10.385332      -282.5993
  15   1.0000     -10.378998      -282.4269
  16   1.0000     -10.373744      -282.2839
  17   1.0000     -10.347658      -281.5741
  18   1.0000      -1.226818       -33.3834
  19   1.0000      -1.220859       -33.2213
  20   1.0000      -1.192676       -32.4544
  21   1.0000      -1.180531       -32.1239
  22   1.0000      -1.122734       -30.5511
  23   1.0000      -1.113890       -30.3105
  24   1.0000      -1.069551       -29.1040
  25   1.0000      -1.054890       -28.7050
  26   1.0000      -0.955420       -25.9983
  27   1.0000      -0.951820       -25.9003
  28   1.0000      -0.848398       -23.0861
  29   1.0000      -0.844657       -22.9843
  30   1.0000      -0.809088       -22.0164
  31   1.0000      -0.798492       -21.7281
  32   1.0000      -0.793900       -21.6031
  33   1.0000      -0.782032       -21.2802
  34   1.0000      -0.694567       -18.9001
  35   1.0000      -0.691027       -18.8038
  36   1.0000      -0.689347       -18.7581
  37   1.0000      -0.683087       -18.5878
  38   1.0000      -0.641855       -17.4658
  39   1.0000      -0.631555       -17.1855
  40   1.0000      -0.622896       -16.9499
  41   1.0000      -0.596576       -16.2336
  42   1.0000      -0.589148       -16.0315
  43   1.0000      -0.585224       -15.9248
  44   1.0000      -0.567068       -15.4307
  45   1.0000      -0.563718       -15.3395
  46   1.0000      -0.554811       -15.0972
  47   1.0000      -0.549187       -14.9441
  48   1.0000      -0.546838       -14.8802
  49   1.0000      -0.544344       -14.8123
  50   1.0000      -0.523995       -14.2586
  51   1.0000      -0.515227       -14.0200
  52   1.0000      -0.513080       -13.9616
  53   1.0000      -0.506801       -13.7907
  54   1.0000      -0.501705       -13.6521
  55   1.0000      -0.494919       -13.4674
  56   1.0000      -0.476821       -12.9749
  57   1.0000      -0.444749       -12.1022
  58   1.0000      -0.419252       -11.4084
  59   1.0000      -0.415062       -11.2944
  60   1.0000      -0.403563       -10.9815
  61   1.0000      -0.385981       -10.5031
  62   1.0000      -0.380606       -10.3568
  63   1.0000      -0.378394       -10.2966
  64   1.0000      -0.345843        -9.4109
  65   0.0000      -0.106901        -2.9089
  66   0.0000       0.011227         0.3055
  67   0.0000       0.021706         0.5906
  68   0.0000       0.031451         0.8558
  69   0.0000       0.038294         1.0420

----------------------------------------------------------------------------------------------------
          SPIN FLIP ABSORPTION SPECTRUM VIA TRANSITION ELECTRIC DIPOLE MOMENTS
----------------------------------------------------------------------------------------------------
     Transition      Energy     Energy  Wavelength fosc(D2)      D2        DX        DY        DZ
                      (eV)      (cm-1)    (nm)                 (au**2)    (au)      (au)      (au)
----------------------------------------------------------------------------------------------------
  1-3A  ->  2-3A    4.288722   34590.9   289.1   0.001647028   0.01568   0.05120   0.09162  -0.06827

Dispersion correction             ... done (  0.0 sec)

MULLIKEN ATOMIC CHARGES AND SPIN DENSITIES
------------------------------------------
   0 O :   -0.690770    0.036652
   1 O :   -0.658641   -0.000066
   2 O :   -0.636659    0.007759
   3 O :   -0.670505    0.000784
   4 N :   -0.004037    0.061401
   5 N :    0.025517   -0.000266
   6 N :    0.047015    0.004294
   7 N :    0.057980   -0.002097
   8 C :    1.117305    0.608431
   9 C :    0.830273   -0.008010
  10 C :   -0.173575   -0.469581
  11 C :   -0.219948   -0.007498
  12 C :   -1.429700   -0.016928
  13 C :   -1.351485    0.001427
  14 C :    0.184928   -0.306095
  15 C :    0.460508    0.024513
  16 C :    0.349131    0.020098
  17 C :    0.424452   -0.007456
  18 H :    0.154489    0.030943
  19 H :    0.155418   -0.003369
  20 H :    0.256725    0.010627
  21 H :    0.342316    0.010761
  22 H :    0.352804    0.001629
  23 H :    0.330577   -0.000281
  24 H :    0.336751    0.000625
  25 H :    0.229946   -0.002049
  26 H :    0.061912    0.001367
  27 H :    0.025063   -0.001458
  28 H :    0.050592    0.003600
  29 H :    0.041614    0.000241
Sum of atomic charges       :   -0.0000000

LOEWDIN ATOMIC CHARGES AND SPIN DENSITIES
-----------------------------------------
   0 O :    0.078916    0.029844
   1 O :    0.101828   -0.000012
   2 O :    0.091210    0.006346
   3 O :    0.068958    0.000237
   4 N :    0.290165    0.025789
   5 N :    0.281799   -0.001355
   6 N :    0.341126    0.000240
   7 N :    0.344963   -0.000070
   8 C :   -0.140619   -0.036380
   9 C :   -0.132525   -0.000256
  10 C :    0.051900   -0.032000
  11 C :    0.046788   -0.000245
  12 C :    0.172908   -0.003939
  13 C :    0.183577    0.000161
  14 C :   -0.409306    0.011280
  15 C :   -0.392786    0.000071
  16 C :   -0.482544    0.000697
  17 C :   -0.489760   -0.000584
  18 H :    0.040567   -0.002024
  19 H :    0.036113    0.000043
  20 H :   -0.013148   -0.000355
  21 H :   -0.006398    0.000268
  22 H :    0.002447   -0.000410
  23 H :    0.000174    0.000011
  24 H :   -0.005147    0.000018
  25 H :   -0.011414    0.000117
  26 H :   -0.016256    0.002355
  27 H :   -0.019784   -0.000045
  28 H :   -0.004047    0.000196
  29 H :   -0.009704    0.000004

  Mayer bond orders larger than 0.100000
B(  0-O , 14-C ) :   1.4389 B(  1-O , 15-C ) :   1.4694 B(  2-O , 16-C ) :   1.5721
B(  3-O , 17-C ) :   1.5292 B(  4-N , 10-C ) :   0.8735 B(  4-N , 16-C ) :   0.9970
B(  4-N , 26-H ) :   1.1071 B(  5-N , 11-C ) :   0.9644 B(  5-N , 17-C ) :   1.0372
B(  5-N , 27-H ) :   1.1240 B(  6-N , 14-C ) :   0.9531 B(  6-N , 16-C ) :   0.9262
B(  6-N , 28-H ) :   1.1021 B(  7-N , 15-C ) :   0.9526 B(  7-N , 16-C ) :   0.1172
B(  7-N , 17-C ) :   0.9494 B(  7-N , 29-H ) :   1.1113 B(  8-C , 10-C ) :   1.1055
B(  8-C , 12-C ) :   0.3017 B(  8-C , 14-C ) :   0.6334 B(  9-C , 11-C ) :   1.1787
B(  9-C , 13-C ) :   0.3609 B(  9-C , 15-C ) :   0.7746 B(  9-C , 19-H ) :  -0.1094
B( 10-C , 12-C ) :  -0.1109 B( 10-C , 14-C ) :   0.1248 B( 10-C , 16-C ) :  -0.1034
B( 10-C , 18-H ) :   1.1478 B( 11-C , 13-C ) :  -0.1114 B( 11-C , 19-H ) :   1.1317
B( 12-C , 20-H ) :   0.9840 B( 12-C , 21-H ) :   0.9808 B( 12-C , 22-H ) :   0.9438
B( 13-C , 23-H ) :   0.9432 B( 13-C , 24-H ) :   0.9884 B( 13-C , 25-H ) :   0.9965

Dispersion correction           -0.058687281
FINAL SINGLE POINT ENERGY      -908.929137626889

DIPOLE MOMENT
-------------

Method             : TDA/CIS
Type of density    : Electron Density
Level              : Relaxed density
State              :   1
Multiplicity       :   3
Irrep              :   0
Energy             :     0.0000000000000000 Eh
Relativity type    :
Basis              : AO
                                X                 Y                 Z
Electronic contribution:     -2.939218521      -9.586081526      -5.704761127
Nuclear contribution   :      2.522610886      10.201850167       8.196154212
                        -----------------------------------------
Total Dipole Moment    :     -0.416607635       0.615768641       2.491393085
                        -----------------------------------------
Magnitude (a.u.)       :      2.599956239
Magnitude (Debye)      :      6.608563568

Rotational constants in cm-1:             0.017020             0.015615             0.014035
Rotational constants in MHz :           510.251400           468.133294           420.764470

                             ****ORCA TERMINATED NORMALLY****
TOTAL RUN TIME: 0 days 0 hours 28 minutes 49 seconds 34 msec
