                         Program Version 6.0.0  -   RELEASE  -
|  1> ! Engrad def2-TZVPPD wB97M-D3BJ
|  2> %pal nprocs 8 end%pal nprocs 32 end
|  3> %tddft Nroots 2 Iroot 2
|  4> sf true
|  5> end
|  6> *xyz 0 3
|  7> O   0.19898713 1.08646712 0.00322677
|  8> C   0.63422062 -0.24731424 -0.10734284
|  9> C   -0.76000506 -0.98097083 0.1085947
| 10> H   1.41577957 -0.42669007 0.67235744
| 11> H   1.24959863 -0.39578715 -1.01750996
| 12> H   -1.28613699 -0.97475077 -0.81303198
| 13> H   -1.11891758 -0.57555437 1.03513017
| 14> *
| 15>
| 16>                          ****END OF INPUT****

CARTESIAN COORDINATES (ANGSTROEM)
---------------------------------
  O      0.198987    1.086467    0.003227
  C      0.634221   -0.247314   -0.107343
  C     -0.760005   -0.980971    0.108595
  H      1.415780   -0.426690    0.672357
  H      1.249599   -0.395787   -1.017510
  H     -1.286137   -0.974751   -0.813032
  H     -1.118918   -0.575554    1.035130

 Total Charge           Charge          ....    0
 Multiplicity           Mult            ....    3
 Number of Electrons    NEL             ....   24
 Basis Dimension        Dim             ....  182

ORBITAL ENERGIES
----------------
                 SPIN UP ORBITALS
  NO   OCC          E(Eh)            E(eV)
   0   1.0000     -19.397932      -527.8446
   1   1.0000     -10.421025      -283.5705
   2   1.0000     -10.370524      -282.1963
   3   1.0000      -1.164353       -31.6837
   4   1.0000      -0.854190       -23.2437
   5   1.0000      -0.747925       -20.3521
   6   1.0000      -0.613140       -16.6844
   7   1.0000      -0.574413       -15.6306
   8   1.0000      -0.531282       -14.4569
   9   1.0000      -0.517527       -14.0826
  10   1.0000      -0.441056       -12.0017
  11   1.0000      -0.426856       -11.6154
  12   1.0000      -0.330103        -8.9826
  13   0.0000       0.040222         1.0945
  14   0.0000       0.063509         1.7282
  15   0.0000       0.077815         2.1175
  16   0.0000       0.084480         2.2988
  17   0.0000       0.115495         3.1428

                 SPIN DOWN ORBITALS
  NO   OCC          E(Eh)            E(eV)
   0   1.0000     -19.372234      -527.1453
   1   1.0000     -10.422088      -283.5994
   2   1.0000     -10.357111      -281.8313
   3   1.0000      -1.106141       -30.0996
   4   1.0000      -0.821763       -22.3613
   5   1.0000      -0.726636       -19.7728
   6   1.0000      -0.581864       -15.8333
   7   1.0000      -0.537269       -14.6198
   8   1.0000      -0.499266       -13.5857
   9   1.0000      -0.492238       -13.3945
  10   1.0000      -0.385966       -10.5027
  11   0.0000      -0.061302        -1.6681
  12   0.0000      -0.001327        -0.0361
  13   0.0000       0.040024         1.0891
  14   0.0000       0.064896         1.7659
  15   0.0000       0.077967         2.1216

----------------------------------------------------------------------------------------------------
          SPIN FLIP ABSORPTION SPECTRUM VIA TRANSITION ELECTRIC DIPOLE MOMENTS
----------------------------------------------------------------------------------------------------
     Transition      Energy     Energy  Wavelength fosc(D2)      D2        DX        DY        DZ
                      (eV)      (cm-1)    (nm)                 (au**2)    (au)      (au)      (au)
----------------------------------------------------------------------------------------------------
  1-3A  ->  2-3A    0.701107    5654.8  1768.4   0.000207769   0.01210  -0.04191  -0.07952  -0.06338

Dispersion correction             ... done (  0.1 sec)

MULLIKEN ATOMIC CHARGES AND SPIN DENSITIES
------------------------------------------
   0 O :   -0.302647    0.772194
   1 C :    0.029827    0.106916
   2 C :   -0.677686   -0.874227
   3 H :    0.186089    0.023264
   4 H :    0.224561    0.047169
   5 H :    0.249049   -0.052150
   6 H :    0.290806   -0.023167
Sum of atomic charges       :   -0.0000000

LOEWDIN ATOMIC CHARGES AND SPIN DENSITIES
-----------------------------------------
   0 O :    0.028979    0.714047
   1 C :   -0.186377    0.038390
   2 C :    0.291452   -0.649685
   3 H :    0.029413    0.030933
   4 H :    0.028613    0.032545
   5 H :   -0.103055   -0.089038
   6 H :   -0.089025   -0.077192

  Mayer bond orders larger than 0.100000
B(  0-O ,  1-C ) :   0.9128 B(  1-C ,  2-C ) :   0.7416 B(  1-C ,  3-H ) :   0.9643
B(  1-C ,  4-H ) :   0.9227 B(  2-C ,  5-H ) :   1.0248 B(  2-C ,  6-H ) :   0.9535

Dispersion correction           -0.005599581
FINAL SINGLE POINT ENERGY      -153.727176762561

DIPOLE MOMENT
-------------

Method             : TDA/CIS
Type of density    : Electron Density
Level              : Relaxed density
State              :   2
Multiplicity       :   3
Irrep              :   0
Energy             :     0.0000000000000000 Eh
Relativity type    :
Basis              : AO
                                X                 Y                 Z
Electronic contribution:      0.300253516       2.048542823      -0.044816604
Nuclear contribution   :      0.081670070      -2.230348132      -0.110491911
                        -----------------------------------------
Total Dipole Moment    :      0.381923586      -0.181805310      -0.155308514
                        -----------------------------------------
Magnitude (a.u.)       :      0.450599080
Magnitude (Debye)      :      1.145331839

Rotational constants in cm-1:             1.055312             0.397938             0.324076
Rotational constants in MHz :         31637.470783         11929.885034          9715.550742

                             ****ORCA TERMINATED NORMALLY****
TOTAL RUN TIME: 0 days 0 hours 0 minutes 17 seconds 946 msec
