                         Program Version 6.0.0  -   RELEASE  -
|  1> ! Engrad def2-TZVPPD wB97M-D3BJ
|  2> %pal nprocs 8 end%pal nprocs 32 end
|  3> %tddft Nroots 2 Iroot 1
|  4> sf true
|  5> end
|  6> *xyz 0 3
|  7> O   0.52177002 0.89364749 0.67527455
|  8> C   0.45472237 -0.31897014 0.12768648
|  9> C   -0.71094742 -0.4989346 -0.88464702
| 10> H   0.58596701 -1.11173738 0.80263914
| 11> H   1.48311805 -0.46481176 -0.32755055
| 12> H   -1.19344667 0.43052338 -1.1311432
| 13> H   -1.36012939 -1.39300613 -0.98724035
| 14> *
| 15>
| 16>                          ****END OF INPUT****

CARTESIAN COORDINATES (ANGSTROEM)
---------------------------------
  O      0.521770    0.893647    0.675275
  C      0.454722   -0.318970    0.127686
  C     -0.710947   -0.498935   -0.884647
  H      0.585967   -1.111737    0.802639
  H      1.483118   -0.464812   -0.327551
  H     -1.193447    0.430523   -1.131143
  H     -1.360129   -1.393006   -0.987240

 Total Charge           Charge          ....    0
 Multiplicity           Mult            ....    3
 Number of Electrons    NEL             ....   24
 Basis Dimension        Dim             ....  182

ORBITAL ENERGIES
----------------
                 SPIN UP ORBITALS
  NO   OCC          E(Eh)            E(eV)
   0   1.0000     -19.386259      -527.5269
   1   1.0000     -10.418052      -283.4896
   2   1.0000     -10.373331      -282.2727
   3   1.0000      -1.180690       -32.1282
   4   1.0000      -0.861113       -23.4321
   5   1.0000      -0.751826       -20.4582
   6   1.0000      -0.606991       -16.5171
   7   1.0000      -0.593914       -16.1612
   8   1.0000      -0.553324       -15.0567
   9   1.0000      -0.512146       -13.9362
  10   1.0000      -0.432481       -11.7684
  11   1.0000      -0.415357       -11.3025
  12   1.0000      -0.326026        -8.8716
  13   0.0000       0.040263         1.0956
  14   0.0000       0.059479         1.6185
  15   0.0000       0.081257         2.2111
  16   0.0000       0.085452         2.3253
  17   0.0000       0.108672         2.9571

                 SPIN DOWN ORBITALS
  NO   OCC          E(Eh)            E(eV)
   0   1.0000     -19.363870      -526.9177
   1   1.0000     -10.419239      -283.5219
   2   1.0000     -10.359945      -281.9084
   3   1.0000      -1.132007       -30.8035
   4   1.0000      -0.829099       -22.5609
   5   1.0000      -0.724399       -19.7119
   6   1.0000      -0.580262       -15.7897
   7   1.0000      -0.538950       -14.6656
   8   1.0000      -0.531357       -14.4590
   9   1.0000      -0.495686       -13.4883
  10   1.0000      -0.385619       -10.4932
  11   0.0000      -0.053900        -1.4667
  12   0.0000      -0.001283        -0.0349
  13   0.0000       0.039518         1.0753
  14   0.0000       0.059591         1.6215
  15   0.0000       0.081213         2.2099

----------------------------------------------------------------------------------------------------
          SPIN FLIP ABSORPTION SPECTRUM VIA TRANSITION ELECTRIC DIPOLE MOMENTS
----------------------------------------------------------------------------------------------------
     Transition      Energy     Energy  Wavelength fosc(D2)      D2        DX        DY        DZ
                      (eV)      (cm-1)    (nm)                 (au**2)    (au)      (au)      (au)
----------------------------------------------------------------------------------------------------
  1-3A  ->  2-3A    0.271068    2186.3  4573.9   0.001372508   0.20667  -0.28347  -0.25048  -0.25214

Dispersion correction             ... done (  0.1 sec)

MULLIKEN ATOMIC CHARGES AND SPIN DENSITIES
------------------------------------------
   0 O :   -0.468792    0.182642
   1 C :    0.057981    0.048792
   2 C :   -0.417921   -0.280854
   3 H :    0.221073   -0.003240
   4 H :    0.187570    0.058098
   5 H :    0.218400    0.010216
   6 H :    0.201689   -0.015655
Sum of atomic charges       :    0.0000000

LOEWDIN ATOMIC CHARGES AND SPIN DENSITIES
-----------------------------------------
   0 O :   -0.026357    0.146146
   1 C :   -0.272208    0.014389
   2 C :    0.340239   -0.166350
   3 H :    0.003349    0.001949
   4 H :    0.070532    0.046610
   5 H :   -0.066808   -0.018521
   6 H :   -0.048746   -0.024222

  Mayer bond orders larger than 0.100000
B(  0-O ,  1-C ) :   1.0448 B(  0-O ,  2-C ) :   0.2254 B(  1-C ,  2-C ) :   0.9148
B(  1-C ,  3-H ) :   0.8874 B(  1-C ,  4-H ) :   0.8878 B(  2-C ,  5-H ) :   0.9864
B(  2-C ,  6-H ) :   1.0064

Dispersion correction           -0.005425800
FINAL SINGLE POINT ENERGY      -153.748905489777

DIPOLE MOMENT
-------------

Method             : TDA/CIS
Type of density    : Electron Density
Level              : Relaxed density
State              :   1
Multiplicity       :   3
Irrep              :   0
Energy             :     0.0000000000000000 Eh
Relativity type    :
Basis              : AO
                                X                 Y                 Z
Electronic contribution:      0.667925911       1.490875704       1.162580292
Nuclear contribution   :     -0.855779524      -2.532555219      -1.536453632
                        -----------------------------------------
Total Dipole Moment    :     -0.187853612      -1.041679515      -0.373873341
                        -----------------------------------------
Magnitude (a.u.)       :      1.122571364
Magnitude (Debye)      :      2.853349647

Rotational constants in cm-1:             1.454535             0.346068             0.295366
Rotational constants in MHz :         43605.858413         10374.857093          8854.849424

                             ****ORCA TERMINATED NORMALLY****
TOTAL RUN TIME: 0 days 0 hours 0 minutes 49 seconds 457 msec
