                         Program Version 6.0.0  -   RELEASE  -
|  1> ! Opt wB97M-D3BJ def2-TZVPPD
|  2> %pal nprocs 8 end %pal nprocs 64 end
|  3> %geom
|  4> Constraints
|  5>     {A 2 1 0 67.27272727272728 C }
|  6> end
|  7> MaxIter 500
|  8> end
|  9> *xyz 0 1
| 10> O   -0.0007 0.8141 0.0
| 11> C   0.7509 -0.4065 0.0
| 12> C   -0.7502 -0.4076 0.0
| 13> H   1.2625 -0.6786 0.9136
| 14> H   1.2625 -0.6787 -0.9136
| 15> H   -1.2614 -0.6806 -0.9136
| 16> H   -1.2614 -0.6805 0.9136
| 17> *
| 18>
| 19>                          ****END OF INPUT****
 Total Charge           Charge          ....    0
 Multiplicity           Mult            ....    1
 Number of Electrons    NEL             ....   24
Dispersion correction           -0.005247563
FINAL SINGLE POINT ENERGY      -153.877970234267
Dispersion correction             ... done (  0.1 sec)
Dispersion correction           -0.005238126
FINAL SINGLE POINT ENERGY      -153.880701743042
Dispersion correction             ... done (  0.2 sec)
Dispersion correction           -0.005236012
FINAL SINGLE POINT ENERGY      -153.881289468403
Dispersion correction             ... done (  0.2 sec)
FINAL SINGLE POINT ENERGY      -153.881358608283
Dispersion correction             ... done (  0.2 sec)
Dispersion correction           -0.005236166
FINAL SINGLE POINT ENERGY      -153.881395473148
Dispersion correction             ... done (  0.1 sec)
Dispersion correction           -0.005236709
FINAL SINGLE POINT ENERGY      -153.881397907633
Dispersion correction             ... done (  0.2 sec)
                    ***********************HURRAY********************

CARTESIAN COORDINATES (ANGSTROEM)
---------------------------------
  O      0.069884    0.827738   -0.000084
  C      0.696543   -0.400275    0.000085
  C     -0.727817   -0.507576   -0.000113
  H      1.242619   -0.653787    0.906032
  H      1.242431   -0.653968   -0.905955
  H     -1.260877   -0.665470   -0.923911
  H     -1.260584   -0.665061    0.923946

 Multiplicity           Mult            ....    1
 Number of Electrons    NEL             ....   24
 Basis Dimension        Dim             ....  182

ORBITAL ENERGIES
----------------

  NO   OCC          E(Eh)            E(eV)
   0   2.0000     -19.349709      -526.5324
   1   2.0000     -10.403468      -283.0928
   2   2.0000     -10.397142      -282.9206
   3   2.0000      -1.191752       -32.4292
   4   2.0000      -0.820630       -22.3305
   5   2.0000      -0.748805       -20.3760
   6   2.0000      -0.630057       -17.1447
   7   2.0000      -0.593181       -16.1413
   8   2.0000      -0.497270       -13.5314
   9   2.0000      -0.491402       -13.3717
  10   2.0000      -0.426587       -11.6080
  11   2.0000      -0.382182       -10.3997
  12   0.0000       0.041546         1.1305
  13   0.0000       0.058440         1.5902
  14   0.0000       0.071148         1.9360
  15   0.0000       0.077510         2.1092
  16   0.0000       0.113520         3.0890

MULLIKEN ATOMIC CHARGES
-----------------------
   0 O :   -0.395562
   1 C :   -0.131170
   2 C :   -0.220423
   3 H :    0.189135
   4 H :    0.189102
   5 H :    0.184454
   6 H :    0.184464
Sum of atomic charges:    0.0000000

LOEWDIN ATOMIC CHARGES
----------------------
   0 O :   -0.030358
   1 C :   -0.128300
   2 C :    0.109019
   3 H :    0.019929
   4 H :    0.019927
   5 H :    0.004896
   6 H :    0.004888

  Mayer bond orders larger than 0.100000
B(  0-O ,  1-C ) :   0.7697 B(  0-O ,  2-C ) :   0.8715 B(  1-C ,  2-C ) :   0.8143
B(  1-C ,  3-H ) :   1.0351 B(  1-C ,  4-H ) :   1.0351 B(  2-C ,  5-H ) :   0.9977
B(  2-C ,  6-H ) :   0.9978

Dispersion correction           -0.005237101
FINAL SINGLE POINT ENERGY      -153.881398441522

DIPOLE MOMENT
-------------

Method             : SCF
Type of density    : Electron Density
Multiplicity       :   1
Irrep              :   0
Energy             :  -153.8761613401983368 Eh
Relativity type    :
Basis              : AO
                                X                 Y                 Z
Electronic contribution:      0.008986543       1.590090083      -0.000192998
Nuclear contribution   :     -0.093483864      -2.435516140       0.000238033
                        -----------------------------------------
Total Dipole Moment    :     -0.084497321      -0.845426057       0.000045035
                        -----------------------------------------
Magnitude (a.u.)       :      0.849638169
Magnitude (Debye)      :      2.159608598

Rotational constants in cm-1:             0.868302             0.713014             0.464323
Rotational constants in MHz :         26031.037987         21375.623486         13920.061861

                             ****ORCA TERMINATED NORMALLY****
TOTAL RUN TIME: 0 days 0 hours 1 minutes 34 seconds 866 msec
