                         Program Version 6.0.0  -   RELEASE  -
|  1> ! Engrad def2-TZVPPD wB97M-D3BJ
|  2> %pal nprocs 8 end%pal nprocs 64 end
|  3> %tddft Nroots 2 Iroot 2
|  4> sf true
|  5> end
|  6> *xyz 0 3
|  7> O   2.21424053 -0.19761131 -1.1744273
|  8> O   -0.13468138 2.7106204 -2.44827191
|  9> O   0.29634294 -3.79364421 0.70880222
| 10> O   -2.13981754 -1.10640861 -1.28300735
| 11> N   0.37701871 -1.89801825 1.95905714
| 12> N   -1.29281813 -0.18422205 0.56006683
| 13> N   1.06873915 -1.92140097 -0.27714121
| 14> N   -0.81278359 0.71148428 -1.61506675
| 15> C   1.17837183 0.22173202 0.92067753
| 16> C   -0.52377045 2.54227504 -0.12991185
| 17> C   0.58440698 -0.51500342 2.14692175
| 18> C   -0.28650644 0.42831193 1.29632889
| 19> C   2.13700693 1.35655146 1.21334523
| 20> C   -1.47423903 3.46696414 0.45242876
| 21> C   1.52597848 -0.61064358 -0.26800953
| 22> C   -0.31671783 2.01957845 -1.44911007
| 23> C   0.53470895 -2.6052305 0.80027302
| 24> C   -1.46477126 -0.23347842 -0.80224152
| 25> H   0.88683618 -0.1799627 3.11625269
| 26> H   -0.45709315 1.36415185 1.79617467
| 27> H   2.34637281 2.02145281 0.35662198
| 28> H   1.82028162 1.97609209 2.03472386
| 29> H   3.05650071 0.85219892 1.50503878
| 30> H   -2.48165068 3.05618623 0.50322827
| 31> H   -1.18881514 3.7744861 1.47186531
| 32> H   -1.59163167 4.39764945 -0.18032977
| 33> H   -0.05604507 -2.39175258 2.70264225
| 34> H   -1.80407047 -0.92852055 1.04814859
| 35> H   1.26610206 -2.44480473 -1.11528906
| 36> H   -1.06276828 0.51289372 -2.5784889
| 37> *
| 38>
| 39>                          ****END OF INPUT****

CARTESIAN COORDINATES (ANGSTROEM)
---------------------------------
  O      2.214241   -0.197611   -1.174427
  O     -0.134681    2.710620   -2.448272
  O      0.296343   -3.793644    0.708802
  O     -2.139818   -1.106409   -1.283007
  N      0.377019   -1.898018    1.959057
  N     -1.292818   -0.184222    0.560067
  N      1.068739   -1.921401   -0.277141
  N     -0.812784    0.711484   -1.615067
  C      1.178372    0.221732    0.920678
  C     -0.523770    2.542275   -0.129912
  C      0.584407   -0.515003    2.146922
  C     -0.286506    0.428312    1.296329
  C      2.137007    1.356551    1.213345
  C     -1.474239    3.466964    0.452429
  C      1.525978   -0.610644   -0.268010
  C     -0.316718    2.019578   -1.449110
  C      0.534709   -2.605230    0.800273
  C     -1.464771   -0.233478   -0.802242
  H      0.886836   -0.179963    3.116253
  H     -0.457093    1.364152    1.796175
  H      2.346373    2.021453    0.356622
  H      1.820282    1.976092    2.034724
  H      3.056501    0.852199    1.505039
  H     -2.481651    3.056186    0.503228
  H     -1.188815    3.774486    1.471865
  H     -1.591632    4.397649   -0.180330
  H     -0.056045   -2.391753    2.702642
  H     -1.804070   -0.928521    1.048149
  H      1.266102   -2.444805   -1.115289
  H     -1.062768    0.512894   -2.578489

 Total Charge           Charge          ....    0
 Multiplicity           Mult            ....    3
 Number of Electrons    NEL             ....  132
 Basis Dimension        Dim             ....  882

ORBITAL ENERGIES
----------------
                 SPIN UP ORBITALS
  NO   OCC          E(Eh)            E(eV)
   0   1.0000     -19.341035      -526.2963
   1   1.0000     -19.334094      -526.1074
   2   1.0000     -19.319367      -525.7067
   3   1.0000     -19.315741      -525.6080
   4   1.0000     -14.567276      -396.3957
   5   1.0000     -14.567069      -396.3901
   6   1.0000     -14.561354      -396.2346
   7   1.0000     -14.559581      -396.1863
   8   1.0000     -10.507578      -285.9257
   9   1.0000     -10.507334      -285.9191
  10   1.0000     -10.493731      -285.5489
  11   1.0000     -10.489970      -285.4466
  12   1.0000     -10.439955      -284.0856
  13   1.0000     -10.431315      -283.8505
  14   1.0000     -10.414986      -283.4062
  15   1.0000     -10.406995      -283.1887
  16   1.0000     -10.387845      -282.6676
  17   1.0000     -10.367056      -282.1019
  18   1.0000      -1.223905       -33.3041
  19   1.0000      -1.216952       -33.1150
  20   1.0000      -1.198193       -32.6045
  21   1.0000      -1.197088       -32.5744
  22   1.0000      -1.129233       -30.7280
  23   1.0000      -1.088323       -29.6148
  24   1.0000      -1.069514       -29.1030
  25   1.0000      -1.060673       -28.8624
  26   1.0000      -1.002735       -27.2858
  27   1.0000      -0.940987       -25.6055
  28   1.0000      -0.876736       -23.8572
  29   1.0000      -0.834137       -22.6980
  30   1.0000      -0.818686       -22.2776
  31   1.0000      -0.814771       -22.1711
  32   1.0000      -0.786088       -21.3906
  33   1.0000      -0.771979       -21.0066
  34   1.0000      -0.722224       -19.6527
  35   1.0000      -0.703568       -19.1451
  36   1.0000      -0.686473       -18.6799
  37   1.0000      -0.670524       -18.2459
  38   1.0000      -0.636976       -17.3330
  39   1.0000      -0.634470       -17.2648
  40   1.0000      -0.613462       -16.6932
  41   1.0000      -0.609504       -16.5855
  42   1.0000      -0.601894       -16.3784
  43   1.0000      -0.590342       -16.0640
  44   1.0000      -0.575785       -15.6679
  45   1.0000      -0.571139       -15.5415
  46   1.0000      -0.563710       -15.3393
  47   1.0000      -0.557779       -15.1779
  48   1.0000      -0.554050       -15.0765
  49   1.0000      -0.551837       -15.0162
  50   1.0000      -0.547098       -14.8873
  51   1.0000      -0.542833       -14.7712
  52   1.0000      -0.526990       -14.3401
  53   1.0000      -0.525040       -14.2871
  54   1.0000      -0.514071       -13.9886
  55   1.0000      -0.477126       -12.9833
  56   1.0000      -0.445660       -12.1270
  57   1.0000      -0.433940       -11.8081
  58   1.0000      -0.418498       -11.3879
  59   1.0000      -0.408026       -11.1029
  60   1.0000      -0.399119       -10.8606
  61   1.0000      -0.395571       -10.7640
  62   1.0000      -0.391429       -10.6513
  63   1.0000      -0.383431       -10.4337
  64   1.0000      -0.373709       -10.1691
  65   1.0000      -0.353456        -9.6180
  66   1.0000      -0.322949        -8.7879
  67   0.0000       0.008719         0.2372
  68   0.0000       0.026720         0.7271
  69   0.0000       0.032667         0.8889
  70   0.0000       0.037734         1.0268
  71   0.0000       0.044669         1.2155

                 SPIN DOWN ORBITALS
  NO   OCC          E(Eh)            E(eV)
   0   1.0000     -19.335997      -526.1592
   1   1.0000     -19.334086      -526.1072
   2   1.0000     -19.319201      -525.7022
   3   1.0000     -19.315711      -525.6072
   4   1.0000     -14.567131      -396.3918
   5   1.0000     -14.567047      -396.3895
   6   1.0000     -14.560601      -396.2141
   7   1.0000     -14.559535      -396.1851
   8   1.0000     -10.507578      -285.9257
   9   1.0000     -10.507347      -285.9195
  10   1.0000     -10.494654      -285.5740
  11   1.0000     -10.489988      -285.4471
  12   1.0000     -10.439446      -284.0718
  13   1.0000     -10.430925      -283.8399
  14   1.0000     -10.414724      -283.3990
  15   1.0000     -10.388699      -282.6909
  16   1.0000     -10.380673      -282.4725
  17   1.0000     -10.366952      -282.0991
  18   1.0000      -1.223487       -33.2928
  19   1.0000      -1.216005       -33.0892
  20   1.0000      -1.197750       -32.5924
  21   1.0000      -1.189886       -32.3785
  22   1.0000      -1.128681       -30.7130
  23   1.0000      -1.087423       -29.5903
  24   1.0000      -1.068868       -29.0854
  25   1.0000      -1.058048       -28.7909
  26   1.0000      -1.001855       -27.2619
  27   1.0000      -0.910332       -24.7714
  28   1.0000      -0.876152       -23.8413
  29   1.0000      -0.822699       -22.3868
  30   1.0000      -0.817855       -22.2550
  31   1.0000      -0.811151       -22.0725
  32   1.0000      -0.784425       -21.3453
  33   1.0000      -0.767039       -20.8722
  34   1.0000      -0.717713       -19.5300
  35   1.0000      -0.702062       -19.1041
  36   1.0000      -0.678726       -18.4691
  37   1.0000      -0.668337       -18.1864
  38   1.0000      -0.634837       -17.2748
  39   1.0000      -0.623858       -16.9760
  40   1.0000      -0.609266       -16.5790
  41   1.0000      -0.604482       -16.4488
  42   1.0000      -0.588356       -16.0100
  43   1.0000      -0.582600       -15.8533
  44   1.0000      -0.572301       -15.5731
  45   1.0000      -0.564608       -15.3638
  46   1.0000      -0.558292       -15.1919
  47   1.0000      -0.554886       -15.0992
  48   1.0000      -0.547599       -14.9009
  49   1.0000      -0.546828       -14.8799
  50   1.0000      -0.540228       -14.7004
  51   1.0000      -0.531863       -14.4727
  52   1.0000      -0.525118       -14.2892
  53   1.0000      -0.515815       -14.0361
  54   1.0000      -0.511960       -13.9311
  55   1.0000      -0.475534       -12.9399
  56   1.0000      -0.440617       -11.9898
  57   1.0000      -0.424038       -11.5387
  58   1.0000      -0.417818       -11.3694
  59   1.0000      -0.403057       -10.9677
  60   1.0000      -0.390612       -10.6291
  61   1.0000      -0.389182       -10.5902
  62   1.0000      -0.387227       -10.5370
  63   1.0000      -0.381569       -10.3830
  64   1.0000      -0.365077        -9.9342
  65   0.0000      -0.044148        -1.2013
  66   0.0000       0.004743         0.1291
  67   0.0000       0.009293         0.2529
  68   0.0000       0.027168         0.7393
  69   0.0000       0.033503         0.9117

----------------------------------------------------------------------------------------------------
          SPIN FLIP ABSORPTION SPECTRUM VIA TRANSITION ELECTRIC DIPOLE MOMENTS
----------------------------------------------------------------------------------------------------
     Transition      Energy     Energy  Wavelength fosc(D2)      D2        DX        DY        DZ
                      (eV)      (cm-1)    (nm)                 (au**2)    (au)      (au)      (au)
----------------------------------------------------------------------------------------------------
  1-3A  ->  2-3A    0.769847    6209.2  1610.5   0.000024656   0.00131  -0.01952   0.01860   0.02409

Dispersion correction             ... done (  0.1 sec)

MULLIKEN ATOMIC CHARGES AND SPIN DENSITIES
------------------------------------------
   0 O :   -0.647745   -0.000251
   1 O :   -0.620641   -0.072462
   2 O :   -0.663243    0.000262
   3 O :   -0.666014   -0.001834
   4 N :   -0.124677   -0.000624
   5 N :   -0.205591    0.013148
   6 N :    0.016253   -0.000508
   7 N :    0.036323   -0.006237
   8 C :    2.281101    0.063236
   9 C :    0.401255    0.254654
  10 C :   -0.269334    0.003445
  11 C :   -0.928721   -0.151816
  12 C :   -1.894867   -0.031463
  13 C :   -1.079057    0.028334
  14 C :   -0.074978    0.030016
  15 C :    0.456510   -0.186810
  16 C :    0.482509    0.000579
  17 C :    0.537561    0.001059
  18 H :    0.239999   -0.001252
  19 H :    0.496177    0.036491
  20 H :    0.284267   -0.015353
  21 H :    0.362355   -0.000604
  22 H :    0.462980   -0.006443
  23 H :    0.253382    0.014230
  24 H :    0.308739    0.016562
  25 H :    0.338465    0.011688
  26 H :    0.010031   -0.000342
  27 H :    0.128965   -0.002147
  28 H :    0.030052    0.000061
  29 H :    0.047944    0.004381
Sum of atomic charges       :   -0.0000000

LOEWDIN ATOMIC CHARGES AND SPIN DENSITIES
-----------------------------------------
   0 O :    0.112363   -0.000279
   1 O :    0.095240   -0.060430
   2 O :    0.084402    0.000321
   3 O :    0.096615   -0.002563
   4 N :    0.284215   -0.000023
   5 N :    0.261389    0.003419
   6 N :    0.345404   -0.000299
   7 N :    0.316200    0.003888
   8 C :   -0.200800   -0.003197
   9 C :    0.147529    0.074415
  10 C :   -0.002465    0.000881
  11 C :   -0.120997   -0.001773
  12 C :    0.195622   -0.008412
  13 C :    0.102307    0.007471
  14 C :   -0.366992   -0.000060
  15 C :   -0.449027   -0.013933
  16 C :   -0.471473    0.000025
  17 C :   -0.475952    0.000601
  18 H :    0.044989    0.000175
  19 H :    0.011334   -0.001187
  20 H :    0.012606   -0.003725
  21 H :   -0.008732   -0.000862
  22 H :    0.005625   -0.000688
  23 H :   -0.001878    0.004696
  24 H :    0.002536   -0.011292
  25 H :    0.031720    0.012133
  26 H :   -0.038964   -0.000030
  27 H :    0.000074   -0.000047
  28 H :   -0.000751   -0.000018
  29 H :   -0.012137    0.000793

  Mayer bond orders larger than 0.100000
B(  0-O ,  8-C ) :  -0.1574 B(  0-O , 14-C ) :   1.5807 B(  1-O , 15-C ) :   1.3632
B(  2-O , 16-C ) :   1.5647 B(  3-O , 17-C ) :   1.4885 B(  4-N , 10-C ) :   0.6418
B(  4-N , 16-C ) :   1.0744 B(  4-N , 26-H ) :   1.1588 B(  5-N ,  9-C ) :   0.1061
B(  5-N , 11-C ) :   0.6487 B(  5-N , 17-C ) :   0.9680 B(  5-N , 19-H ) :  -0.1522
B(  5-N , 27-H ) :   1.0567 B(  6-N , 14-C ) :   1.0641 B(  6-N , 16-C ) :   0.9481
B(  6-N , 28-H ) :   1.1170 B(  7-N , 15-C ) :   0.8822 B(  7-N , 17-C ) :   0.9734
B(  7-N , 29-H ) :   1.0940 B(  8-C ,  9-C ) :  -0.1017 B(  8-C , 10-C ) :   0.6013
B(  8-C , 11-C ) :  -0.3534 B(  8-C , 12-C ) :  -0.2136 B(  8-C , 14-C ) :   0.1210
B(  8-C , 20-H ) :  -0.1154 B(  8-C , 21-H ) :  -0.1310 B(  9-C , 11-C ) :   0.1071
B(  9-C , 13-C ) :   0.4750 B(  9-C , 15-C ) :   0.8725 B( 10-C , 11-C ) :   0.6494
B( 10-C , 12-C ) :  -0.1356 B( 10-C , 16-C ) :  -0.1388 B( 10-C , 18-H ) :   1.1809
B( 11-C , 12-C ) :   0.1085 B( 11-C , 19-H ) :   1.0077 B( 12-C , 14-C ) :   0.1083
B( 12-C , 20-H ) :   1.0652 B( 12-C , 21-H ) :   1.0810 B( 12-C , 22-H ) :   0.7290
B( 13-C , 23-H ) :   0.9675 B( 13-C , 24-H ) :   0.9773 B( 13-C , 25-H ) :   0.9325

Dispersion correction           -0.057895008
FINAL SINGLE POINT ENERGY      -908.674975576940

DIPOLE MOMENT
-------------

Method             : TDA/CIS
Type of density    : Electron Density
Level              : Relaxed density
State              :   2
Multiplicity       :   3
Irrep              :   0
Energy             :     0.0000000000000000 Eh
Relativity type    :
Basis              : AO
                                X                 Y                 Z
Electronic contribution:     -0.256456528      -9.828275335      -7.054827578
Nuclear contribution   :     -0.122019422      11.181672348       9.826224258
                        -----------------------------------------
Total Dipole Moment    :     -0.378475950       1.353397013       2.771396680
                        -----------------------------------------
Magnitude (a.u.)       :      3.107340837
Magnitude (Debye)      :      7.898232725

Rotational constants in cm-1:             0.023115             0.012480             0.011591
Rotational constants in MHz :           692.963665           374.146852           347.480665

                             ****ORCA TERMINATED NORMALLY****
TOTAL RUN TIME: 0 days 0 hours 4 minutes 41 seconds 190 msec
