                         Program Version 6.0.0  -   RELEASE  -
|  1> ! Opt wB97M-D3BJ def2-TZVPPD
|  2> %pal nprocs 8 end %pal nprocs 64 end
|  3> %geom
|  4> Constraints
|  5>     {A 2 1 0 108.8135593220339 C }
|  6> end
|  7> MaxIter 200
|  8> end
|  9> *xyz 0 1
| 10> O   1.212177108385621 0.9506994508101604 0.0
| 11> C   0.7509 -0.4065 0.0
| 12> C   -0.7502 -0.4076 0.0
| 13> H   1.2625 -0.6786 0.9136
| 14> H   1.2625 -0.6787 -0.9136
| 15> H   -1.2614 -0.6806 -0.9136
| 16> H   -1.2614 -0.6805 0.9136
| 17> *
| 18>
| 19>                          ****END OF INPUT****
 Total Charge           Charge          ....    0
 Multiplicity           Mult            ....    1
 Number of Electrons    NEL             ....   24
Dispersion correction           -0.005453107
FINAL SINGLE POINT ENERGY      -153.727114988266
Dispersion correction             ... done (  0.1 sec)
Dispersion correction           -0.005522479
FINAL SINGLE POINT ENERGY      -153.748370541937
Dispersion correction             ... done (  0.1 sec)
Dispersion correction           -0.005579259
FINAL SINGLE POINT ENERGY      -153.760715615132
Dispersion correction             ... done (  0.1 sec)
FINAL SINGLE POINT ENERGY      -153.770806070375
FINAL SINGLE POINT ENERGY      -153.774097768392
FINAL SINGLE POINT ENERGY      -153.774323497210
FINAL SINGLE POINT ENERGY      -153.774340820559
FINAL SINGLE POINT ENERGY      -153.774353631575
FINAL SINGLE POINT ENERGY      -153.774424275975
FINAL SINGLE POINT ENERGY      -153.774441479989
FINAL SINGLE POINT ENERGY      -153.774561995166
FINAL SINGLE POINT ENERGY      -153.774697052492
FINAL SINGLE POINT ENERGY      -153.774974651928
FINAL SINGLE POINT ENERGY      -153.775009463965
FINAL SINGLE POINT ENERGY      -153.775034350418
Dispersion correction             ... done (  0.1 sec)
Dispersion correction           -0.005608927
FINAL SINGLE POINT ENERGY      -153.775038388772
Dispersion correction             ... done (  0.1 sec)
Dispersion correction           -0.005609239
FINAL SINGLE POINT ENERGY      -153.775039368450
Dispersion correction             ... done (  0.1 sec)
                    ***********************HURRAY********************

CARTESIAN COORDINATES (ANGSTROEM)
---------------------------------
  O      0.962106    1.001126    0.193006
  C      0.783201   -0.304640    0.013057
  C     -0.633046   -0.584080    0.007537
  H      1.272639   -0.963282    0.770210
  H      1.218487   -0.651672   -0.944986
  H     -1.180123   -0.874275   -0.882196
  H     -1.208188   -0.204977    0.843371

 Multiplicity           Mult            ....    1
 Number of Electrons    NEL             ....   24
 Basis Dimension        Dim             ....  182

ORBITAL ENERGIES
----------------

  NO   OCC          E(Eh)            E(eV)
   0   2.0000     -19.306084      -525.3453
   1   2.0000     -10.450757      -284.3795
   2   2.0000     -10.403823      -283.1024
   3   2.0000      -1.112593       -30.2752
   4   2.0000      -0.892639       -24.2900
   5   2.0000      -0.735463       -20.0130
   6   2.0000      -0.624735       -16.9999
   7   2.0000      -0.571150       -15.5418
   8   2.0000      -0.528554       -14.3827
   9   2.0000      -0.500911       -13.6305
  10   2.0000      -0.349734        -9.5167
  11   2.0000      -0.341499        -9.2927
  12   0.0000      -0.076960        -2.0942
  13   0.0000       0.033546         0.9128
  14   0.0000       0.059190         1.6106
  15   0.0000       0.077062         2.0970
  16   0.0000       0.098570         2.6822

MULLIKEN ATOMIC CHARGES
-----------------------
   0 O :   -0.553968
   1 C :   -0.104093
   2 C :   -0.174313
   3 H :    0.206790
   4 H :    0.218052
   5 H :    0.166361
   6 H :    0.241171
Sum of atomic charges:   -0.0000000

LOEWDIN ATOMIC CHARGES
----------------------
   0 O :   -0.050679
   1 C :   -0.416745
   2 C :    0.417503
   3 H :    0.038345
   4 H :    0.037874
   5 H :   -0.010192
   6 H :   -0.016106

  Mayer bond orders larger than 0.100000
B(  0-O ,  1-C ) :   0.9292 B(  0-O ,  2-C ) :   0.6669 B(  1-C ,  2-C ) :   0.9307
B(  1-C ,  3-H ) :   0.9874 B(  1-C ,  4-H ) :   0.9801 B(  2-C ,  5-H ) :   0.9801
B(  2-C ,  6-H ) :   0.9611

Dispersion correction           -0.005609296
FINAL SINGLE POINT ENERGY      -153.775039490448

DIPOLE MOMENT
-------------

Method             : SCF
Type of density    : Electron Density
Multiplicity       :   1
Irrep              :   0
Energy             :  -153.7694301949047713 Eh
Relativity type    :
Basis              : AO
                                X                 Y                 Z
Electronic contribution:      0.415453875       1.338825865       0.215690970
Nuclear contribution   :     -1.368829977      -2.737488208      -0.464364802
                        -----------------------------------------
Total Dipole Moment    :     -0.953376102      -1.398662343      -0.248673832
                        -----------------------------------------
Magnitude (a.u.)       :      1.710853885
Magnitude (Debye)      :      4.348644984

Rotational constants in cm-1:             1.347150             0.390828             0.336858
Rotational constants in MHz :         40386.546996         11716.722536         10098.753744

                             ****ORCA TERMINATED NORMALLY****
TOTAL RUN TIME: 0 days 0 hours 4 minutes 6 seconds 418 msec
