                         Program Version 6.0.0  -   RELEASE  -
|  1> ! Engrad def2-TZVPPD wB97M-D3BJ
|  2> %pal nprocs 8 end%pal nprocs 64 end
|  3> %tddft
|  4>  Iroot 2 Nroots 3
|  5> sf true
|  6> end
|  7> *xyz 0 3
|  8> O   0.49611041 -0.34657861 -1.02632049
|  9> C   0.6774007 -0.26638176 0.35879026
| 10> C   -0.01914189 0.87079323 0.94062984
| 11> H   1.7878826 -0.08536044 0.62338184
| 12> H   0.47584357 -1.23633091 0.90866313
| 13> H   0.61713434 1.5404203 1.56882279
| 14> H   -1.05927343 1.04997458 0.86275511
| 15> *
| 16>
| 17>                          ****END OF INPUT****

CARTESIAN COORDINATES (ANGSTROEM)
---------------------------------
  O      0.496110   -0.346579   -1.026320
  C      0.677401   -0.266382    0.358790
  C     -0.019142    0.870793    0.940630
  H      1.787883   -0.085360    0.623382
  H      0.475844   -1.236331    0.908663
  H      0.617134    1.540420    1.568823
  H     -1.059273    1.049975    0.862755

 Total Charge           Charge          ....    0
 Multiplicity           Mult            ....    3
 Number of Electrons    NEL             ....   24
 Basis Dimension        Dim             ....  182

ORBITAL ENERGIES
----------------
                 SPIN UP ORBITALS
  NO   OCC          E(Eh)            E(eV)
   0   1.0000     -19.393438      -527.7223
   1   1.0000     -10.419675      -283.5338
   2   1.0000     -10.364684      -282.0374
   3   1.0000      -1.159468       -31.5507
   4   1.0000      -0.883610       -24.0442
   5   1.0000      -0.727719       -19.8023
   6   1.0000      -0.610888       -16.6231
   7   1.0000      -0.584875       -15.9152
   8   1.0000      -0.551158       -14.9978
   9   1.0000      -0.515758       -14.0345
  10   1.0000      -0.438411       -11.9298
  11   1.0000      -0.416381       -11.3303
  12   1.0000      -0.324319        -8.8252
  13   0.0000       0.039729         1.0811
  14   0.0000       0.061637         1.6772
  15   0.0000       0.076717         2.0876
  16   0.0000       0.086515         2.3542
  17   0.0000       0.114236         3.1085

                 SPIN DOWN ORBITALS
  NO   OCC          E(Eh)            E(eV)
   0   1.0000     -19.369149      -527.0613
   1   1.0000     -10.421342      -283.5791
   2   1.0000     -10.351693      -281.6839
   3   1.0000      -1.103365       -30.0241
   4   1.0000      -0.851629       -23.1740
   5   1.0000      -0.701633       -19.0924
   6   1.0000      -0.579561       -15.7706
   7   1.0000      -0.552474       -15.0336
   8   1.0000      -0.528362       -14.3775
   9   1.0000      -0.477558       -12.9950
  10   1.0000      -0.385321       -10.4851
  11   0.0000      -0.058939        -1.6038
  12   0.0000      -0.001733        -0.0472
  13   0.0000       0.038860         1.0574
  14   0.0000       0.061572         1.6755
  15   0.0000       0.076353         2.0777

----------------------------------------------------------------------------------------------------
          SPIN FLIP ABSORPTION SPECTRUM VIA TRANSITION ELECTRIC DIPOLE MOMENTS
----------------------------------------------------------------------------------------------------
     Transition      Energy     Energy  Wavelength fosc(D2)      D2        DX        DY        DZ
                      (eV)      (cm-1)    (nm)                 (au**2)    (au)      (au)      (au)
----------------------------------------------------------------------------------------------------
  1-3A  ->  2-3A    0.243557    1964.4  5090.6   0.000064134   0.01075  -0.07743   0.06072   0.03265
  1-3A  ->  3-1A    0.951597    7675.1  1302.9   0.034385037   1.47489   0.20206  -0.58896  -1.04268

Dispersion correction             ... done (  0.2 sec)

MULLIKEN ATOMIC CHARGES AND SPIN DENSITIES
------------------------------------------
   0 O :   -0.316394    0.842157
   1 C :   -0.109719    0.015894
   2 C :   -0.189947   -0.703551
   3 H :    0.183811    0.013150
   4 H :    0.194567   -0.028246
   5 H :    0.111505   -0.048440
   6 H :    0.126176   -0.090964
Sum of atomic charges       :    0.0000000

LOEWDIN ATOMIC CHARGES AND SPIN DENSITIES
-----------------------------------------
   0 O :    0.042399    0.791240
   1 C :   -0.282349   -0.031418
   2 C :    0.264104   -0.619929
   3 H :    0.054829    0.020045
   4 H :    0.051292    0.002606
   5 H :   -0.043321   -0.076058
   6 H :   -0.086954   -0.086487

  Mayer bond orders larger than 0.100000
B(  0-O ,  1-C ) :   0.8913 B(  1-C ,  2-C ) :   0.8660 B(  1-C ,  3-H ) :   0.9895
B(  1-C ,  4-H ) :   0.9177 B(  2-C ,  5-H ) :   1.0469 B(  2-C ,  6-H ) :   1.0282

Dispersion correction           -0.005513719
FINAL SINGLE POINT ENERGY      -153.744138963297

DIPOLE MOMENT
-------------

Method             : TDA/CIS
Type of density    : Electron Density
Level              : Relaxed density
State              :   2
Multiplicity       :   3
Irrep              :   0
Energy             :     0.0000000000000000 Eh
Relativity type    :
Basis              : AO
                                X                 Y                 Z
Electronic contribution:     -0.088207679      -0.999482321      -2.648992119
Nuclear contribution   :      0.204299581       0.929129951       3.431220015
                        -----------------------------------------
Total Dipole Moment    :      0.116091903      -0.070352370       0.782227896
                        -----------------------------------------
Magnitude (a.u.)       :      0.793918930
Magnitude (Debye)      :      2.017981549

Rotational constants in cm-1:             1.376588             0.353183             0.308571
Rotational constants in MHz :         41269.068814         10588.150632          9250.731161

                             ****ORCA TERMINATED NORMALLY****
TOTAL RUN TIME: 0 days 0 hours 0 minutes 26 seconds 834 msec
