                         Program Version 6.0.0  -   RELEASE  -
|  1> ! Engrad def2-TZVPPD wB97M-D3BJ
|  2> %pal nprocs 8 end%pal nprocs 64 end
|  3> %tddft Nroots 2 Iroot 1
|  4> sf true
|  5> end
|  6> *xyz 0 3
|  7> O   2.3676533 -0.35847259 -1.13356164
|  8> O   -0.15837197 2.86351495 -2.22324092
|  9> O   0.19996649 -3.80386016 0.81201455
| 10> O   -2.07861178 -1.05698304 -1.47008416
| 11> N   0.40011915 -1.89236276 2.02213605
| 12> N   -1.36966694 -0.21682588 0.50009754
| 13> N   1.08226506 -1.96686558 -0.20151889
| 14> N   -0.75709215 0.76646176 -1.59374102
| 15> C   1.43456911 0.10934055 0.99067148
| 16> C   -0.39404733 2.76629538 -0.07684491
| 17> C   0.59080812 -0.48003662 2.0704233
| 18> C   -0.40554495 0.38446394 1.31825813
| 19> C   2.30880714 1.30041327 1.23463304
| 20> C   -1.65511653 3.42249653 0.29862115
| 21> C   1.67898788 -0.71638816 -0.20673447
| 22> C   -0.44306455 2.08256626 -1.32662802
| 23> C   0.52775274 -2.64254683 0.88456876
| 24> C   -1.45217603 -0.215302 -0.88055337
| 25> H   0.81879535 -0.14680538 3.07159063
| 26> H   -0.53443722 1.39462186 1.65332586
| 27> H   2.43339218 1.86856775 0.31991169
| 28> H   1.86441308 1.95851914 1.98491829
| 29> H   3.28156216 0.97875051 1.59029098
| 30> H   -2.53680538 2.78426733 0.17927313
| 31> H   -1.63496864 3.87935742 1.28003043
| 32> H   -1.75893411 4.22573253 -0.44000872
| 33> H   -0.03604995 -2.36605433 2.79063169
| 34> H   -1.81466123 -1.04994321 0.86745086
| 35> H   1.22862807 -2.5362645 -1.02423971
| 36> H   -0.758386 0.5771053 -2.58329294
| 37> *
| 38>
| 39>                          ****END OF INPUT****

CARTESIAN COORDINATES (ANGSTROEM)
---------------------------------
  O      2.367653   -0.358473   -1.133562
  O     -0.158372    2.863515   -2.223241
  O      0.199966   -3.803860    0.812015
  O     -2.078612   -1.056983   -1.470084
  N      0.400119   -1.892363    2.022136
  N     -1.369667   -0.216826    0.500098
  N      1.082265   -1.966866   -0.201519
  N     -0.757092    0.766462   -1.593741
  C      1.434569    0.109341    0.990671
  C     -0.394047    2.766295   -0.076845
  C      0.590808   -0.480037    2.070423
  C     -0.405545    0.384464    1.318258
  C      2.308807    1.300413    1.234633
  C     -1.655117    3.422497    0.298621
  C      1.678988   -0.716388   -0.206734
  C     -0.443065    2.082566   -1.326628
  C      0.527753   -2.642547    0.884569
  C     -1.452176   -0.215302   -0.880553
  H      0.818795   -0.146805    3.071591
  H     -0.534437    1.394622    1.653326
  H      2.433392    1.868568    0.319912
  H      1.864413    1.958519    1.984918
  H      3.281562    0.978751    1.590291
  H     -2.536805    2.784267    0.179273
  H     -1.634969    3.879357    1.280030
  H     -1.758934    4.225733   -0.440009
  H     -0.036050   -2.366054    2.790632
  H     -1.814661   -1.049943    0.867451
  H      1.228628   -2.536265   -1.024240
  H     -0.758386    0.577105   -2.583293

 Total Charge           Charge          ....    0
 Multiplicity           Mult            ....    3
 Number of Electrons    NEL             ....  132
 Basis Dimension        Dim             ....  882

ORBITAL ENERGIES
----------------
                 SPIN UP ORBITALS
  NO   OCC          E(Eh)            E(eV)
   0   1.0000     -19.337556      -526.2017
   1   1.0000     -19.329594      -525.9850
   2   1.0000     -19.328524      -525.9559
   3   1.0000     -19.321249      -525.7579
   4   1.0000     -14.572367      -396.5343
   5   1.0000     -14.570697      -396.4888
   6   1.0000     -14.565773      -396.3548
   7   1.0000     -14.564304      -396.3149
   8   1.0000     -10.515943      -286.1533
   9   1.0000     -10.508252      -285.9441
  10   1.0000     -10.485235      -285.3177
  11   1.0000     -10.484438      -285.2960
  12   1.0000     -10.446194      -284.2554
  13   1.0000     -10.442804      -284.1631
  14   1.0000     -10.415706      -283.4258
  15   1.0000     -10.403357      -283.0897
  16   1.0000     -10.375521      -282.3323
  17   1.0000     -10.366639      -282.0906
  18   1.0000      -1.228882       -33.4396
  19   1.0000      -1.220901       -33.2224
  20   1.0000      -1.206647       -32.8345
  21   1.0000      -1.197208       -32.5777
  22   1.0000      -1.123530       -30.5728
  23   1.0000      -1.094482       -29.7824
  24   1.0000      -1.072799       -29.1923
  25   1.0000      -1.062889       -28.9227
  26   1.0000      -0.984973       -26.8025
  27   1.0000      -0.941000       -25.6059
  28   1.0000      -0.881359       -23.9830
  29   1.0000      -0.826018       -22.4771
  30   1.0000      -0.815442       -22.1893
  31   1.0000      -0.806767       -21.9532
  32   1.0000      -0.790081       -21.4992
  33   1.0000      -0.779983       -21.2244
  34   1.0000      -0.722056       -19.6482
  35   1.0000      -0.698439       -19.0055
  36   1.0000      -0.691915       -18.8280
  37   1.0000      -0.660144       -17.9634
  38   1.0000      -0.641315       -17.4511
  39   1.0000      -0.634337       -17.2612
  40   1.0000      -0.615579       -16.7507
  41   1.0000      -0.606517       -16.5042
  42   1.0000      -0.600386       -16.3373
  43   1.0000      -0.591397       -16.0927
  44   1.0000      -0.579221       -15.7614
  45   1.0000      -0.570429       -15.5222
  46   1.0000      -0.566486       -15.4149
  47   1.0000      -0.560921       -15.2634
  48   1.0000      -0.557033       -15.1576
  49   1.0000      -0.554615       -15.0918
  50   1.0000      -0.546977       -14.8840
  51   1.0000      -0.544873       -14.8267
  52   1.0000      -0.532224       -14.4826
  53   1.0000      -0.514277       -13.9942
  54   1.0000      -0.511652       -13.9228
  55   1.0000      -0.495033       -13.4705
  56   1.0000      -0.441407       -12.0113
  57   1.0000      -0.427154       -11.6235
  58   1.0000      -0.417226       -11.3533
  59   1.0000      -0.409697       -11.1484
  60   1.0000      -0.405100       -11.0233
  61   1.0000      -0.397140       -10.8067
  62   1.0000      -0.394881       -10.7453
  63   1.0000      -0.390504       -10.6262
  64   1.0000      -0.382769       -10.4157
  65   1.0000      -0.355282        -9.6677
  66   1.0000      -0.303184        -8.2500
  67   0.0000       0.007745         0.2108
  68   0.0000       0.015288         0.4160
  69   0.0000       0.030846         0.8394
  70   0.0000       0.034887         0.9493
  71   0.0000       0.040801         1.1103

                 SPIN DOWN ORBITALS
  NO   OCC          E(Eh)            E(eV)
   0   1.0000     -19.331863      -526.0467
   1   1.0000     -19.329590      -525.9849
   2   1.0000     -19.328433      -525.9534
   3   1.0000     -19.321245      -525.7578
   4   1.0000     -14.572396      -396.5351
   5   1.0000     -14.570643      -396.4874
   6   1.0000     -14.565677      -396.3522
   7   1.0000     -14.564271      -396.3140
   8   1.0000     -10.515974      -286.1542
   9   1.0000     -10.508255      -285.9442
  10   1.0000     -10.485755      -285.3319
  11   1.0000     -10.484466      -285.2968
  12   1.0000     -10.445987      -284.2498
  13   1.0000     -10.442375      -284.1515
  14   1.0000     -10.415343      -283.4159
  15   1.0000     -10.376122      -282.3486
  16   1.0000     -10.375701      -282.3372
  17   1.0000     -10.366555      -282.0883
  18   1.0000      -1.227888       -33.4125
  19   1.0000      -1.220663       -33.2159
  20   1.0000      -1.198165       -32.6037
  21   1.0000      -1.197026       -32.5727
  22   1.0000      -1.123270       -30.5657
  23   1.0000      -1.093823       -29.7644
  24   1.0000      -1.071390       -29.1540
  25   1.0000      -1.062602       -28.9149
  26   1.0000      -0.984294       -26.7840
  27   1.0000      -0.912234       -24.8231
  28   1.0000      -0.880821       -23.9684
  29   1.0000      -0.824470       -22.4350
  30   1.0000      -0.811311       -22.0769
  31   1.0000      -0.802000       -21.8235
  32   1.0000      -0.786725       -21.4079
  33   1.0000      -0.774798       -21.0833
  34   1.0000      -0.714410       -19.4401
  35   1.0000      -0.696133       -18.9427
  36   1.0000      -0.688423       -18.7329
  37   1.0000      -0.657835       -17.9006
  38   1.0000      -0.637488       -17.3469
  39   1.0000      -0.629610       -17.1326
  40   1.0000      -0.612962       -16.6796
  41   1.0000      -0.600040       -16.3279
  42   1.0000      -0.588863       -16.0238
  43   1.0000      -0.584150       -15.8955
  44   1.0000      -0.573978       -15.6187
  45   1.0000      -0.563596       -15.3362
  46   1.0000      -0.557944       -15.1824
  47   1.0000      -0.556261       -15.1366
  48   1.0000      -0.555093       -15.1048
  49   1.0000      -0.551953       -15.0194
  50   1.0000      -0.538774       -14.6608
  51   1.0000      -0.532759       -14.4971
  52   1.0000      -0.530907       -14.4467
  53   1.0000      -0.513801       -13.9812
  54   1.0000      -0.499825       -13.6009
  55   1.0000      -0.494314       -13.4510
  56   1.0000      -0.429572       -11.6893
  57   1.0000      -0.425526       -11.5791
  58   1.0000      -0.416848       -11.3430
  59   1.0000      -0.401995       -10.9388
  60   1.0000      -0.394818       -10.7435
  61   1.0000      -0.392369       -10.6769
  62   1.0000      -0.385695       -10.4953
  63   1.0000      -0.382289       -10.4026
  64   1.0000      -0.352045        -9.5796
  65   0.0000      -0.061012        -1.6602
  66   0.0000       0.004940         0.1344
  67   0.0000       0.013496         0.3673
  68   0.0000       0.029471         0.8019
  69   0.0000       0.032975         0.8973

----------------------------------------------------------------------------------------------------
          SPIN FLIP ABSORPTION SPECTRUM VIA TRANSITION ELECTRIC DIPOLE MOMENTS
----------------------------------------------------------------------------------------------------
     Transition      Energy     Energy  Wavelength fosc(D2)      D2        DX        DY        DZ
                      (eV)      (cm-1)    (nm)                 (au**2)    (au)      (au)      (au)
----------------------------------------------------------------------------------------------------
  1-3A  ->  2-3A    2.055611   16579.6   603.2   0.000414952   0.00824  -0.04492  -0.06562   0.04377

Dispersion correction             ... done (  0.1 sec)

MULLIKEN ATOMIC CHARGES AND SPIN DENSITIES
------------------------------------------
   0 O :   -0.666131    0.000225
   1 O :   -0.618402   -0.029090
   2 O :   -0.644902   -0.000024
   3 O :   -0.637323   -0.000048
   4 N :   -0.232094   -0.000674
   5 N :   -0.134381    0.003356
   6 N :    0.012747   -0.000522
   7 N :    0.032889   -0.016246
   8 C :    1.205158    0.011149
   9 C :   -0.186958    0.103312
  10 C :    0.346233   -0.003761
  11 C :   -0.886085   -0.109385
  12 C :   -1.596409    0.013869
  13 C :   -0.849148    0.207407
  14 C :    0.232859    0.006524
  15 C :    0.793923   -0.164692
  16 C :    0.431395    0.000659
  17 C :    0.484693    0.012772
  18 H :    0.318645    0.001034
  19 H :    0.474826    0.015807
  20 H :    0.288210   -0.007730
  21 H :    0.311590   -0.013704
  22 H :    0.412493   -0.005854
  23 H :    0.286707   -0.013160
  24 H :    0.271774   -0.001824
  25 H :    0.352882   -0.012832
  26 H :    0.037165   -0.000350
  27 H :    0.105037   -0.001945
  28 H :    0.038404    0.000014
  29 H :    0.014203    0.005712
Sum of atomic charges       :   -0.0000000

LOEWDIN ATOMIC CHARGES AND SPIN DENSITIES
-----------------------------------------
   0 O :    0.107366   -0.000224
   1 O :    0.099460   -0.032669
   2 O :    0.092848    0.000015
   3 O :    0.104768   -0.000737
   4 N :    0.284460   -0.000112
   5 N :    0.259298   -0.000016
   6 N :    0.335943   -0.000139
   7 N :    0.342239    0.000516
   8 C :   -0.098366   -0.001240
   9 C :    0.153201    0.054024
  10 C :   -0.120418   -0.000211
  11 C :    0.044232   -0.002052
  12 C :    0.179323   -0.005526
  13 C :    0.108507    0.002109
  14 C :   -0.400815   -0.000173
  15 C :   -0.521226   -0.008109
  16 C :   -0.480583   -0.000018
  17 C :   -0.469607   -0.000298
  18 H :    0.053966    0.000017
  19 H :   -0.015867   -0.001240
  20 H :   -0.008229   -0.002062
  21 H :    0.000500   -0.001532
  22 H :    0.001569   -0.000700
  23 H :    0.005874    0.001454
  24 H :   -0.016796   -0.000554
  25 H :    0.020621   -0.000526
  26 H :   -0.027693   -0.000011
  27 H :   -0.022912   -0.000060
  28 H :   -0.001772   -0.000011
  29 H :   -0.009891    0.000086

  Mayer bond orders larger than 0.100000
B(  0-O ,  8-C ) :  -0.1174 B(  0-O , 14-C ) :   1.5383 B(  1-O ,  9-C ) :   0.2916
B(  1-O , 15-C ) :   1.1745 B(  2-O , 16-C ) :   1.5774 B(  3-O , 17-C ) :   1.5048
B(  4-N ,  8-C ) :   0.1719 B(  4-N , 10-C ) :   0.4538 B(  4-N , 16-C ) :   1.1013
B(  4-N , 26-H ) :   1.1173 B(  5-N , 11-C ) :   0.6706 B(  5-N , 17-C ) :   0.9716
B(  5-N , 19-H ) :  -0.1462 B(  5-N , 27-H ) :   1.0267 B(  6-N , 10-C ) :   0.1559
B(  6-N , 14-C ) :   1.0543 B(  6-N , 16-C ) :   0.9438 B(  6-N , 28-H ) :   1.1049
B(  7-N , 15-C ) :   0.9521 B(  7-N , 17-C ) :   0.9559 B(  7-N , 29-H ) :   1.1330
B(  8-C , 10-C ) :   0.5885 B(  8-C , 11-C ) :   0.4693 B(  8-C , 12-C ) :   0.2329
B(  8-C , 14-C ) :   0.5589 B(  8-C , 18-H ) :  -0.1158 B(  8-C , 19-H ) :  -0.1356
B(  8-C , 20-H ) :  -0.1198 B(  8-C , 21-H ) :  -0.1068 B(  9-C , 13-C ) :   0.4708
B(  9-C , 15-C ) :   0.6135 B( 10-C , 11-C ) :   0.8237 B( 10-C , 12-C ) :  -0.1418
B( 10-C , 14-C ) :  -0.1204 B( 10-C , 16-C ) :  -0.1146 B( 10-C , 18-H ) :   1.0577
B( 11-C , 14-C ) :   0.1617 B( 11-C , 17-C ) :  -0.1161 B( 11-C , 19-H ) :   0.9569
B( 12-C , 20-H ) :   1.0580 B( 12-C , 21-H ) :   1.0246 B( 12-C , 22-H ) :   0.7559
B( 13-C , 23-H ) :   0.9683 B( 13-C , 24-H ) :   1.0379 B( 13-C , 25-H ) :   0.8609

Dispersion correction           -0.056561950
FINAL SINGLE POINT ENERGY      -908.717150789246

DIPOLE MOMENT
-------------

Method             : TDA/CIS
Type of density    : Electron Density
Level              : Relaxed density
State              :   1
Multiplicity       :   3
Irrep              :   0
Energy             :     0.0000000000000000 Eh
Relativity type    :
Basis              : AO
                                X                 Y                 Z
Electronic contribution:     -0.178354054      -9.848759030      -6.233734866
Nuclear contribution   :     -0.520416012      10.807974289       8.700946938
                        -----------------------------------------
Total Dipole Moment    :     -0.698770066       0.959215258       2.467212072
                        -----------------------------------------
Magnitude (a.u.)       :      2.737792710
Magnitude (Debye)      :      6.958916035

Rotational constants in cm-1:             0.022609             0.012132             0.011086
Rotational constants in MHz :           677.796741           363.703204           332.351569

                             ****ORCA TERMINATED NORMALLY****
TOTAL RUN TIME: 0 days 0 hours 4 minutes 47 seconds 384 msec
