                         Program Version 6.0.0  -   RELEASE  -
|  1> ! Engrad def2-TZVPPD wB97M-D3BJ
|  2> %pal nprocs 8 end%pal nprocs 64 end
|  3> %tddft
|  4> Iroot 3 Nroots 3
|  5> sf true
|  6> end
|  7> *xyz 0 3
|  8> O   2.907419675787866 0.8310926238417108 -0.7019348435142735
|  9> O   -0.4265093539971989 1.091844755523531 -2.3067213091495047
| 10> O   0.49846778234982503 -2.9655038314135593 -0.9421657300308338
| 11> O   -3.0550422775103905 -1.4933632393027143 0.21586167542995324
| 12> N   0.36991560409138124 -1.7416632684689717 0.9135242997804002
| 13> N   -2.079607496205428 0.20571625203168503 1.2212193914898604
| 14> N   1.6496841790449337 -1.0271039982944665 -0.8232319321818369
| 15> N   -1.6012962805551696 -0.28192778766142385 -0.9767553405745166
| 16> C   1.4445575636870829 0.40604694029207106 1.0214253594441738
| 17> C   -0.579970817057964 1.6057882567343156 -0.01797301947033161
| 18> C   0.52101248132481 -0.5285566867631045 1.586280062842628
| 19> C   -0.980565097770656 1.0263657449768437 1.2390056837437664
| 20> C   2.022422834167353 1.411412811110903 1.8710397321657009
| 21> C   -0.4039564086898393 3.0192292039980324 -0.147469402790626
| 22> C   2.0816072586770726 0.10928307601753928 -0.22285892780979513
| 23> C   -0.8347177444663105 0.8259208780410497 -1.2102198515295939
| 24> C   0.810447937972113 -1.9813311864349494 -0.3346008350067138
| 25> C   -2.286703590702008 -0.582384324506066 0.1627198862346784
| 26> H   0.5887144935895102 -0.6851244535010392 2.6550976798970263
| 27> H   -1.0605543568130007 1.7386489887137513 2.0459426000919856
| 28> H   2.2610364804322254 2.301255144996659 1.295202764471763
| 29> H   1.407263893312362 1.734167987565205 2.709082417347164
| 30> H   2.9598995954166765 1.138869093633982 2.352620539158917
| 31> H   -1.3785066391891267 3.4426341404935483 -0.40051053678068027
| 32> H   -0.014168201680402427 3.5768389840675403 0.694542958667447
| 33> H   0.2488758556351746 3.265017689970241 -0.9807533436248124
| 34> H   -0.29560441434496265 -2.415786320781447 1.2391645221432057
| 35> H   -2.5503665619513303 -0.03512656356041468 2.0689516436241573
| 36> H   2.0090176402683393 -1.2138469246550967 -1.7439409113064028
| 37> H   -1.7801740348229356 -0.8634139866654232 -1.7779452327628942
| 38> *
| 39>
| 40>                          ****END OF INPUT****

CARTESIAN COORDINATES (ANGSTROEM)
---------------------------------
  O      2.907420    0.831093   -0.701935
  O     -0.426509    1.091845   -2.306721
  O      0.498468   -2.965504   -0.942166
  O     -3.055042   -1.493363    0.215862
  N      0.369916   -1.741663    0.913524
  N     -2.079607    0.205716    1.221219
  N      1.649684   -1.027104   -0.823232
  N     -1.601296   -0.281928   -0.976755
  C      1.444558    0.406047    1.021425
  C     -0.579971    1.605788   -0.017973
  C      0.521012   -0.528557    1.586280
  C     -0.980565    1.026366    1.239006
  C      2.022423    1.411413    1.871040
  C     -0.403956    3.019229   -0.147469
  C      2.081607    0.109283   -0.222859
  C     -0.834718    0.825921   -1.210220
  C      0.810448   -1.981331   -0.334601
  C     -2.286704   -0.582384    0.162720
  H      0.588714   -0.685124    2.655098
  H     -1.060554    1.738649    2.045943
  H      2.261036    2.301255    1.295203
  H      1.407264    1.734168    2.709082
  H      2.959900    1.138869    2.352621
  H     -1.378507    3.442634   -0.400511
  H     -0.014168    3.576839    0.694543
  H      0.248876    3.265018   -0.980753
  H     -0.295604   -2.415786    1.239165
  H     -2.550367   -0.035127    2.068952
  H      2.009018   -1.213847   -1.743941
  H     -1.780174   -0.863414   -1.777945

 Total Charge           Charge          ....    0
 Multiplicity           Mult            ....    3
 Number of Electrons    NEL             ....  132
 Basis Dimension        Dim             ....  882

ORBITAL ENERGIES
----------------
                 SPIN UP ORBITALS
  NO   OCC          E(Eh)            E(eV)
   0   1.0000     -19.327620      -525.9313
   1   1.0000     -19.318756      -525.6901
   2   1.0000     -19.316255      -525.6220
   3   1.0000     -19.310478      -525.4648
   4   1.0000     -14.575661      -396.6239
   5   1.0000     -14.572490      -396.5376
   6   1.0000     -14.564823      -396.3290
   7   1.0000     -14.555894      -396.0860
   8   1.0000     -10.500718      -285.7391
   9   1.0000     -10.499949      -285.7181
  10   1.0000     -10.474184      -285.0170
  11   1.0000     -10.457883      -284.5735
  12   1.0000     -10.443269      -284.1758
  13   1.0000     -10.440962      -284.1130
  14   1.0000     -10.403402      -283.0910
  15   1.0000     -10.383994      -282.5628
  16   1.0000     -10.362332      -281.9734
  17   1.0000     -10.355030      -281.7747
  18   1.0000      -1.238970       -33.7141
  19   1.0000      -1.230134       -33.4736
  20   1.0000      -1.205527       -32.8041
  21   1.0000      -1.194965       -32.5166
  22   1.0000      -1.131736       -30.7961
  23   1.0000      -1.119549       -30.4645
  24   1.0000      -1.080552       -29.4033
  25   1.0000      -1.072049       -29.1719
  26   1.0000      -0.982687       -26.7403
  27   1.0000      -0.957886       -26.0654
  28   1.0000      -0.864786       -23.5320
  29   1.0000      -0.850392       -23.1404
  30   1.0000      -0.827052       -22.5052
  31   1.0000      -0.813455       -22.1352
  32   1.0000      -0.802879       -21.8474
  33   1.0000      -0.794870       -21.6295
  34   1.0000      -0.707171       -19.2431
  35   1.0000      -0.700825       -19.0704
  36   1.0000      -0.698575       -19.0092
  37   1.0000      -0.686062       -18.6687
  38   1.0000      -0.663018       -18.0416
  39   1.0000      -0.642599       -17.4860
  40   1.0000      -0.634094       -17.2546
  41   1.0000      -0.601069       -16.3559
  42   1.0000      -0.598050       -16.2738
  43   1.0000      -0.589961       -16.0537
  44   1.0000      -0.583531       -15.8787
  45   1.0000      -0.567333       -15.4379
  46   1.0000      -0.563501       -15.3337
  47   1.0000      -0.560865       -15.2619
  48   1.0000      -0.554705       -15.0943
  49   1.0000      -0.551228       -14.9997
  50   1.0000      -0.543273       -14.7832
  51   1.0000      -0.540982       -14.7209
  52   1.0000      -0.536002       -14.5854
  53   1.0000      -0.514123       -13.9900
  54   1.0000      -0.510185       -13.8828
  55   1.0000      -0.495183       -13.4746
  56   1.0000      -0.490634       -13.3508
  57   1.0000      -0.447011       -12.1638
  58   1.0000      -0.417261       -11.3542
  59   1.0000      -0.411596       -11.2001
  60   1.0000      -0.407787       -11.0964
  61   1.0000      -0.401793       -10.9333
  62   1.0000      -0.390040       -10.6135
  63   1.0000      -0.383893       -10.4463
  64   1.0000      -0.381959       -10.3936
  65   1.0000      -0.310351        -8.4451
  66   1.0000      -0.268868        -7.3163
  67   0.0000       0.006260         0.1703
  68   0.0000       0.019110         0.5200
  69   0.0000       0.031004         0.8437
  70   0.0000       0.037577         1.0225
  71   0.0000       0.039688         1.0800

                 SPIN DOWN ORBITALS
  NO   OCC          E(Eh)            E(eV)
   0   1.0000     -19.325069      -525.8619
   1   1.0000     -19.318376      -525.6797
   2   1.0000     -19.315480      -525.6009
   3   1.0000     -19.307015      -525.3706
   4   1.0000     -14.574692      -396.5975
   5   1.0000     -14.570762      -396.4906
   6   1.0000     -14.564300      -396.3148
   7   1.0000     -14.555416      -396.0730
   8   1.0000     -10.500769      -285.7405
   9   1.0000     -10.499945      -285.7180
  10   1.0000     -10.474816      -285.0342
  11   1.0000     -10.458067      -284.5785
  12   1.0000     -10.440638      -284.1042
  13   1.0000     -10.436550      -283.9930
  14   1.0000     -10.393978      -282.8345
  15   1.0000     -10.375714      -282.3375
  16   1.0000     -10.362590      -281.9804
  17   1.0000     -10.355467      -281.7866
  18   1.0000      -1.237000       -33.6605
  19   1.0000      -1.228775       -33.4367
  20   1.0000      -1.202002       -32.7082
  21   1.0000      -1.190436       -32.3934
  22   1.0000      -1.127511       -30.6811
  23   1.0000      -1.116626       -30.3849
  24   1.0000      -1.078119       -29.3371
  25   1.0000      -1.069855       -29.1122
  26   1.0000      -0.968700       -26.3597
  27   1.0000      -0.945207       -25.7204
  28   1.0000      -0.858318       -23.3560
  29   1.0000      -0.845425       -23.0052
  30   1.0000      -0.820252       -22.3202
  31   1.0000      -0.807098       -21.9623
  32   1.0000      -0.800694       -21.7880
  33   1.0000      -0.793101       -21.5814
  34   1.0000      -0.701641       -19.0926
  35   1.0000      -0.694184       -18.8897
  36   1.0000      -0.691257       -18.8101
  37   1.0000      -0.679878       -18.5004
  38   1.0000      -0.652040       -17.7429
  39   1.0000      -0.638452       -17.3732
  40   1.0000      -0.630568       -17.1586
  41   1.0000      -0.594622       -16.1805
  42   1.0000      -0.592813       -16.1313
  43   1.0000      -0.585282       -15.9263
  44   1.0000      -0.568931       -15.4814
  45   1.0000      -0.563062       -15.3217
  46   1.0000      -0.559239       -15.2177
  47   1.0000      -0.552144       -15.0246
  48   1.0000      -0.548221       -14.9179
  49   1.0000      -0.545072       -14.8322
  50   1.0000      -0.532924       -14.5016
  51   1.0000      -0.532035       -14.4774
  52   1.0000      -0.529064       -14.3966
  53   1.0000      -0.504013       -13.7149
  54   1.0000      -0.503344       -13.6967
  55   1.0000      -0.490461       -13.3461
  56   1.0000      -0.481992       -13.1157
  57   1.0000      -0.434988       -11.8366
  58   1.0000      -0.414271       -11.2729
  59   1.0000      -0.409406       -11.1405
  60   1.0000      -0.397264       -10.8101
  61   1.0000      -0.390416       -10.6238
  62   1.0000      -0.385567       -10.4918
  63   1.0000      -0.376523       -10.2457
  64   1.0000      -0.333741        -9.0816
  65   0.0000      -0.065337        -1.7779
  66   0.0000      -0.031445        -0.8557
  67   0.0000       0.006483         0.1764
  68   0.0000       0.026812         0.7296
  69   0.0000       0.033482         0.9111

----------------------------------------------------------------------------------------------------
          SPIN FLIP ABSORPTION SPECTRUM VIA TRANSITION ELECTRIC DIPOLE MOMENTS
----------------------------------------------------------------------------------------------------
     Transition      Energy     Energy  Wavelength fosc(D2)      D2        DX        DY        DZ
                      (eV)      (cm-1)    (nm)                 (au**2)    (au)      (au)      (au)
----------------------------------------------------------------------------------------------------
  1-3A  ->  2-3A    0.450901    3636.8  2749.7   0.000366156   0.03315  -0.04846   0.06021  -0.16484
  1-3A  ->  3-1A    0.793858    6402.9  1561.8   0.012809858   0.65863  -0.57610   0.23996  -0.51880

Dispersion correction             ... done (  0.2 sec)

MULLIKEN ATOMIC CHARGES AND SPIN DENSITIES
------------------------------------------
   0 O :   -0.682513    0.036592
   1 O :   -0.680846   -0.043571
   2 O :   -0.653369   -0.011946
   3 O :   -0.643600   -0.000308
   4 N :   -0.126927    0.001095
   5 N :   -0.116991    0.033735
   6 N :    0.021731    0.010197
   7 N :    0.065320    0.010364
   8 C :    0.747152    0.112936
   9 C :    1.368818    0.202069
  10 C :    0.061056   -0.074850
  11 C :   -0.111688   -0.076853
  12 C :   -1.671560    0.026229
  13 C :   -1.729030    0.060707
  14 C :    0.447160   -0.043818
  15 C :    0.036548   -0.238183
  16 C :    0.462506    0.000615
  17 C :    0.352874    0.016764
  18 H :    0.372152   -0.006367
  19 H :    0.270682   -0.002891
  20 H :    0.311934    0.004318
  21 H :    0.307136   -0.001093
  22 H :    0.373725    0.001698
  23 H :    0.405753   -0.013140
  24 H :    0.384531    0.002819
  25 H :    0.310659   -0.007151
  26 H :    0.029743    0.000968
  27 H :    0.078606   -0.004250
  28 H :   -0.006299    0.001159
  29 H :    0.014736    0.002158
Sum of atomic charges       :    0.0000000

LOEWDIN ATOMIC CHARGES AND SPIN DENSITIES
-----------------------------------------
   0 O :    0.128983    0.034551
   1 O :    0.111522   -0.037815
   2 O :    0.111622   -0.010524
   3 O :    0.119384    0.000971
   4 N :    0.278817   -0.011078
   5 N :    0.285768    0.026439
   6 N :    0.349522    0.008537
   7 N :    0.342099    0.003212
   8 C :   -0.120816    0.072439
   9 C :   -0.131685   -0.152544
  10 C :   -0.005112   -0.021941
  11 C :    0.030451    0.099239
  12 C :    0.169717    0.010719
  13 C :    0.163084   -0.027953
  14 C :   -0.440871    0.016851
  15 C :   -0.453970   -0.018047
  16 C :   -0.522396   -0.003440
  17 C :   -0.526910    0.006005
  18 H :    0.027464    0.001036
  19 H :    0.045471    0.013268
  20 H :    0.006884    0.001200
  21 H :    0.005688    0.000938
  22 H :    0.020354    0.003962
  23 H :    0.016229   -0.011914
  24 H :   -0.002004   -0.000146
  25 H :    0.013679   -0.005504
  26 H :   -0.020028   -0.000734
  27 H :   -0.009895    0.000886
  28 H :    0.004530    0.000940
  29 H :    0.002417    0.000445

  Mayer bond orders larger than 0.100000
B(  0-O , 14-C ) :   1.2444 B(  1-O , 15-C ) :   1.4177 B(  2-O , 16-C ) :   1.5257
B(  3-O , 17-C ) :   1.5628 B(  4-N ,  8-C ) :   0.2379 B(  4-N , 10-C ) :   0.5079
B(  4-N , 16-C ) :   1.0385 B(  4-N , 26-H ) :   1.1176 B(  5-N ,  9-C ) :   0.2376
B(  5-N , 11-C ) :   0.4152 B(  5-N , 17-C ) :   1.1668 B(  5-N , 27-H ) :   1.0655
B(  6-N , 14-C ) :   1.0819 B(  6-N , 16-C ) :   0.9191 B(  6-N , 28-H ) :   1.1291
B(  7-N , 15-C ) :   0.8844 B(  7-N , 17-C ) :   0.9485 B(  7-N , 29-H ) :   1.1235
B(  8-C ,  9-C ) :   0.4097 B(  8-C , 10-C ) :   0.4728 B(  8-C , 11-C ) :   0.1015
B(  8-C , 12-C ) :   0.1405 B(  8-C , 14-C ) :   0.7086 B(  8-C , 15-C ) :   0.1224
B(  8-C , 16-C ) :   0.1137 B(  8-C , 18-H ) :  -0.1360 B(  8-C , 20-H ) :  -0.1253
B(  8-C , 21-H ) :  -0.1702 B(  9-C , 13-C ) :   0.2589 B(  9-C , 15-C ) :   0.3325
B(  9-C , 17-C ) :   0.1366 B(  9-C , 19-H ) :  -0.1521 B(  9-C , 25-H ) :  -0.1495
B( 10-C , 11-C ) :   0.4048 B( 10-C , 12-C ) :  -0.1768 B( 10-C , 16-C ) :  -0.1155
B( 10-C , 18-H ) :   1.0446 B( 11-C , 13-C ) :  -0.2136 B( 11-C , 17-C ) :  -0.2400
B( 11-C , 19-H ) :   1.0862 B( 12-C , 20-H ) :   0.9833 B( 12-C , 21-H ) :   1.1004
B( 12-C , 22-H ) :   0.7845 B( 13-C , 23-H ) :   0.7853 B( 13-C , 24-H ) :   0.9077
B( 13-C , 25-H ) :   1.0741 B( 15-C , 17-C ) :  -0.1265

Dispersion correction           -0.062324746
FINAL SINGLE POINT ENERGY      -908.741076083734

DIPOLE MOMENT
-------------

Method             : TDA/CIS
Type of density    : Electron Density
Level              : Relaxed density
State              :   3
Multiplicity       :   3
Irrep              :   0
Energy             :     0.0000000000000000 Eh
Relativity type    :
Basis              : AO
                                X                 Y                 Z
Electronic contribution:     -2.662848304     -10.273631767      -6.484320421
Nuclear contribution   :      2.260291650      11.394261867       9.359940844
                        -----------------------------------------
Total Dipole Moment    :     -0.402556653       1.120630100       2.875620424
                        -----------------------------------------
Magnitude (a.u.)       :      3.112403653
Magnitude (Debye)      :      7.911101381

Rotational constants in cm-1:             0.019240             0.016446             0.013432
Rotational constants in MHz :           576.793567           493.030562           402.689760

                             ****ORCA TERMINATED NORMALLY****
TOTAL RUN TIME: 0 days 0 hours 6 minutes 35 seconds 137 msec
