                         Program Version 6.0.0  -   RELEASE  -
|  1> ! Engrad def2-TZVPPD wB97M-D3BJ
|  2> %pal nprocs 8 end%pal nprocs 64 end
|  3> %tddft
|  4>  Iroot 2 Nroots 3
|  5> sf true
|  6> end
|  7> *xyz 0 3
|  8> O   3.14110144 0.15443061 -1.77285819
|  9> O   -2.12600906 0.56087527 -1.88369844
| 10> O   -0.58906255 -2.35409224 -1.33969554
| 11> O   -2.92237095 -0.37161111 2.52701934
| 12> N   0.30553567 -1.50938046 0.60229998
| 13> N   -1.0947053 0.69546974 1.95267743
| 14> N   1.35430697 -1.18081089 -1.50720157
| 15> N   -2.44297412 -0.09845777 0.32301169
| 16> C   2.1071372 0.04170018 0.33411979
| 17> C   -0.45833897 1.21437879 -0.3040545
| 18> C   0.99661465 -0.39141417 1.11528139
| 19> C   0.03338396 0.89278824 1.05400245
| 20> C   3.06562772 1.0497219 0.96239572
| 21> C   0.20032337 2.08152349 -1.32783286
| 22> C   2.22592246 -0.20166978 -1.0636042
| 23> C   -1.69593838 0.50021301 -0.73555224
| 24> C   0.23999865 -1.7126649 -0.78892519
| 25> C   -2.19179351 -0.01214731 1.65031117
| 26> H   1.40491098 -0.48966652 2.19284769
| 27> H   0.59900465 1.67892815 1.41118798
| 28> H   2.73076384 1.26770683 1.93692453
| 29> H   4.0417338 0.67090333 0.86499798
| 30> H   3.096774 2.07966308 0.48890436
| 31> H   -0.29225388 2.96661251 -1.62002353
| 32> H   1.15241358 2.34515724 -0.91528753
| 33> H   0.48709661 1.59966855 -2.30033247
| 34> H   -0.53184018 -1.75823496 1.05367026
| 35> H   -0.93790411 0.68767927 2.96925478
| 36> H   1.4705248 -1.51937895 -2.47719932
| 37> H   -3.07420107 -0.84467792 0.03314432
| 38> *
| 39>
| 40>                          ****END OF INPUT****

CARTESIAN COORDINATES (ANGSTROEM)
---------------------------------
  O      3.141101    0.154431   -1.772858
  O     -2.126009    0.560875   -1.883698
  O     -0.589063   -2.354092   -1.339696
  O     -2.922371   -0.371611    2.527019
  N      0.305536   -1.509380    0.602300
  N     -1.094705    0.695470    1.952677
  N      1.354307   -1.180811   -1.507202
  N     -2.442974   -0.098458    0.323012
  C      2.107137    0.041700    0.334120
  C     -0.458339    1.214379   -0.304055
  C      0.996615   -0.391414    1.115281
  C      0.033384    0.892788    1.054002
  C      3.065628    1.049722    0.962396
  C      0.200323    2.081523   -1.327833
  C      2.225922   -0.201670   -1.063604
  C     -1.695938    0.500213   -0.735552
  C      0.239999   -1.712665   -0.788925
  C     -2.191794   -0.012147    1.650311
  H      1.404911   -0.489667    2.192848
  H      0.599005    1.678928    1.411188
  H      2.730764    1.267707    1.936925
  H      4.041734    0.670903    0.864998
  H      3.096774    2.079663    0.488904
  H     -0.292254    2.966613   -1.620024
  H      1.152414    2.345157   -0.915288
  H      0.487097    1.599669   -2.300332
  H     -0.531840   -1.758235    1.053670
  H     -0.937904    0.687679    2.969255
  H      1.470525   -1.519379   -2.477199
  H     -3.074201   -0.844678    0.033144

 Total Charge           Charge          ....    0
 Multiplicity           Mult            ....    3
 Number of Electrons    NEL             ....  132
 Basis Dimension        Dim             ....  882

ORBITAL ENERGIES
----------------
                 SPIN UP ORBITALS
  NO   OCC          E(Eh)            E(eV)
   0   1.0000     -19.341794      -526.3170
   1   1.0000     -19.334841      -526.1278
   2   1.0000     -19.331044      -526.0244
   3   1.0000     -19.316001      -525.6151
   4   1.0000     -14.563871      -396.3031
   5   1.0000     -14.563143      -396.2833
   6   1.0000     -14.563012      -396.2797
   7   1.0000     -14.559252      -396.1774
   8   1.0000     -10.514602      -286.1169
   9   1.0000     -10.496541      -285.6254
  10   1.0000     -10.489025      -285.4209
  11   1.0000     -10.476176      -285.0712
  12   1.0000     -10.447930      -284.3026
  13   1.0000     -10.443212      -284.1742
  14   1.0000     -10.427304      -283.7414
  15   1.0000     -10.413746      -283.3724
  16   1.0000     -10.378408      -282.4108
  17   1.0000     -10.370711      -282.2014
  18   1.0000      -1.234472       -33.5917
  19   1.0000      -1.227100       -33.3911
  20   1.0000      -1.204324       -32.7713
  21   1.0000      -1.195341       -32.5269
  22   1.0000      -1.132064       -30.8050
  23   1.0000      -1.104051       -30.0427
  24   1.0000      -1.065476       -28.9931
  25   1.0000      -1.057956       -28.7885
  26   1.0000      -0.993286       -27.0287
  27   1.0000      -0.957258       -26.0483
  28   1.0000      -0.886736       -24.1293
  29   1.0000      -0.850584       -23.1456
  30   1.0000      -0.829832       -22.5809
  31   1.0000      -0.804771       -21.8989
  32   1.0000      -0.787137       -21.4191
  33   1.0000      -0.785519       -21.3751
  34   1.0000      -0.704196       -19.1621
  35   1.0000      -0.695692       -18.9307
  36   1.0000      -0.693114       -18.8606
  37   1.0000      -0.686124       -18.6704
  38   1.0000      -0.665739       -18.1157
  39   1.0000      -0.640030       -17.4161
  40   1.0000      -0.625830       -17.0297
  41   1.0000      -0.604024       -16.4363
  42   1.0000      -0.595760       -16.2114
  43   1.0000      -0.590157       -16.0590
  44   1.0000      -0.579692       -15.7742
  45   1.0000      -0.575707       -15.6658
  46   1.0000      -0.571333       -15.5468
  47   1.0000      -0.568714       -15.4755
  48   1.0000      -0.562780       -15.3140
  49   1.0000      -0.555238       -15.1088
  50   1.0000      -0.552969       -15.0471
  51   1.0000      -0.541253       -14.7282
  52   1.0000      -0.534700       -14.5499
  53   1.0000      -0.523626       -14.2486
  54   1.0000      -0.515322       -14.0226
  55   1.0000      -0.510081       -13.8800
  56   1.0000      -0.494953       -13.4684
  57   1.0000      -0.435059       -11.8386
  58   1.0000      -0.417872       -11.3709
  59   1.0000      -0.415501       -11.3063
  60   1.0000      -0.410959       -11.1828
  61   1.0000      -0.404033       -10.9943
  62   1.0000      -0.397099       -10.8056
  63   1.0000      -0.393713       -10.7135
  64   1.0000      -0.387704       -10.5500
  65   1.0000      -0.351440        -9.5632
  66   1.0000      -0.324133        -8.8201
  67   0.0000       0.010067         0.2739
  68   0.0000       0.030504         0.8300
  69   0.0000       0.034045         0.9264
  70   0.0000       0.036487         0.9929
  71   0.0000       0.053191         1.4474

                 SPIN DOWN ORBITALS
  NO   OCC          E(Eh)            E(eV)
   0   1.0000     -19.337522      -526.2007
   1   1.0000     -19.334780      -526.1261
   2   1.0000     -19.327176      -525.9192
   3   1.0000     -19.315738      -525.6079
   4   1.0000     -14.563795      -396.3010
   5   1.0000     -14.562732      -396.2721
   6   1.0000     -14.561961      -396.2511
   7   1.0000     -14.558533      -396.1578
   8   1.0000     -10.514684      -286.1191
   9   1.0000     -10.496588      -285.6267
  10   1.0000     -10.490211      -285.4531
  11   1.0000     -10.477012      -285.0940
  12   1.0000     -10.447368      -284.2873
  13   1.0000     -10.442180      -284.1462
  14   1.0000     -10.415888      -283.4307
  15   1.0000     -10.402683      -283.0714
  16   1.0000     -10.378958      -282.4258
  17   1.0000     -10.371279      -282.2169
  18   1.0000      -1.233616       -33.5684
  19   1.0000      -1.226244       -33.3678
  20   1.0000      -1.198947       -32.6250
  21   1.0000      -1.189444       -32.3664
  22   1.0000      -1.128897       -30.7188
  23   1.0000      -1.101777       -29.9809
  24   1.0000      -1.063436       -28.9376
  25   1.0000      -1.055764       -28.7288
  26   1.0000      -0.980678       -26.6856
  27   1.0000      -0.939804       -25.5734
  28   1.0000      -0.880741       -23.9662
  29   1.0000      -0.845889       -23.0178
  30   1.0000      -0.820781       -22.3346
  31   1.0000      -0.798939       -21.7402
  32   1.0000      -0.785646       -21.3785
  33   1.0000      -0.783895       -21.3309
  34   1.0000      -0.699860       -19.0442
  35   1.0000      -0.690513       -18.7898
  36   1.0000      -0.685902       -18.6643
  37   1.0000      -0.677922       -18.4472
  38   1.0000      -0.654287       -17.8041
  39   1.0000      -0.635976       -17.3058
  40   1.0000      -0.619301       -16.8520
  41   1.0000      -0.597874       -16.2690
  42   1.0000      -0.591970       -16.1083
  43   1.0000      -0.585224       -15.9247
  44   1.0000      -0.573442       -15.6042
  45   1.0000      -0.567018       -15.4293
  46   1.0000      -0.565643       -15.3919
  47   1.0000      -0.563235       -15.3264
  48   1.0000      -0.558610       -15.2006
  49   1.0000      -0.548115       -14.9150
  50   1.0000      -0.541095       -14.7240
  51   1.0000      -0.532285       -14.4842
  52   1.0000      -0.526794       -14.3348
  53   1.0000      -0.516637       -14.0584
  54   1.0000      -0.509451       -13.8629
  55   1.0000      -0.499364       -13.5884
  56   1.0000      -0.490320       -13.3423
  57   1.0000      -0.431626       -11.7451
  58   1.0000      -0.414324       -11.2743
  59   1.0000      -0.412124       -11.2145
  60   1.0000      -0.397588       -10.8189
  61   1.0000      -0.391437       -10.6515
  62   1.0000      -0.389422       -10.5967
  63   1.0000      -0.388528       -10.5724
  64   1.0000      -0.375192       -10.2095
  65   0.0000      -0.068226        -1.8565
  66   0.0000      -0.054524        -1.4837
  67   0.0000       0.009654         0.2627
  68   0.0000       0.030373         0.8265
  69   0.0000       0.033845         0.9210

----------------------------------------------------------------------------------------------------
          SPIN FLIP ABSORPTION SPECTRUM VIA TRANSITION ELECTRIC DIPOLE MOMENTS
----------------------------------------------------------------------------------------------------
     Transition      Energy     Energy  Wavelength fosc(D2)      D2        DX        DY        DZ
                      (eV)      (cm-1)    (nm)                 (au**2)    (au)      (au)      (au)
----------------------------------------------------------------------------------------------------
  1-3A  ->  2-3A    0.074381     599.9  16668.9   0.000015423   0.00846  -0.08945   0.01665   0.01360
  1-3A  ->  3-1A    1.968095   15873.8   630.0   0.012832201   0.26613  -0.43408   0.23231  -0.15406

Dispersion correction             ... done (  0.1 sec)

MULLIKEN ATOMIC CHARGES AND SPIN DENSITIES
------------------------------------------
   0 O :   -0.663569    0.111114
   1 O :   -0.645950   -0.122743
   2 O :   -0.566552   -0.003356
   3 O :   -0.655278    0.001833
   4 N :   -0.218440    0.003054
   5 N :   -0.337073   -0.011047
   6 N :    0.032654    0.007852
   7 N :    0.030793   -0.007443
   8 C :    0.214835    0.372851
   9 C :    0.732293    0.239876
  10 C :    0.595715    0.005582
  11 C :   -0.103360   -0.416798
  12 C :   -1.621920   -0.009251
  13 C :   -1.381088   -0.025632
  14 C :    0.402360    0.100579
  15 C :   -0.023260   -0.302141
  16 C :    0.249749   -0.006257
  17 C :    0.427652    0.021391
  18 H :    0.372517    0.028256
  19 H :    0.814170    0.003816
  20 H :    0.412402    0.004325
  21 H :    0.401395    0.015837
  22 H :    0.248757    0.013952
  23 H :    0.374454   -0.010110
  24 H :    0.316976    0.005360
  25 H :    0.260178   -0.015947
  26 H :    0.108540   -0.005705
  27 H :    0.086046    0.001698
  28 H :    0.063935   -0.003698
  29 H :    0.071069    0.002750
Sum of atomic charges       :    0.0000000

LOEWDIN ATOMIC CHARGES AND SPIN DENSITIES
-----------------------------------------
   0 O :    0.100197    0.096163
   1 O :    0.089325   -0.104813
   2 O :    0.130645   -0.003151
   3 O :    0.101210    0.001668
   4 N :    0.303254   -0.000199
   5 N :    0.274930    0.001228
   6 N :    0.327249    0.015614
   7 N :    0.323765   -0.012279
   8 C :   -0.065078    0.369310
   9 C :    0.033683   -0.367116
  10 C :   -0.139940    0.022116
  11 C :   -0.089494   -0.011734
  12 C :    0.219182    0.045492
  13 C :    0.210122   -0.056984
  14 C :   -0.464061    0.063697
  15 C :   -0.370560   -0.057296
  16 C :   -0.455649   -0.003554
  17 C :   -0.578739    0.000549
  18 H :    0.108713    0.005785
  19 H :    0.001647   -0.001967
  20 H :   -0.039934   -0.000830
  21 H :   -0.021114    0.012251
  22 H :    0.041143    0.012858
  23 H :   -0.011889   -0.014453
  24 H :   -0.030440    0.002042
  25 H :    0.044730   -0.014912
  26 H :   -0.069020    0.000135
  27 H :    0.003191    0.000099
  28 H :    0.018118    0.001231
  29 H :    0.004818   -0.000952

  Mayer bond orders larger than 0.100000
B(  0-O , 14-C ) :   1.3385 B(  1-O , 15-C ) :   1.3823 B(  2-O , 16-C ) :   1.5517
B(  3-O , 17-C ) :   1.5647 B(  4-N ,  8-C ) :   0.2208 B(  4-N , 10-C ) :   0.3438
B(  4-N , 16-C ) :   1.0213 B(  4-N , 18-H ) :  -0.1201 B(  4-N , 26-H ) :   0.9613
B(  5-N ,  9-C ) :   0.2752 B(  5-N , 10-C ) :   0.1230 B(  5-N , 17-C ) :   1.1975
B(  5-N , 19-H ) :  -0.1415 B(  5-N , 27-H ) :   1.0324 B(  6-N ,  8-C ) :  -0.1125
B(  6-N , 10-C ) :   0.1210 B(  6-N , 14-C ) :   1.0179 B(  6-N , 16-C ) :   0.9444
B(  6-N , 28-H ) :   1.0685 B(  7-N , 15-C ) :   0.9566 B(  7-N , 17-C ) :   0.9033
B(  7-N , 29-H ) :   1.0854 B(  8-C , 11-C ) :   0.4004 B(  8-C , 12-C ) :   0.3694
B(  8-C , 14-C ) :   0.8582 B(  8-C , 18-H ) :  -0.2548 B(  8-C , 20-H ) :  -0.1322
B(  9-C , 10-C ) :   0.1534 B(  9-C , 11-C ) :   0.4761 B(  9-C , 13-C ) :   0.4380
B(  9-C , 15-C ) :   0.3887 B(  9-C , 19-H ) :  -0.1666 B( 10-C , 11-C ) :   0.2073
B( 10-C , 12-C ) :  -0.2372 B( 10-C , 18-H ) :   1.0748 B( 11-C , 12-C ) :   0.1436
B( 11-C , 15-C ) :   0.1743 B( 11-C , 17-C ) :  -0.2107 B( 11-C , 19-H ) :   0.4746
B( 12-C , 20-H ) :   0.9380 B( 12-C , 21-H ) :   0.9222 B( 12-C , 22-H ) :   0.9617
B( 13-C , 23-H ) :   0.8778 B( 13-C , 24-H ) :   0.8780 B( 13-C , 25-H ) :   0.9592
B( 15-C , 16-C ) :   0.1100 B( 15-C , 17-C ) :  -0.1184

Dispersion correction           -0.062063917
FINAL SINGLE POINT ENERGY      -908.763576510130

DIPOLE MOMENT
-------------

Method             : TDA/CIS
Type of density    : Electron Density
Level              : Relaxed density
State              :   2
Multiplicity       :   3
Irrep              :   0
Energy             :     0.0000000000000000 Eh
Relativity type    :
Basis              : AO
                                X                 Y                 Z
Electronic contribution:     -7.914448694      -7.622349133      -2.171629872
Nuclear contribution   :      9.548352075       8.607125097       3.648267112
                        -----------------------------------------
Total Dipole Moment    :      1.633903381       0.984775964       1.476637240
                        -----------------------------------------
Magnitude (a.u.)       :      2.412443056
Magnitude (Debye)      :      6.131942934

Rotational constants in cm-1:             0.023103             0.013308             0.012117
Rotational constants in MHz :           692.603549           398.959667           363.250532

                             ****ORCA TERMINATED NORMALLY****
TOTAL RUN TIME: 0 days 0 hours 5 minutes 1 seconds 417 msec
