                         Program Version 6.0.0  -   RELEASE  -
|  1> ! EnGrad wB97M-D3BJ def2-TZVPPD
|  2> %pal nprocs 8 end%pal nprocs 16 end
|  3> %tddft
|  4>  sf true
|  5>  nroots 2 Iroot 1 end
|  6> *xyz 0 3
|  7> O   0.10947291091439 0.85604262597334 -0.00019628251869
|  8> C   0.68202472498135 -0.38268059157308 7.454291738e-05
|  9> C   -0.72847882518467 -0.54650762914065 -8.695338237e-05
| 10> H   1.23322569743806 -0.65211396243593 0.90120384236444
| 11> H   1.23300671849909 -0.65220026747056 -0.90119385661236
| 12> H   -1.26370083016344 -0.67104262628525 -0.9263902007874
| 13> H   -1.26335039648478 -0.66989754906786 0.92658890801899
| 14> *
| 15>
| 16>                          ****END OF INPUT****

CARTESIAN COORDINATES (ANGSTROEM)
---------------------------------
  O      0.109473    0.856043   -0.000196
  C      0.682025   -0.382681    0.000075
  C     -0.728479   -0.546508   -0.000087
  H      1.233226   -0.652114    0.901204
  H      1.233007   -0.652200   -0.901194
  H     -1.263701   -0.671043   -0.926390
  H     -1.263350   -0.669898    0.926589

 Total Charge           Charge          ....    0
 Multiplicity           Mult            ....    3
 Number of Electrons    NEL             ....   24
 Basis Dimension        Dim             ....  182

ORBITAL ENERGIES
----------------
                 SPIN UP ORBITALS
  NO   OCC          E(Eh)            E(eV)
   0   1.0000     -19.446748      -529.1729
   1   1.0000     -10.414831      -283.4019
   2   1.0000     -10.344060      -281.4762
   3   1.0000      -1.267470       -34.4896
   4   1.0000      -0.859698       -23.3936
   5   1.0000      -0.763123       -20.7656
   6   1.0000      -0.671973       -18.2853
   7   1.0000      -0.635569       -17.2947
   8   1.0000      -0.558110       -15.1869
   9   1.0000      -0.499351       -13.5880
  10   1.0000      -0.484542       -13.1851
  11   1.0000      -0.463765       -12.6197
  12   1.0000      -0.180248        -4.9048
  13   0.0000       0.038549         1.0490
  14   0.0000       0.062634         1.7043
  15   0.0000       0.071334         1.9411
  16   0.0000       0.086650         2.3579
  17   0.0000       0.111918         3.0455

                 SPIN DOWN ORBITALS
  NO   OCC          E(Eh)            E(eV)
   0   1.0000     -19.414118      -528.2850
   1   1.0000     -10.415391      -283.4172
   2   1.0000     -10.333478      -281.1882
   3   1.0000      -1.200722       -32.6733
   4   1.0000      -0.825209       -22.4551
   5   1.0000      -0.743855       -20.2413
   6   1.0000      -0.620000       -16.8710
   7   1.0000      -0.601082       -16.3563
   8   1.0000      -0.522610       -14.2210
   9   1.0000      -0.474387       -12.9087
  10   1.0000      -0.422874       -11.5070
  11   0.0000      -0.101324        -2.7572
  12   0.0000       0.034298         0.9333
  13   0.0000       0.058394         1.5890
  14   0.0000       0.059524         1.6197
  15   0.0000       0.066185         1.8010

----------------------------------------------------------------------------------------------------
          SPIN FLIP ABSORPTION SPECTRUM VIA TRANSITION ELECTRIC DIPOLE MOMENTS
----------------------------------------------------------------------------------------------------
     Transition      Energy     Energy  Wavelength fosc(D2)      D2        DX        DY        DZ
                      (eV)      (cm-1)    (nm)                 (au**2)    (au)      (au)      (au)
----------------------------------------------------------------------------------------------------
  1-3A  ->  2-3A    5.439991   43876.5   227.9   0.005434000   0.04077  -0.00028  -0.00019   0.20192

Dispersion correction             ... done (  0.0 sec)

MULLIKEN ATOMIC CHARGES AND SPIN DENSITIES
------------------------------------------
   0 O :   -0.408855    0.060706
   1 C :   -0.116813   -0.094433
   2 C :   -0.435270    0.009844
   3 H :    0.202997    0.024418
   4 H :    0.202942    0.024428
   5 H :    0.277509   -0.012500
   6 H :    0.277489   -0.012463
Sum of atomic charges       :    0.0000000

LOEWDIN ATOMIC CHARGES AND SPIN DENSITIES
-----------------------------------------
   0 O :   -0.061017    0.019613
   1 C :   -0.185013   -0.009132
   2 C :    0.181001   -0.008011
   3 H :    0.026098    0.004143
   4 H :    0.026102    0.004149
   5 H :    0.006426   -0.005378
   6 H :    0.006403   -0.005384

  Mayer bond orders larger than 0.100000
B(  0-O ,  1-C ) :   0.7819 B(  0-O ,  2-C ) :   0.8868 B(  1-C ,  2-C ) :   0.7533
B(  1-C ,  3-H ) :   1.0320 B(  1-C ,  4-H ) :   1.0319 B(  2-C ,  5-H ) :   0.9214
B(  2-C ,  6-H ) :   0.9215

Dispersion correction           -0.005242834
FINAL SINGLE POINT ENERGY      -153.855569873488

DIPOLE MOMENT
-------------

Method             : TDA/CIS
Type of density    : Electron Density
Level              : Relaxed density
State              :   1
Multiplicity       :   3
Irrep              :   0
Energy             :     0.0000000000000000 Eh
Relativity type    :
Basis              : AO
                                X                 Y                 Z
Electronic contribution:     -0.052611781       1.287191382      -0.000313083
Nuclear contribution   :     -0.152266885      -2.457845661       0.000456212
                        -----------------------------------------
Total Dipole Moment    :     -0.204878666      -1.170654280       0.000143129
                        -----------------------------------------
Magnitude (a.u.)       :      1.188447193
Magnitude (Debye)      :      3.020792699

Rotational constants in cm-1:             0.899302             0.668110             0.452658
Rotational constants in MHz :         26960.403561         20029.439909         13570.347325

                             ****ORCA TERMINATED NORMALLY****
TOTAL RUN TIME: 0 days 0 hours 0 minutes 18 seconds 118 msec
