                         Program Version 6.0.0  -   RELEASE  -
|  1> ! Engrad def2-TZVPPD wB97M-D3BJ
|  2> %pal nprocs 8 end%pal nprocs 64 end
|  3> %tddft
|  4>  Iroot 2 Nroots 3
|  5> sf true
|  6> end
|  7> *xyz 0 3
|  8> O   3.13767166 0.63734177 -0.56859931
|  9> O   -0.51178167 1.23260002 -2.40469081
| 10> O   0.48799361 -3.00018135 -0.49439357
| 11> O   -3.0239006 -1.87497204 -0.31093059
| 12> N   0.12026779 -1.35061808 0.97165485
| 13> N   -2.18427022 -0.06847994 0.92188376
| 14> N   1.65555706 -0.99101185 -0.74628862
| 15> N   -1.79980173 -0.27669785 -1.32971664
| 16> C   1.65139305 0.39619314 1.19429486
| 17> C   -0.7421642 1.54291476 -0.11887342
| 18> C   0.312167 -0.09394593 1.50560934
| 19> C   -0.93568185 0.76471658 1.11051639
| 20> C   2.22302636 1.5148124 2.11455549
| 21> C   -0.13803758 2.92716773 -0.06557288
| 22> C   2.24947848 0.05358625 -0.04327079
| 23> C   -0.95652967 0.83886865 -1.34573579
| 24> C   0.74217346 -1.88206753 -0.17315308
| 25> C   -2.3779857 -0.83050899 -0.21688476
| 26> H   0.2926241 -0.12054092 2.64055294
| 27> H   -1.08755403 1.50158232 1.86975998
| 28> H   2.7025128 1.04140796 2.96763754
| 29> H   2.80281958 2.1225396 1.48199315
| 30> H   1.30903772 2.08401481 2.47982112
| 31> H   -0.66203956 3.69165963 -0.66100792
| 32> H   -0.19536098 3.3627047 0.93555044
| 33> H   0.85898236 2.96927188 -0.43444557
| 34> H   -0.68525183 -1.90182775 1.21272777
| 35> H   -2.85637451 -0.18167622 1.66593951
| 36> H   2.24450995 -1.46332819 -1.46166812
| 37> H   -1.73561546 -0.81353105 -2.15795773
| 38> *
| 39>
| 40>                          ****END OF INPUT****

CARTESIAN COORDINATES (ANGSTROEM)
---------------------------------
  O      3.137672    0.637342   -0.568599
  O     -0.511782    1.232600   -2.404691
  O      0.487994   -3.000181   -0.494394
  O     -3.023901   -1.874972   -0.310931
  N      0.120268   -1.350618    0.971655
  N     -2.184270   -0.068480    0.921884
  N      1.655557   -0.991012   -0.746289
  N     -1.799802   -0.276698   -1.329717
  C      1.651393    0.396193    1.194295
  C     -0.742164    1.542915   -0.118873
  C      0.312167   -0.093946    1.505609
  C     -0.935682    0.764717    1.110516
  C      2.223026    1.514812    2.114555
  C     -0.138038    2.927168   -0.065573
  C      2.249478    0.053586   -0.043271
  C     -0.956530    0.838869   -1.345736
  C      0.742173   -1.882068   -0.173153
  C     -2.377986   -0.830509   -0.216885
  H      0.292624   -0.120541    2.640553
  H     -1.087554    1.501582    1.869760
  H      2.702513    1.041408    2.967638
  H      2.802820    2.122540    1.481993
  H      1.309038    2.084015    2.479821
  H     -0.662040    3.691660   -0.661008
  H     -0.195361    3.362705    0.935550
  H      0.858982    2.969272   -0.434446
  H     -0.685252   -1.901828    1.212728
  H     -2.856375   -0.181676    1.665940
  H      2.244510   -1.463328   -1.461668
  H     -1.735615   -0.813531   -2.157958

 Total Charge           Charge          ....    0
 Multiplicity           Mult            ....    3
 Number of Electrons    NEL             ....  132
 Basis Dimension        Dim             ....  882

ORBITAL ENERGIES
----------------
                 SPIN UP ORBITALS
  NO   OCC          E(Eh)            E(eV)
   0   1.0000     -19.336193      -526.1645
   1   1.0000     -19.329183      -525.9738
   2   1.0000     -19.322134      -525.7820
   3   1.0000     -19.319823      -525.7191
   4   1.0000     -14.562401      -396.2631
   5   1.0000     -14.562294      -396.2602
   6   1.0000     -14.555927      -396.0869
   7   1.0000     -14.543211      -395.7409
   8   1.0000     -10.506050      -285.8841
   9   1.0000     -10.501793      -285.7683
  10   1.0000     -10.477665      -285.1117
  11   1.0000     -10.472776      -284.9787
  12   1.0000     -10.441896      -284.1384
  13   1.0000     -10.438162      -284.0368
  14   1.0000     -10.420290      -283.5505
  15   1.0000     -10.413621      -283.3690
  16   1.0000     -10.385939      -282.6158
  17   1.0000     -10.375031      -282.3189
  18   1.0000      -1.231916       -33.5221
  19   1.0000      -1.214979       -33.0613
  20   1.0000      -1.211100       -32.9557
  21   1.0000      -1.189597       -32.3706
  22   1.0000      -1.123489       -30.5717
  23   1.0000      -1.094574       -29.7849
  24   1.0000      -1.065871       -29.0038
  25   1.0000      -1.046702       -28.4822
  26   1.0000      -0.983262       -26.7559
  27   1.0000      -0.954676       -25.9781
  28   1.0000      -0.884444       -24.0669
  29   1.0000      -0.844082       -22.9686
  30   1.0000      -0.835404       -22.7325
  31   1.0000      -0.800653       -21.7869
  32   1.0000      -0.783287       -21.3143
  33   1.0000      -0.776014       -21.1164
  34   1.0000      -0.703424       -19.1411
  35   1.0000      -0.698410       -19.0047
  36   1.0000      -0.687450       -18.7065
  37   1.0000      -0.670812       -18.2537
  38   1.0000      -0.659744       -17.9525
  39   1.0000      -0.641851       -17.4656
  40   1.0000      -0.622909       -16.9502
  41   1.0000      -0.602769       -16.4022
  42   1.0000      -0.588266       -16.0075
  43   1.0000      -0.585508       -15.9325
  44   1.0000      -0.580734       -15.8026
  45   1.0000      -0.571936       -15.5632
  46   1.0000      -0.564060       -15.3489
  47   1.0000      -0.560505       -15.2521
  48   1.0000      -0.559145       -15.2151
  49   1.0000      -0.557897       -15.1811
  50   1.0000      -0.542842       -14.7715
  51   1.0000      -0.539344       -14.6763
  52   1.0000      -0.533871       -14.5274
  53   1.0000      -0.521899       -14.2016
  54   1.0000      -0.513479       -13.9725
  55   1.0000      -0.507930       -13.8215
  56   1.0000      -0.491408       -13.3719
  57   1.0000      -0.424171       -11.5423
  58   1.0000      -0.416479       -11.3330
  59   1.0000      -0.409345       -11.1389
  60   1.0000      -0.402572       -10.9545
  61   1.0000      -0.399068       -10.8592
  62   1.0000      -0.393961       -10.7202
  63   1.0000      -0.390263       -10.6196
  64   1.0000      -0.381345       -10.3769
  65   1.0000      -0.345750        -9.4083
  66   1.0000      -0.331322        -9.0157
  67   0.0000       0.007274         0.1979
  68   0.0000       0.030060         0.8180
  69   0.0000       0.032096         0.8734
  70   0.0000       0.038369         1.0441
  71   0.0000       0.056110         1.5268

                 SPIN DOWN ORBITALS
  NO   OCC          E(Eh)            E(eV)
   0   1.0000     -19.331596      -526.0395
   1   1.0000     -19.324441      -525.8448
   2   1.0000     -19.322058      -525.7799
   3   1.0000     -19.319665      -525.7148
   4   1.0000     -14.561784      -396.2463
   5   1.0000     -14.561758      -396.2456
   6   1.0000     -14.555644      -396.0792
   7   1.0000     -14.542904      -395.7325
   8   1.0000     -10.506080      -285.8850
   9   1.0000     -10.501821      -285.7691
  10   1.0000     -10.478677      -285.1393
  11   1.0000     -10.473809      -285.0068
  12   1.0000     -10.441313      -284.1226
  13   1.0000     -10.437864      -284.0287
  14   1.0000     -10.408806      -283.2380
  15   1.0000     -10.402270      -283.0602
  16   1.0000     -10.386444      -282.6295
  17   1.0000     -10.375551      -282.3331
  18   1.0000      -1.227842       -33.4113
  19   1.0000      -1.211573       -32.9686
  20   1.0000      -1.208308       -32.8797
  21   1.0000      -1.185386       -32.2560
  22   1.0000      -1.120439       -30.4887
  23   1.0000      -1.092054       -29.7163
  24   1.0000      -1.064036       -28.9539
  25   1.0000      -1.045070       -28.4378
  26   1.0000      -0.970026       -26.3958
  27   1.0000      -0.937130       -25.5006
  28   1.0000      -0.878979       -23.9182
  29   1.0000      -0.839068       -22.8322
  30   1.0000      -0.826466       -22.4893
  31   1.0000      -0.795322       -21.6418
  32   1.0000      -0.781787       -21.2735
  33   1.0000      -0.774386       -21.0721
  34   1.0000      -0.698206       -18.9992
  35   1.0000      -0.693412       -18.8687
  36   1.0000      -0.682273       -18.5656
  37   1.0000      -0.662427       -18.0256
  38   1.0000      -0.649381       -17.6706
  39   1.0000      -0.636975       -17.3330
  40   1.0000      -0.615152       -16.7391
  41   1.0000      -0.598108       -16.2754
  42   1.0000      -0.582730       -15.8569
  43   1.0000      -0.574914       -15.6442
  44   1.0000      -0.574083       -15.6216
  45   1.0000      -0.562713       -15.3122
  46   1.0000      -0.561332       -15.2746
  47   1.0000      -0.555837       -15.1251
  48   1.0000      -0.552897       -15.0451
  49   1.0000      -0.547440       -14.8966
  50   1.0000      -0.536860       -14.6087
  51   1.0000      -0.533482       -14.5168
  52   1.0000      -0.523687       -14.2502
  53   1.0000      -0.517570       -14.0838
  54   1.0000      -0.506405       -13.7800
  55   1.0000      -0.500503       -13.6194
  56   1.0000      -0.483474       -13.1560
  57   1.0000      -0.419424       -11.4131
  58   1.0000      -0.411486       -11.1971
  59   1.0000      -0.399240       -10.8639
  60   1.0000      -0.393885       -10.7182
  61   1.0000      -0.390494       -10.6259
  62   1.0000      -0.387529       -10.5452
  63   1.0000      -0.382317       -10.4034
  64   1.0000      -0.371384       -10.1059
  65   0.0000      -0.061909        -1.6846
  66   0.0000      -0.053588        -1.4582
  67   0.0000       0.006784         0.1846
  68   0.0000       0.030110         0.8193
  69   0.0000       0.031739         0.8637

----------------------------------------------------------------------------------------------------
          SPIN FLIP ABSORPTION SPECTRUM VIA TRANSITION ELECTRIC DIPOLE MOMENTS
----------------------------------------------------------------------------------------------------
     Transition      Energy     Energy  Wavelength fosc(D2)      D2        DX        DY        DZ
                      (eV)      (cm-1)    (nm)                 (au**2)    (au)      (au)      (au)
----------------------------------------------------------------------------------------------------
  1-3A  ->  2-1A    0.020231     163.2  61284.2   0.000001808   0.00365   0.05936  -0.00388   0.01047
  1-3A  ->  3-1A    2.057474   16594.6   602.6   0.003788290   0.07515   0.26435   0.06682  -0.02846

Dispersion correction             ... done (  0.1 sec)

MULLIKEN ATOMIC CHARGES AND SPIN DENSITIES
------------------------------------------
   0 O :   -0.645758   -0.099108
   1 O :   -0.665166    0.104423
   2 O :   -0.615003   -0.001197
   3 O :   -0.648851    0.000934
   4 N :   -0.350544   -0.013480
   5 N :   -0.290107    0.007212
   6 N :    0.043468   -0.003548
   7 N :    0.046634    0.008430
   8 C :    0.670989    0.393261
   9 C :    0.434963    0.363944
  10 C :   -0.074527   -0.332153
  11 C :    0.532354    0.000832
  12 C :   -1.293684    0.024569
  13 C :   -1.414537   -0.009999
  14 C :    0.094960   -0.457524
  15 C :    0.134118   -0.014639
  16 C :    0.288395    0.015070
  17 C :    0.341059    0.000442
  18 H :    0.536625   -0.024080
  19 H :    0.564585    0.011806
  20 H :    0.398380   -0.009504
  21 H :    0.326690   -0.003812
  22 H :    0.319307   -0.000304
  23 H :    0.356607    0.016128
  24 H :    0.314361   -0.000375
  25 H :    0.278383    0.019078
  26 H :    0.117558    0.002504
  27 H :    0.053766    0.000646
  28 H :    0.129886   -0.000196
  29 H :    0.015089    0.000638
Sum of atomic charges       :    0.0000000

LOEWDIN ATOMIC CHARGES AND SPIN DENSITIES
-----------------------------------------
   0 O :    0.123186   -0.090205
   1 O :    0.107598    0.090783
   2 O :    0.119752   -0.001353
   3 O :    0.076255    0.000810
   4 N :    0.256526   -0.002072
   5 N :    0.289537    0.006383
   6 N :    0.322025   -0.011338
   7 N :    0.337900    0.006594
   8 C :    0.007316   -0.284275
   9 C :   -0.020314    0.295047
  10 C :   -0.183229   -0.023734
  11 C :   -0.078610    0.018318
  12 C :    0.234414   -0.031853
  13 C :    0.210410    0.039155
  14 C :   -0.466964   -0.060045
  15 C :   -0.407198    0.047465
  16 C :   -0.462381   -0.000361
  17 C :   -0.489221    0.000073
  18 H :    0.088306   -0.005517
  19 H :    0.026620    0.002587
  20 H :    0.002358   -0.009908
  21 H :   -0.039334   -0.000915
  22 H :    0.021014   -0.005239
  23 H :    0.016995    0.008727
  24 H :   -0.005598   -0.000652
  25 H :   -0.014260    0.011483
  26 H :   -0.036646   -0.000354
  27 H :   -0.033444    0.000491
  28 H :    0.024049   -0.000807
  29 H :   -0.027060    0.000712

  Mayer bond orders larger than 0.100000
B(  0-O , 14-C ) :   1.3405 B(  1-O ,  9-C ) :  -0.1048 B(  1-O , 15-C ) :   1.4097
B(  2-O , 16-C ) :   1.6057 B(  3-O , 17-C ) :   1.5634 B(  4-N ,  8-C ) :   0.2263
B(  4-N , 10-C ) :   0.2926 B(  4-N , 16-C ) :   1.0267 B(  4-N , 18-H ) :  -0.1492
B(  4-N , 26-H ) :   1.0625 B(  5-N ,  9-C ) :   0.4051 B(  5-N , 10-C ) :   0.2261
B(  5-N , 17-C ) :   1.0878 B(  5-N , 19-H ) :  -0.1289 B(  5-N , 27-H ) :   1.0915
B(  6-N , 10-C ) :   0.1010 B(  6-N , 14-C ) :   0.9857 B(  6-N , 16-C ) :   0.9999
B(  6-N , 28-H ) :   0.9944 B(  7-N ,  9-C ) :  -0.1243 B(  7-N , 11-C ) :   0.1381
B(  7-N , 15-C ) :   0.9920 B(  7-N , 17-C ) :   0.9668 B(  7-N , 29-H ) :   1.1046
B(  8-C , 12-C ) :   0.5353 B(  8-C , 14-C ) :   0.7886 B(  8-C , 16-C ) :   0.1594
B(  8-C , 18-H ) :  -0.1768 B(  9-C , 13-C ) :   0.5061 B(  9-C , 15-C ) :   0.7418
B(  9-C , 19-H ) :  -0.1699 B(  9-C , 24-H ) :  -0.1301 B( 10-C , 11-C ) :   0.6119
B( 10-C , 16-C ) :  -0.2569 B( 10-C , 18-H ) :   0.8098 B( 11-C , 13-C ) :  -0.1138
B( 11-C , 17-C ) :  -0.1387 B( 11-C , 19-H ) :   0.9388 B( 12-C , 20-H ) :   0.8405
B( 12-C , 21-H ) :   1.0141 B( 12-C , 22-H ) :   0.8800 B( 13-C , 23-H ) :   0.8972
B( 13-C , 24-H ) :   1.0106 B( 13-C , 25-H ) :   0.9212 B( 14-C , 16-C ) :  -0.1233

Dispersion correction           -0.060497685
FINAL SINGLE POINT ENERGY      -908.762008301523

DIPOLE MOMENT
-------------

Method             : TDA/CIS
Type of density    : Electron Density
Level              : Relaxed density
State              :   2
Multiplicity       :   3
Irrep              :   0
Energy             :     0.0000000000000000 Eh
Relativity type    :
Basis              : AO
                                X                 Y                 Z
Electronic contribution:     -2.924159107     -10.181984928      -7.458639561
Nuclear contribution   :      2.888142771      11.944471481      10.046488056
                        -----------------------------------------
Total Dipole Moment    :     -0.036016336       1.762486554       2.587848495
                        -----------------------------------------
Magnitude (a.u.)       :      3.131232323
Magnitude (Debye)      :      7.958960056

Rotational constants in cm-1:             0.020411             0.014858             0.012696
Rotational constants in MHz :           611.891931           445.424090           380.609042

                             ****ORCA TERMINATED NORMALLY****
TOTAL RUN TIME: 0 days 0 hours 5 minutes 9 seconds 25 msec
