                         Program Version 6.0.0  -   RELEASE  -
|  1> ! Engrad def2-TZVPPD wB97M-D3BJ
|  2> %pal nprocs 8 end%pal nprocs 64 end
|  3> %tddft Nroots 2 Iroot 1
|  4> sf true
|  5> end
|  6> *xyz 0 3
|  7> O   2.84482567 1.04282252 -0.61441324
|  8> O   -0.23328852 0.82535049 -2.01253308
|  9> O   0.42228983 -2.53818972 -1.63952371
| 10> O   -2.61387961 -1.7514889 0.70868787
| 11> N   0.50627728 -2.03576652 0.61001344
| 12> N   -2.4077359 0.49294651 1.23475499
| 13> N   1.90730605 -0.95659119 -0.87544529
| 14> N   -1.66233965 -0.31834654 -0.75933401
| 15> C   1.62464717 0.09381377 1.21491935
| 16> C   -0.92215072 1.85509439 0.01519533
| 17> C   0.81456136 -1.04943975 1.5199914
| 18> C   -1.7419751 1.67375704 1.05634383
| 19> C   1.91344016 1.11801207 2.27552663
| 20> C   0.00589608 3.00502279 -0.14169967
| 21> C   2.12446459 0.18501129 -0.11272192
| 22> C   -0.92177319 0.82069438 -1.02737029
| 23> C   0.89529269 -1.87004517 -0.74578858
| 24> C   -2.22758914 -0.65196952 0.4260934
| 25> H   0.36422657 -1.2175369 2.46927592
| 26> H   -1.95824214 2.44864512 1.76025582
| 27> H   1.02094585 1.43386795 2.77373233
| 28> H   2.59523164 0.74880116 3.08347478
| 29> H   2.4693004 1.98114278 1.78036494
| 30> H   0.11280174 3.28115545 -1.20445466
| 31> H   -0.39928108 3.86471166 0.42877125
| 32> H   1.02736044 2.67267484 0.19797557
| 33> H   -0.30566103 -2.69129015 0.71268377
| 34> H   -2.92241162 0.24270854 2.08166182
| 35> H   2.29214414 -0.88990671 -1.80215345
| 36> H   -1.40180014 -1.08743617 -1.35952028
| 37> *
| 38>
| 39>                          ****END OF INPUT****

CARTESIAN COORDINATES (ANGSTROEM)
---------------------------------
  O      2.844826    1.042823   -0.614413
  O     -0.233289    0.825350   -2.012533
  O      0.422290   -2.538190   -1.639524
  O     -2.613880   -1.751489    0.708688
  N      0.506277   -2.035767    0.610013
  N     -2.407736    0.492947    1.234755
  N      1.907306   -0.956591   -0.875445
  N     -1.662340   -0.318347   -0.759334
  C      1.624647    0.093814    1.214919
  C     -0.922151    1.855094    0.015195
  C      0.814561   -1.049440    1.519991
  C     -1.741975    1.673757    1.056344
  C      1.913440    1.118012    2.275527
  C      0.005896    3.005023   -0.141700
  C      2.124465    0.185011   -0.112722
  C     -0.921773    0.820694   -1.027370
  C      0.895293   -1.870045   -0.745789
  C     -2.227589   -0.651970    0.426093
  H      0.364227   -1.217537    2.469276
  H     -1.958242    2.448645    1.760256
  H      1.020946    1.433868    2.773732
  H      2.595232    0.748801    3.083475
  H      2.469300    1.981143    1.780365
  H      0.112802    3.281155   -1.204455
  H     -0.399281    3.864712    0.428771
  H      1.027360    2.672675    0.197976
  H     -0.305661   -2.691290    0.712684
  H     -2.922412    0.242709    2.081662
  H      2.292144   -0.889907   -1.802153
  H     -1.401800   -1.087436   -1.359520

 Total Charge           Charge          ....    0
 Multiplicity           Mult            ....    3
 Number of Electrons    NEL             ....  132
 Basis Dimension        Dim             ....  882

ORBITAL ENERGIES
----------------
                 SPIN UP ORBITALS
  NO   OCC          E(Eh)            E(eV)
   0   1.0000     -19.334867      -526.1285
   1   1.0000     -19.334408      -526.1160
   2   1.0000     -19.325219      -525.8660
   3   1.0000     -19.320239      -525.7304
   4   1.0000     -14.585441      -396.8900
   5   1.0000     -14.581106      -396.7721
   6   1.0000     -14.564731      -396.3265
   7   1.0000     -14.547302      -395.8522
   8   1.0000     -10.514058      -286.1021
   9   1.0000     -10.508550      -285.9522
  10   1.0000     -10.474338      -285.0212
  11   1.0000     -10.461363      -284.6682
  12   1.0000     -10.431579      -283.8577
  13   1.0000     -10.420199      -283.5480
  14   1.0000     -10.401390      -283.0362
  15   1.0000     -10.379751      -282.4474
  16   1.0000     -10.377531      -282.3870
  17   1.0000     -10.356628      -281.8182
  18   1.0000      -1.235166       -33.6106
  19   1.0000      -1.221749       -33.2455
  20   1.0000      -1.200742       -32.6739
  21   1.0000      -1.189303       -32.3626
  22   1.0000      -1.124372       -30.5957
  23   1.0000      -1.113226       -30.2924
  24   1.0000      -1.070783       -29.1375
  25   1.0000      -1.056298       -28.7433
  26   1.0000      -0.965611       -26.2756
  27   1.0000      -0.954496       -25.9732
  28   1.0000      -0.848305       -23.0836
  29   1.0000      -0.844820       -22.9887
  30   1.0000      -0.812695       -22.1146
  31   1.0000      -0.805375       -21.9154
  32   1.0000      -0.791861       -21.5476
  33   1.0000      -0.781224       -21.2582
  34   1.0000      -0.694628       -18.9018
  35   1.0000      -0.689691       -18.7674
  36   1.0000      -0.685519       -18.6539
  37   1.0000      -0.681244       -18.5376
  38   1.0000      -0.650288       -17.6952
  39   1.0000      -0.633478       -17.2378
  40   1.0000      -0.618036       -16.8176
  41   1.0000      -0.601805       -16.3760
  42   1.0000      -0.596111       -16.2210
  43   1.0000      -0.594095       -16.1661
  44   1.0000      -0.574605       -15.6358
  45   1.0000      -0.571347       -15.5471
  46   1.0000      -0.564671       -15.3655
  47   1.0000      -0.554132       -15.0787
  48   1.0000      -0.550238       -14.9727
  49   1.0000      -0.545746       -14.8505
  50   1.0000      -0.533244       -14.5103
  51   1.0000      -0.524546       -14.2736
  52   1.0000      -0.520213       -14.1557
  53   1.0000      -0.512655       -13.9501
  54   1.0000      -0.501766       -13.6538
  55   1.0000      -0.491326       -13.3696
  56   1.0000      -0.484255       -13.1773
  57   1.0000      -0.480849       -13.0846
  58   1.0000      -0.428103       -11.6493
  59   1.0000      -0.423294       -11.5184
  60   1.0000      -0.407897       -11.0994
  61   1.0000      -0.398965       -10.8564
  62   1.0000      -0.391439       -10.6516
  63   1.0000      -0.387061       -10.5325
  64   1.0000      -0.380835       -10.3631
  65   1.0000      -0.341128        -9.2826
  66   1.0000      -0.227992        -6.2040
  67   0.0000       0.012482         0.3397
  68   0.0000       0.019360         0.5268
  69   0.0000       0.034626         0.9422
  70   0.0000       0.037740         1.0270
  71   0.0000       0.044773         1.2183

                 SPIN DOWN ORBITALS
  NO   OCC          E(Eh)            E(eV)
   0   1.0000     -19.334864      -526.1284
   1   1.0000     -19.332797      -526.0722
   2   1.0000     -19.320288      -525.7318
   3   1.0000     -19.318231      -525.6758
   4   1.0000     -14.580918      -396.7670
   5   1.0000     -14.580555      -396.7571
   6   1.0000     -14.564754      -396.3271
   7   1.0000     -14.546548      -395.8317
   8   1.0000     -10.514050      -286.1018
   9   1.0000     -10.508780      -285.9584
  10   1.0000     -10.474320      -285.0207
  11   1.0000     -10.461642      -284.6757
  12   1.0000     -10.431357      -283.8517
  13   1.0000     -10.410482      -283.2836
  14   1.0000     -10.390920      -282.7513
  15   1.0000     -10.380250      -282.4610
  16   1.0000     -10.377538      -282.3872
  17   1.0000     -10.356621      -281.8180
  18   1.0000      -1.235000       -33.6060
  19   1.0000      -1.218181       -33.1484
  20   1.0000      -1.200733       -32.6736
  21   1.0000      -1.179740       -32.1024
  22   1.0000      -1.124159       -30.5899
  23   1.0000      -1.103149       -30.0182
  24   1.0000      -1.070628       -29.1333
  25   1.0000      -1.049700       -28.5638
  26   1.0000      -0.955571       -26.0024
  27   1.0000      -0.941783       -25.6272
  28   1.0000      -0.844873       -22.9902
  29   1.0000      -0.837927       -22.8012
  30   1.0000      -0.805300       -21.9133
  31   1.0000      -0.797773       -21.7085
  32   1.0000      -0.791477       -21.5372
  33   1.0000      -0.775729       -21.1087
  34   1.0000      -0.693966       -18.8838
  35   1.0000      -0.685038       -18.6408
  36   1.0000      -0.681895       -18.5553
  37   1.0000      -0.670248       -18.2384
  38   1.0000      -0.647203       -17.6113
  39   1.0000      -0.628203       -17.0943
  40   1.0000      -0.612284       -16.6611
  41   1.0000      -0.596687       -16.2367
  42   1.0000      -0.590015       -16.0551
  43   1.0000      -0.586614       -15.9626
  44   1.0000      -0.571152       -15.5418
  45   1.0000      -0.562536       -15.3074
  46   1.0000      -0.556461       -15.1421
  47   1.0000      -0.550056       -14.9678
  48   1.0000      -0.547283       -14.8923
  49   1.0000      -0.536957       -14.6113
  50   1.0000      -0.525070       -14.2879
  51   1.0000      -0.518044       -14.0967
  52   1.0000      -0.512885       -13.9563
  53   1.0000      -0.502438       -13.6720
  54   1.0000      -0.494800       -13.4642
  55   1.0000      -0.490350       -13.3431
  56   1.0000      -0.479540       -13.0489
  57   1.0000      -0.441792       -12.0218
  58   1.0000      -0.426170       -11.5967
  59   1.0000      -0.416998       -11.3471
  60   1.0000      -0.405899       -11.0451
  61   1.0000      -0.387157       -10.5351
  62   1.0000      -0.383352       -10.4315
  63   1.0000      -0.376935       -10.2569
  64   1.0000      -0.341225        -9.2852
  65   0.0000      -0.098113        -2.6698
  66   0.0000       0.011556         0.3145
  67   0.0000       0.020191         0.5494
  68   0.0000       0.028895         0.7863
  69   0.0000       0.036398         0.9904

----------------------------------------------------------------------------------------------------
          SPIN FLIP ABSORPTION SPECTRUM VIA TRANSITION ELECTRIC DIPOLE MOMENTS
----------------------------------------------------------------------------------------------------
     Transition      Energy     Energy  Wavelength fosc(D2)      D2        DX        DY        DZ
                      (eV)      (cm-1)    (nm)                 (au**2)    (au)      (au)      (au)
----------------------------------------------------------------------------------------------------
  1-3A  ->  2-3A    3.466634   27960.3   357.7   0.001347514   0.01587   0.06537   0.07555  -0.07672

Dispersion correction             ... done (  0.1 sec)

MULLIKEN ATOMIC CHARGES AND SPIN DENSITIES
------------------------------------------
   0 O :   -0.711255    0.032305
   1 O :   -0.610904    0.001091
   2 O :   -0.617814    0.007392
   3 O :   -0.642829    0.000141
   4 N :   -0.078127    0.045217
   5 N :   -0.068916    0.003596
   6 N :    0.004035    0.000272
   7 N :   -0.040028    0.002665
   8 C :    1.128215    0.582803
   9 C :    0.440266    0.017772
  10 C :   -0.280726   -0.334295
  11 C :    0.003304   -0.010314
  12 C :   -1.491946   -0.033506
  13 C :   -1.132548    0.009607
  14 C :    0.244248   -0.381296
  15 C :    0.646323   -0.022070
  16 C :    0.283356    0.016318
  17 C :    0.353736   -0.002636
  18 H :    0.266014    0.039055
  19 H :    0.182266   -0.001889
  20 H :    0.307264    0.023568
  21 H :    0.410212    0.016317
  22 H :    0.282726   -0.009363
  23 H :    0.254855    0.000014
  24 H :    0.398603    0.001174
  25 H :    0.039026   -0.004309
  26 H :    0.209010   -0.000580
  27 H :    0.066858   -0.000968
  28 H :    0.031095    0.003733
  29 H :    0.123681   -0.001813
Sum of atomic charges       :   -0.0000000

LOEWDIN ATOMIC CHARGES AND SPIN DENSITIES
-----------------------------------------
   0 O :    0.064404    0.027207
   1 O :    0.113468    0.000318
   2 O :    0.094821    0.005607
   3 O :    0.091060   -0.000140
   4 N :    0.266317    0.020832
   5 N :    0.269053    0.000220
   6 N :    0.330206   -0.001395
   7 N :    0.340160   -0.000114
   8 C :   -0.120659   -0.025959
   9 C :   -0.144724   -0.000461
  10 C :    0.104829   -0.029692
  11 C :    0.040842   -0.001655
  12 C :    0.150702   -0.001940
  13 C :    0.177875    0.000127
  14 C :   -0.446879    0.007433
  15 C :   -0.394372   -0.000044
  16 C :   -0.467599    0.000200
  17 C :   -0.493627   -0.000463
  18 H :    0.020398   -0.002368
  19 H :    0.028846   -0.000092
  20 H :   -0.035211    0.000414
  21 H :    0.012630    0.000144
  22 H :    0.022725    0.000055
  23 H :    0.008995    0.000033
  24 H :    0.007779    0.000012
  25 H :   -0.008582    0.000072
  26 H :    0.011083    0.001542
  27 H :   -0.008995    0.000017
  28 H :   -0.005767    0.000089
  29 H :   -0.029778    0.000003

  Mayer bond orders larger than 0.100000
B(  0-O , 14-C ) :   1.3067 B(  1-O , 15-C ) :   1.5262 B(  2-O , 16-C ) :   1.5443
B(  3-O , 17-C ) :   1.5682 B(  4-N , 10-C ) :   0.9678 B(  4-N , 16-C ) :   0.9732
B(  4-N , 26-H ) :   0.9995 B(  5-N , 11-C ) :   0.9556 B(  5-N , 17-C ) :   0.9907
B(  5-N , 27-H ) :   1.0888 B(  6-N , 14-C ) :   0.8602 B(  6-N , 16-C ) :   0.9618
B(  6-N , 28-H ) :   1.0653 B(  7-N , 15-C ) :   0.9532 B(  7-N , 17-C ) :   0.9606
B(  7-N , 29-H ) :   1.0414 B(  8-C , 10-C ) :   1.0705 B(  8-C , 12-C ) :   0.2410
B(  8-C , 14-C ) :   0.5900 B(  8-C , 22-H ) :  -0.1278 B(  9-C , 11-C ) :   1.2203
B(  9-C , 13-C ) :   0.5654 B(  9-C , 15-C ) :   0.7681 B( 10-C , 14-C ) :   0.1020
B( 10-C , 18-H ) :   1.0113 B( 11-C , 19-H ) :   1.0892 B( 12-C , 14-C ) :  -0.1096
B( 12-C , 20-H ) :   0.9020 B( 12-C , 21-H ) :   0.8656 B( 12-C , 22-H ) :   1.0393
B( 13-C , 23-H ) :   1.0632 B( 13-C , 24-H ) :   0.9146 B( 13-C , 25-H ) :   1.0097

Dispersion correction           -0.059510803
FINAL SINGLE POINT ENERGY      -908.890612347463

DIPOLE MOMENT
-------------

Method             : TDA/CIS
Type of density    : Electron Density
Level              : Relaxed density
State              :   1
Multiplicity       :   3
Irrep              :   0
Energy             :     0.0000000000000000 Eh
Relativity type    :
Basis              : AO
                                X                 Y                 Z
Electronic contribution:     -3.465630934      -9.776342097      -7.110324618
Nuclear contribution   :      2.477672242      10.299449843       9.707817348
                        -----------------------------------------
Total Dipole Moment    :     -0.987958693       0.523107747       2.597492730
                        -----------------------------------------
Magnitude (a.u.)       :      2.827838853
Magnitude (Debye)      :      7.187795140

Rotational constants in cm-1:             0.018199             0.016014             0.012812
Rotational constants in MHz :           545.579752           480.095661           384.107642

                             ****ORCA TERMINATED NORMALLY****
TOTAL RUN TIME: 0 days 0 hours 4 minutes 49 seconds 421 msec
