                         Program Version 6.0.0  -   RELEASE  -
|  1> ! Engrad def2-TZVPPD wB97M-D3BJ
|  2> %pal nprocs 8 end%pal nprocs 32 end
|  3> %tddft Nroots 2 Iroot 2
|  4> sf true
|  5> end
|  6> *xyz 0 3
|  7> O   -0.3350061 0.99547582 -0.4774957
|  8> C   0.28786033 0.10835727 0.38727323
|  9> C   0.08119417 -1.25028252 0.08424712
| 10> H   -0.24467532 0.24628642 1.34678486
| 11> H   1.33239087 0.43501341 0.65198294
| 12> H   -0.46224445 -1.64963216 -0.78864126
| 13> H   0.31738295 -1.85706221 0.84356174
| 14> *
| 15>
| 16>                          ****END OF INPUT****

CARTESIAN COORDINATES (ANGSTROEM)
---------------------------------
  O     -0.335006    0.995476   -0.477496
  C      0.287860    0.108357    0.387273
  C      0.081194   -1.250283    0.084247
  H     -0.244675    0.246286    1.346785
  H      1.332391    0.435013    0.651983
  H     -0.462244   -1.649632   -0.788641
  H      0.317383   -1.857062    0.843562

 Total Charge           Charge          ....    0
 Multiplicity           Mult            ....    3
 Number of Electrons    NEL             ....   24
 Basis Dimension        Dim             ....  182

ORBITAL ENERGIES
----------------
                 SPIN UP ORBITALS
  NO   OCC          E(Eh)            E(eV)
   0   1.0000     -19.387826      -527.5696
   1   1.0000     -10.411137      -283.3014
   2   1.0000     -10.352275      -281.6997
   3   1.0000      -1.162661       -31.6376
   4   1.0000      -0.900608       -24.5068
   5   1.0000      -0.732794       -19.9403
   6   1.0000      -0.610579       -16.6147
   7   1.0000      -0.601597       -16.3703
   8   1.0000      -0.560568       -15.2538
   9   1.0000      -0.511537       -13.9196
  10   1.0000      -0.454305       -12.3623
  11   1.0000      -0.415594       -11.3089
  12   1.0000      -0.309324        -8.4171
  13   0.0000       0.039790         1.0827
  14   0.0000       0.060922         1.6578
  15   0.0000       0.080495         2.1904
  16   0.0000       0.081920         2.2292
  17   0.0000       0.111944         3.0461

                 SPIN DOWN ORBITALS
  NO   OCC          E(Eh)            E(eV)
   0   1.0000     -19.364780      -526.9424
   1   1.0000     -10.412560      -283.3402
   2   1.0000     -10.339291      -281.3464
   3   1.0000      -1.110184       -30.2096
   4   1.0000      -0.868449       -23.6317
   5   1.0000      -0.705552       -19.1990
   6   1.0000      -0.585613       -15.9354
   7   1.0000      -0.556629       -15.1467
   8   1.0000      -0.538478       -14.6527
   9   1.0000      -0.492150       -13.3921
  10   1.0000      -0.386968       -10.5299
  11   0.0000      -0.055036        -1.4976
  12   0.0000       0.010154         0.2763
  13   0.0000       0.038962         1.0602
  14   0.0000       0.060561         1.6479
  15   0.0000       0.080441         2.1889

----------------------------------------------------------------------------------------------------
          SPIN FLIP ABSORPTION SPECTRUM VIA TRANSITION ELECTRIC DIPOLE MOMENTS
----------------------------------------------------------------------------------------------------
     Transition      Energy     Energy  Wavelength fosc(D2)      D2        DX        DY        DZ
                      (eV)      (cm-1)    (nm)                 (au**2)    (au)      (au)      (au)
----------------------------------------------------------------------------------------------------
  1-3A  ->  2-3A    0.512090    4130.3  2421.1   0.000317571   0.02531  -0.08324  -0.13468  -0.01560

Dispersion correction             ... done (  0.1 sec)

MULLIKEN ATOMIC CHARGES AND SPIN DENSITIES
------------------------------------------
   0 O :   -0.318012   -0.830950
   1 C :    0.044724   -0.024938
   2 C :   -0.726137    0.678757
   3 H :    0.220444    0.101217
   4 H :    0.226253    0.031442
   5 H :    0.250441    0.018908
   6 H :    0.302287    0.025564
Sum of atomic charges       :   -0.0000000

LOEWDIN ATOMIC CHARGES AND SPIN DENSITIES
-----------------------------------------
   0 O :    0.045798   -0.797058
   1 C :   -0.271998    0.066850
   2 C :    0.263142    0.525181
   3 H :    0.022047    0.041306
   4 H :    0.065565    0.024453
   5 H :   -0.009587    0.063697
   6 H :   -0.114967    0.075571

  Mayer bond orders larger than 0.100000
B(  0-O ,  1-C ) :   0.8701 B(  0-O ,  2-C ) :   0.1141 B(  1-C ,  2-C ) :   0.7619
B(  1-C ,  3-H ) :   0.9597 B(  1-C ,  4-H ) :   0.9199 B(  2-C ,  5-H ) :   0.9475
B(  2-C ,  6-H ) :   0.9343

Dispersion correction           -0.005603889
FINAL SINGLE POINT ENERGY      -153.735272719710

DIPOLE MOMENT
-------------

Method             : TDA/CIS
Type of density    : Electron Density
Level              : Relaxed density
State              :   2
Multiplicity       :   3
Irrep              :   0
Energy             :     0.0000000000000000 Eh
Relativity type    :
Basis              : AO
                                X                 Y                 Z
Electronic contribution:     -0.541084191       2.056489076      -1.323378916
Nuclear contribution   :      0.877612174      -2.581514922       1.911612904
                        -----------------------------------------
Total Dipole Moment    :      0.336527983      -0.525025845       0.588233987
                        -----------------------------------------
Magnitude (a.u.)       :      0.857276178
Magnitude (Debye)      :      2.179022875

Rotational constants in cm-1:             1.506814             0.368469             0.312918
Rotational constants in MHz :         45173.153218         11046.417547          9381.033510

                             ****ORCA TERMINATED NORMALLY****
TOTAL RUN TIME: 0 days 0 hours 0 minutes 17 seconds 754 msec
