                         Program Version 6.0.0  -   RELEASE  -
|  1> ! Engrad def2-TZVPPD wB97M-D3BJ
|  2> %pal nprocs 8 end%pal nprocs 64 end
|  3> %tddft
|  4>  Iroot 1 Nroots 3
|  5> sf true
|  6> end
|  7> *xyz 0 3
|  8> O   3.14040359 0.14948427 -1.75613981
|  9> O   -2.11670629 0.5538058 -1.88923884
| 10> O   -0.58750721 -2.35916165 -1.33128473
| 11> O   -2.92507059 -0.36796982 2.51090215
| 12> N   0.30665493 -1.52223911 0.58290434
| 13> N   -1.08704385 0.67551506 1.94483848
| 14> N   1.34123612 -1.18202452 -1.49219766
| 15> N   -2.44896749 -0.10293295 0.31346251
| 16> C   2.13163279 0.04324592 0.35336512
| 17> C   -0.44266659 1.21214294 -0.31457528
| 18> C   0.99702635 -0.38326463 1.1024372
| 19> C   0.02899155 0.90987172 1.05070564
| 20> C   3.05548195 1.06743344 0.98349028
| 21> C   0.19938509 2.08390636 -1.3411399
| 22> C   2.2250395 -0.18063846 -1.05762415
| 23> C   -1.70255331 0.4954138 -0.73396949
| 24> C   0.24628943 -1.73652503 -0.77928024
| 25> C   -2.20679438 -0.00079736 1.64401409
| 26> H   1.35470121 -0.51655793 2.20962894
| 27> H   0.64605718 1.6521145 1.43487281
| 28> H   2.75443942 1.28628315 2.00042571
| 29> H   4.02164281 0.70487432 0.90827475
| 30> H   3.08424108 2.04766119 0.49418909
| 31> H   -0.34475552 2.94768915 -1.62030866
| 32> H   1.20202127 2.37751526 -0.91369346
| 33> H   0.49200653 1.64067245 -2.31022479
| 34> H   -0.52743342 -1.71783724 1.06734325
| 35> H   -0.92274751 0.74019816 2.93421129
| 36> H   1.43530219 -1.51923199 -2.4424933
| 37> H   -3.1221663 -0.77266064 -0.0009235
| 38> *
| 39>
| 40>                          ****END OF INPUT****

CARTESIAN COORDINATES (ANGSTROEM)
---------------------------------
  O      3.140404    0.149484   -1.756140
  O     -2.116706    0.553806   -1.889239
  O     -0.587507   -2.359162   -1.331285
  O     -2.925071   -0.367970    2.510902
  N      0.306655   -1.522239    0.582904
  N     -1.087044    0.675515    1.944838
  N      1.341236   -1.182025   -1.492198
  N     -2.448967   -0.102933    0.313463
  C      2.131633    0.043246    0.353365
  C     -0.442667    1.212143   -0.314575
  C      0.997026   -0.383265    1.102437
  C      0.028992    0.909872    1.050706
  C      3.055482    1.067433    0.983490
  C      0.199385    2.083906   -1.341140
  C      2.225039   -0.180638   -1.057624
  C     -1.702553    0.495414   -0.733969
  C      0.246289   -1.736525   -0.779280
  C     -2.206794   -0.000797    1.644014
  H      1.354701   -0.516558    2.209629
  H      0.646057    1.652114    1.434873
  H      2.754439    1.286283    2.000426
  H      4.021643    0.704874    0.908275
  H      3.084241    2.047661    0.494189
  H     -0.344756    2.947689   -1.620309
  H      1.202021    2.377515   -0.913693
  H      0.492007    1.640672   -2.310225
  H     -0.527433   -1.717837    1.067343
  H     -0.922748    0.740198    2.934211
  H      1.435302   -1.519232   -2.442493
  H     -3.122166   -0.772661   -0.000923

 Total Charge           Charge          ....    0
 Multiplicity           Mult            ....    3
 Number of Electrons    NEL             ....  132
 Basis Dimension        Dim             ....  882

ORBITAL ENERGIES
----------------
                 SPIN UP ORBITALS
  NO   OCC          E(Eh)            E(eV)
   0   1.0000     -19.340029      -526.2689
   1   1.0000     -19.333313      -526.0862
   2   1.0000     -19.327458      -525.9269
   3   1.0000     -19.317618      -525.6591
   4   1.0000     -14.563708      -396.2986
   5   1.0000     -14.559707      -396.1898
   6   1.0000     -14.558579      -396.1591
   7   1.0000     -14.556340      -396.0981
   8   1.0000     -10.506142      -285.8866
   9   1.0000     -10.498832      -285.6878
  10   1.0000     -10.489493      -285.4336
  11   1.0000     -10.477296      -285.1017
  12   1.0000     -10.446447      -284.2623
  13   1.0000     -10.443880      -284.1924
  14   1.0000     -10.426566      -283.7213
  15   1.0000     -10.412800      -283.3467
  16   1.0000     -10.375906      -282.3427
  17   1.0000     -10.375477      -282.3311
  18   1.0000      -1.235773       -33.6271
  19   1.0000      -1.231527       -33.5116
  20   1.0000      -1.210525       -32.9401
  21   1.0000      -1.195085       -32.5199
  22   1.0000      -1.131030       -30.7769
  23   1.0000      -1.105550       -30.0835
  24   1.0000      -1.068255       -29.0687
  25   1.0000      -1.055029       -28.7088
  26   1.0000      -0.993277       -27.0284
  27   1.0000      -0.955545       -26.0017
  28   1.0000      -0.886671       -24.1275
  29   1.0000      -0.851297       -23.1650
  30   1.0000      -0.826616       -22.4934
  31   1.0000      -0.802481       -21.8366
  32   1.0000      -0.792019       -21.5519
  33   1.0000      -0.784501       -21.3474
  34   1.0000      -0.703448       -19.1418
  35   1.0000      -0.695724       -18.9316
  36   1.0000      -0.693782       -18.8788
  37   1.0000      -0.687518       -18.7083
  38   1.0000      -0.661850       -18.0098
  39   1.0000      -0.642629       -17.4868
  40   1.0000      -0.624069       -16.9818
  41   1.0000      -0.604459       -16.4482
  42   1.0000      -0.594775       -16.1846
  43   1.0000      -0.592891       -16.1334
  44   1.0000      -0.580507       -15.7964
  45   1.0000      -0.574970       -15.6457
  46   1.0000      -0.570833       -15.5331
  47   1.0000      -0.566663       -15.4197
  48   1.0000      -0.565270       -15.3818
  49   1.0000      -0.556515       -15.1436
  50   1.0000      -0.553972       -15.0743
  51   1.0000      -0.541209       -14.7270
  52   1.0000      -0.534901       -14.5554
  53   1.0000      -0.525275       -14.2935
  54   1.0000      -0.518470       -14.1083
  55   1.0000      -0.511451       -13.9173
  56   1.0000      -0.491125       -13.3642
  57   1.0000      -0.433499       -11.7961
  58   1.0000      -0.418396       -11.3851
  59   1.0000      -0.414376       -11.2757
  60   1.0000      -0.410736       -11.1767
  61   1.0000      -0.404503       -11.0071
  62   1.0000      -0.395905       -10.7731
  63   1.0000      -0.392792       -10.6884
  64   1.0000      -0.387247       -10.5375
  65   1.0000      -0.350728        -9.5438
  66   1.0000      -0.321230        -8.7411
  67   0.0000       0.009981         0.2716
  68   0.0000       0.031163         0.8480
  69   0.0000       0.034735         0.9452
  70   0.0000       0.036238         0.9861
  71   0.0000       0.054426         1.4810

                 SPIN DOWN ORBITALS
  NO   OCC          E(Eh)            E(eV)
   0   1.0000     -19.336045      -526.1605
   1   1.0000     -19.329567      -525.9843
   2   1.0000     -19.327411      -525.9256
   3   1.0000     -19.317378      -525.6526
   4   1.0000     -14.563430      -396.2911
   5   1.0000     -14.559636      -396.1878
   6   1.0000     -14.557891      -396.1403
   7   1.0000     -14.555202      -396.0672
   8   1.0000     -10.506215      -285.8887
   9   1.0000     -10.498876      -285.6889
  10   1.0000     -10.490648      -285.4650
  11   1.0000     -10.478121      -285.1242
  12   1.0000     -10.445759      -284.2436
  13   1.0000     -10.442867      -284.1649
  14   1.0000     -10.415062      -283.4082
  15   1.0000     -10.401652      -283.0433
  16   1.0000     -10.376398      -282.3562
  17   1.0000     -10.376048      -282.3466
  18   1.0000      -1.234873       -33.6026
  19   1.0000      -1.230773       -33.4910
  20   1.0000      -1.205387       -32.8002
  21   1.0000      -1.189574       -32.3700
  22   1.0000      -1.127938       -30.6928
  23   1.0000      -1.103446       -30.0263
  24   1.0000      -1.066496       -29.0208
  25   1.0000      -1.052788       -28.6478
  26   1.0000      -0.980499       -26.6807
  27   1.0000      -0.937904       -25.5217
  28   1.0000      -0.880623       -23.9630
  29   1.0000      -0.846118       -23.0240
  30   1.0000      -0.817887       -22.2558
  31   1.0000      -0.797208       -21.6931
  32   1.0000      -0.790549       -21.5119
  33   1.0000      -0.782849       -21.3024
  34   1.0000      -0.698926       -19.0188
  35   1.0000      -0.690021       -18.7764
  36   1.0000      -0.686342       -18.6763
  37   1.0000      -0.680038       -18.5048
  38   1.0000      -0.650517       -17.7015
  39   1.0000      -0.638178       -17.3657
  40   1.0000      -0.617929       -16.8147
  41   1.0000      -0.598797       -16.2941
  42   1.0000      -0.590806       -16.0767
  43   1.0000      -0.587965       -15.9993
  44   1.0000      -0.573485       -15.6053
  45   1.0000      -0.567637       -15.4462
  46   1.0000      -0.563621       -15.3369
  47   1.0000      -0.561819       -15.2879
  48   1.0000      -0.559773       -15.2322
  49   1.0000      -0.548476       -14.9248
  50   1.0000      -0.543770       -14.7967
  51   1.0000      -0.531961       -14.4754
  52   1.0000      -0.527723       -14.3601
  53   1.0000      -0.518338       -14.1047
  54   1.0000      -0.512781       -13.9535
  55   1.0000      -0.500655       -13.6235
  56   1.0000      -0.487557       -13.2671
  57   1.0000      -0.429835       -11.6964
  58   1.0000      -0.414997       -11.2926
  59   1.0000      -0.410794       -11.1783
  60   1.0000      -0.398800       -10.8519
  61   1.0000      -0.392196       -10.6722
  62   1.0000      -0.388848       -10.5811
  63   1.0000      -0.387130       -10.5344
  64   1.0000      -0.374161       -10.1814
  65   0.0000      -0.066392        -1.8066
  66   0.0000      -0.051430        -1.3995
  67   0.0000       0.009593         0.2610
  68   0.0000       0.031034         0.8445
  69   0.0000       0.034486         0.9384

----------------------------------------------------------------------------------------------------
          SPIN FLIP ABSORPTION SPECTRUM VIA TRANSITION ELECTRIC DIPOLE MOMENTS
----------------------------------------------------------------------------------------------------
     Transition      Energy     Energy  Wavelength fosc(D2)      D2        DX        DY        DZ
                      (eV)      (cm-1)    (nm)                 (au**2)    (au)      (au)      (au)
----------------------------------------------------------------------------------------------------
  1-3A  ->  2-3A    0.088724     715.6  13974.1   0.000036223   0.01666  -0.12542   0.02241   0.02080
  1-3A  ->  3-1A    2.035054   16413.8   609.2   0.024467470   0.49074  -0.57482   0.32667  -0.23154

Dispersion correction             ... done (  0.1 sec)

MULLIKEN ATOMIC CHARGES AND SPIN DENSITIES
------------------------------------------
   0 O :   -0.652357   -0.068173
   1 O :   -0.644382    0.078712
   2 O :   -0.571330    0.000824
   3 O :   -0.640281   -0.001666
   4 N :   -0.180915   -0.018207
   5 N :   -0.277004    0.004680
   6 N :    0.067007   -0.014134
   7 N :    0.058664    0.004931
   8 C :    0.792374    0.211556
   9 C :   -0.072563    0.380590
  10 C :    0.308335   -0.193560
  11 C :    0.285522   -0.071531
  12 C :   -1.582161   -0.045202
  13 C :   -1.251432    0.008681
  14 C :   -0.061210   -0.294041
  15 C :    0.302771   -0.021826
  16 C :    0.327424    0.035370
  17 C :    0.440997    0.004480
  18 H :    0.343572   -0.050552
  19 H :    0.855422    0.011587
  20 H :    0.380300   -0.004091
  21 H :    0.427706    0.006204
  22 H :    0.267319   -0.002382
  23 H :    0.365739    0.016333
  24 H :    0.258285   -0.001951
  25 H :    0.246188    0.016088
  26 H :    0.112341    0.003177
  27 H :    0.034621    0.000793
  28 H :    0.031982    0.003027
  29 H :    0.027066    0.000281
Sum of atomic charges       :    0.0000000

LOEWDIN ATOMIC CHARGES AND SPIN DENSITIES
-----------------------------------------
   0 O :    0.101780   -0.061081
   1 O :    0.093855    0.067149
   2 O :    0.134230    0.000665
   3 O :    0.118367   -0.001678
   4 N :    0.304714   -0.002209
   5 N :    0.287487   -0.002814
   6 N :    0.347001   -0.014447
   7 N :    0.338042    0.004754
   8 C :   -0.060721   -0.239585
   9 C :    0.002634    0.273269
  10 C :   -0.127945   -0.019354
  11 C :   -0.080818    0.003744
  12 C :    0.212712   -0.032170
  13 C :    0.199910    0.040599
  14 C :   -0.466969   -0.047344
  15 C :   -0.351931    0.030952
  16 C :   -0.489963    0.001337
  17 C :   -0.572913   -0.001218
  18 H :    0.119296   -0.005018
  19 H :    0.003818    0.000799
  20 H :   -0.004944    0.000443
  21 H :   -0.033433   -0.008214
  22 H :    0.013807   -0.007375
  23 H :   -0.015557    0.011034
  24 H :    0.014459   -0.001414
  25 H :    0.023225    0.010591
  26 H :   -0.068721   -0.000256
  27 H :   -0.020088   -0.000303
  28 H :   -0.007265   -0.001220
  29 H :   -0.014068    0.000365

  Mayer bond orders larger than 0.100000
B(  0-O , 14-C ) :   1.3563 B(  1-O , 15-C ) :   1.4058 B(  2-O , 16-C ) :   1.5470
B(  3-O , 17-C ) :   1.5839 B(  4-N ,  8-C ) :   0.1579 B(  4-N , 10-C ) :   0.3873
B(  4-N , 16-C ) :   0.9947 B(  4-N , 26-H ) :   0.9752 B(  5-N ,  9-C ) :   0.2589
B(  5-N , 10-C ) :   0.1478 B(  5-N , 11-C ) :   0.1101 B(  5-N , 17-C ) :   1.1593
B(  5-N , 19-H ) :  -0.1088 B(  5-N , 27-H ) :   1.0997 B(  6-N ,  8-C ) :  -0.1018
B(  6-N , 10-C ) :   0.1535 B(  6-N , 14-C ) :   0.9672 B(  6-N , 16-C ) :   0.9391
B(  6-N , 28-H ) :   1.0937 B(  7-N , 15-C ) :   1.0092 B(  7-N , 17-C ) :   0.9095
B(  7-N , 29-H ) :   1.1195 B(  8-C , 10-C ) :   0.4523 B(  8-C , 11-C ) :   0.3944
B(  8-C , 12-C ) :   0.2875 B(  8-C , 14-C ) :   0.7093 B(  8-C , 18-H ) :  -0.2053
B(  8-C , 20-H ) :  -0.1194 B(  9-C , 10-C ) :   0.1831 B(  9-C , 11-C ) :   0.2943
B(  9-C , 13-C ) :   0.5664 B(  9-C , 15-C ) :   0.6326 B(  9-C , 19-H ) :  -0.3138
B( 10-C , 11-C ) :   0.1391 B( 10-C , 12-C ) :  -0.1971 B( 10-C , 18-H ) :   1.0543
B( 11-C , 12-C ) :   0.1807 B( 11-C , 16-C ) :  -0.1027 B( 11-C , 17-C ) :  -0.1753
B( 11-C , 18-H ) :  -0.1156 B( 11-C , 19-H ) :   0.4893 B( 12-C , 19-H ) :  -0.1101
B( 12-C , 20-H ) :   0.9483 B( 12-C , 21-H ) :   0.9103 B( 12-C , 22-H ) :   0.9323
B( 13-C , 23-H ) :   0.8798 B( 13-C , 24-H ) :   0.9244 B( 13-C , 25-H ) :   0.9891
B( 15-C , 16-C ) :   0.1192

Dispersion correction           -0.062035866
FINAL SINGLE POINT ENERGY      -908.770728579563

DIPOLE MOMENT
-------------

Method             : TDA/CIS
Type of density    : Electron Density
Level              : Relaxed density
State              :   1
Multiplicity       :   3
Irrep              :   0
Energy             :     0.0000000000000000 Eh
Relativity type    :
Basis              : AO
                                X                 Y                 Z
Electronic contribution:     -8.122349334      -7.647906789      -2.146674860
Nuclear contribution   :      9.478895700       8.780909510       3.763336679
                        -----------------------------------------
Total Dipole Moment    :      1.356546366       1.133002721       1.616661819
                        -----------------------------------------
Magnitude (a.u.)       :      2.395309718
Magnitude (Debye)      :      6.088393451

Rotational constants in cm-1:             0.023040             0.013326             0.012133
Rotational constants in MHz :           690.733586           399.493784           363.735488

                             ****ORCA TERMINATED NORMALLY****
TOTAL RUN TIME: 0 days 0 hours 4 minutes 47 seconds 212 msec
