                         Program Version 6.0.0  -   RELEASE  -
|  1> ! EnGrad wB97M-D3BJ def2-TZVPPD
|  2> %pal nprocs 8 end%pal nprocs 16 end
|  3> %tddft
|  4>  sf true
|  5>  nroots 2 Iroot 2 end
|  6> *xyz 0 3
|  7> O   0.37627461212555 1.03280729198054 -0.00266506549182
|  8> C   0.62245400616608 -0.28292032261431 -0.00058055998311
|  9> C   -0.74261269785556 -0.72304790441949 0.00064979976779
| 10> H   1.17621430858948 -0.63155801128998 0.88330239820321
| 11> H   1.17651159953858 -0.63427559537005 -0.88314277828032
| 12> H   -1.30418488811129 -0.74177872456183 -0.92290404384969
| 13> H   -1.30245694045285 -0.73762673372487 0.92534024963394
| 14> *
| 15>
| 16>                          ****END OF INPUT****

CARTESIAN COORDINATES (ANGSTROEM)
---------------------------------
  O      0.376275    1.032807   -0.002665
  C      0.622454   -0.282920   -0.000581
  C     -0.742613   -0.723048    0.000650
  H      1.176214   -0.631558    0.883302
  H      1.176512   -0.634276   -0.883143
  H     -1.304185   -0.741779   -0.922904
  H     -1.302457   -0.737627    0.925340

 Total Charge           Charge          ....    0
 Multiplicity           Mult            ....    3
 Number of Electrons    NEL             ....   24
 Basis Dimension        Dim             ....  182

ORBITAL ENERGIES
----------------
                 SPIN UP ORBITALS
  NO   OCC          E(Eh)            E(eV)
   0   1.0000     -19.399183      -527.8786
   1   1.0000     -10.406834      -283.1844
   2   1.0000     -10.346730      -281.5488
   3   1.0000      -1.199747       -32.6468
   4   1.0000      -0.872088       -23.7307
   5   1.0000      -0.737009       -20.0550
   6   1.0000      -0.638057       -17.3624
   7   1.0000      -0.598719       -16.2920
   8   1.0000      -0.553877       -15.0718
   9   1.0000      -0.511923       -13.9301
  10   1.0000      -0.443341       -12.0639
  11   1.0000      -0.428289       -11.6543
  12   1.0000      -0.298418        -8.1204
  13   0.0000       0.041190         1.1208
  14   0.0000       0.063502         1.7280
  15   0.0000       0.073485         1.9996
  16   0.0000       0.086611         2.3568
  17   0.0000       0.117380         3.1941

                 SPIN DOWN ORBITALS
  NO   OCC          E(Eh)            E(eV)
   0   1.0000     -19.372572      -527.1545
   1   1.0000     -10.408111      -283.2191
   2   1.0000     -10.333947      -281.2010
   3   1.0000      -1.142261       -31.0825
   4   1.0000      -0.838199       -22.8086
   5   1.0000      -0.714119       -19.4322
   6   1.0000      -0.597870       -16.2689
   7   1.0000      -0.564108       -15.3502
   8   1.0000      -0.531726       -14.4690
   9   1.0000      -0.476222       -12.9587
  10   1.0000      -0.385574       -10.4920
  11   0.0000      -0.068689        -1.8691
  12   0.0000       0.017469         0.4754
  13   0.0000       0.039987         1.0881
  14   0.0000       0.064217         1.7474
  15   0.0000       0.072765         1.9800

----------------------------------------------------------------------------------------------------
          SPIN FLIP ABSORPTION SPECTRUM VIA TRANSITION ELECTRIC DIPOLE MOMENTS
----------------------------------------------------------------------------------------------------
     Transition      Energy     Energy  Wavelength fosc(D2)      D2        DX        DY        DZ
                      (eV)      (cm-1)    (nm)                 (au**2)    (au)      (au)      (au)
----------------------------------------------------------------------------------------------------
  1-3A  ->  2-3A    1.523380   12286.9   813.9   0.000326124   0.00874  -0.00030  -0.00045  -0.09348

Dispersion correction             ... done (  0.0 sec)

MULLIKEN ATOMIC CHARGES AND SPIN DENSITIES
------------------------------------------
   0 O :   -0.320303    0.766498
   1 C :    0.104215    0.292732
   2 C :   -0.446613   -0.863289
   3 H :    0.202579    0.016205
   4 H :    0.202690    0.016527
   5 H :    0.128509   -0.114527
   6 H :    0.128921   -0.114145
Sum of atomic charges       :    0.0000000

LOEWDIN ATOMIC CHARGES AND SPIN DENSITIES
-----------------------------------------
   0 O :    0.101002    0.701206
   1 C :   -0.282644    0.037650
   2 C :    0.234383   -0.624272
   3 H :    0.040547    0.029890
   4 H :    0.040694    0.030172
   5 H :   -0.067001   -0.087358
   6 H :   -0.066980   -0.087287

  Mayer bond orders larger than 0.100000
B(  0-O ,  1-C ) :   0.9023 B(  0-O ,  2-C ) :   0.1516 B(  1-C ,  2-C ) :   0.6041
B(  1-C ,  3-H ) :   0.9755 B(  1-C ,  4-H ) :   0.9750 B(  2-C ,  5-H ) :   1.1147
B(  2-C ,  6-H ) :   1.1143

Dispersion correction           -0.005667014
FINAL SINGLE POINT ENERGY      -153.734354738279

DIPOLE MOMENT
-------------

Method             : TDA/CIS
Type of density    : Electron Density
Level              : Relaxed density
State              :   2
Multiplicity       :   3
Irrep              :   0
Energy             :     0.0000000000000000 Eh
Relativity type    :
Basis              : AO
                                X                 Y                 Z
Electronic contribution:      0.918457062       2.374543278      -0.005777356
Nuclear contribution   :     -0.602179771      -2.703407537       0.005747543
                        -----------------------------------------
Total Dipole Moment    :      0.316277291      -0.328864259      -0.000029813
                        -----------------------------------------
Magnitude (a.u.)       :      0.456270782
Magnitude (Debye)      :      1.159748161

Rotational constants in cm-1:             1.148066             0.450835             0.370604
Rotational constants in MHz :         34418.140557         13515.698055         11110.438680

                             ****ORCA TERMINATED NORMALLY****
TOTAL RUN TIME: 0 days 0 hours 0 minutes 17 seconds 125 msec
