                         Program Version 6.0.0  -   RELEASE  -
|  1> ! Engrad def2-TZVPPD wB97M-D3BJ
|  2> %pal nprocs 8 end%pal nprocs 64 end
|  3> %tddft Nroots 2 Iroot 1
|  4> sf true
|  5> end
|  6> *xyz 0 3
|  7> O   2.71303518 1.12674031 -0.07862792
|  8> O   -0.30340099 1.21696702 -2.31165262
|  9> O   0.68603895 -2.83201502 -1.45572287
| 10> O   -2.67799557 -1.71082915 0.25293485
| 11> N   0.48978665 -2.05779693 0.7387335
| 12> N   -2.34423115 0.36427065 1.05203191
| 13> N   1.78063008 -0.93113794 -0.78434707
| 14> N   -1.50740252 -0.19930217 -1.01585798
| 15> C   1.67890894 -0.1455462 1.48212326
| 16> C   -0.87734961 1.90623342 -0.05168044
| 17> C   0.78187499 -1.14343554 1.70211471
| 18> C   -1.79394 1.69954746 0.96049812
| 19> C   1.85367933 0.97933898 2.3950257
| 20> C   -0.09273347 3.14504489 -0.13964011
| 21> C   2.14309816 0.04174494 0.13074584
| 22> C   -0.86658591 1.02461929 -1.21568633
| 23> C   0.98007758 -2.03061718 -0.57793041
| 24> C   -2.25632375 -0.58849919 0.09331895
| 25> H   0.36062967 -1.16118712 2.67270985
| 26> H   -1.92603749 2.24435681 1.89059121
| 27> H   1.83109903 1.99722315 1.90382222
| 28> H   1.13208525 0.89027786 3.19157336
| 29> H   2.90463649 1.0460027 2.72145185
| 30> H   -0.79590933 3.98235871 -0.2015297
| 31> H   0.42596045 3.33624798 0.84619771
| 32> H   0.57884951 3.11883591 -0.92890862
| 33> H   -0.24669417 -2.70484529 0.86848711
| 34> H   -3.16298648 0.17607661 1.56056997
| 35> H   2.16567541 -0.93728069 -1.7450841
| 36> H   -1.19100861 -0.91796019 -1.61416697
| 37> *
| 38>
| 39>                          ****END OF INPUT****

CARTESIAN COORDINATES (ANGSTROEM)
---------------------------------
  O      2.713035    1.126740   -0.078628
  O     -0.303401    1.216967   -2.311653
  O      0.686039   -2.832015   -1.455723
  O     -2.677996   -1.710829    0.252935
  N      0.489787   -2.057797    0.738733
  N     -2.344231    0.364271    1.052032
  N      1.780630   -0.931138   -0.784347
  N     -1.507403   -0.199302   -1.015858
  C      1.678909   -0.145546    1.482123
  C     -0.877350    1.906233   -0.051680
  C      0.781875   -1.143436    1.702115
  C     -1.793940    1.699547    0.960498
  C      1.853679    0.979339    2.395026
  C     -0.092733    3.145045   -0.139640
  C      2.143098    0.041745    0.130746
  C     -0.866586    1.024619   -1.215686
  C      0.980078   -2.030617   -0.577930
  C     -2.256324   -0.588499    0.093319
  H      0.360630   -1.161187    2.672710
  H     -1.926037    2.244357    1.890591
  H      1.831099    1.997223    1.903822
  H      1.132085    0.890278    3.191573
  H      2.904636    1.046003    2.721452
  H     -0.795909    3.982359   -0.201530
  H      0.425960    3.336248    0.846198
  H      0.578850    3.118836   -0.928909
  H     -0.246694   -2.704845    0.868487
  H     -3.162986    0.176077    1.560570
  H      2.165675   -0.937281   -1.745084
  H     -1.191009   -0.917960   -1.614167

 Total Charge           Charge          ....    0
 Multiplicity           Mult            ....    3
 Number of Electrons    NEL             ....  132
 Basis Dimension        Dim             ....  882

ORBITAL ENERGIES
----------------
                 SPIN UP ORBITALS
  NO   OCC          E(Eh)            E(eV)
   0   1.0000     -19.339138      -526.2447
   1   1.0000     -19.332682      -526.0690
   2   1.0000     -19.327150      -525.9185
   3   1.0000     -19.316254      -525.6220
   4   1.0000     -14.590443      -397.0261
   5   1.0000     -14.581619      -396.7860
   6   1.0000     -14.578638      -396.7049
   7   1.0000     -14.553884      -396.0313
   8   1.0000     -10.520145      -286.2677
   9   1.0000     -10.514579      -286.1162
  10   1.0000     -10.476154      -285.0707
  11   1.0000     -10.469806      -284.8979
  12   1.0000     -10.429178      -283.7924
  13   1.0000     -10.424750      -283.6719
  14   1.0000     -10.414685      -283.3980
  15   1.0000     -10.371332      -282.2183
  16   1.0000     -10.362129      -281.9679
  17   1.0000     -10.354726      -281.7664
  18   1.0000      -1.233431       -33.5634
  19   1.0000      -1.220272       -33.2053
  20   1.0000      -1.181127       -32.1401
  21   1.0000      -1.174676       -31.9646
  22   1.0000      -1.121928       -30.5292
  23   1.0000      -1.121370       -30.5140
  24   1.0000      -1.072527       -29.1850
  25   1.0000      -1.062035       -28.8994
  26   1.0000      -0.979827       -26.6624
  27   1.0000      -0.955674       -26.0052
  28   1.0000      -0.860162       -23.4062
  29   1.0000      -0.847675       -23.0664
  30   1.0000      -0.812834       -22.1183
  31   1.0000      -0.810197       -22.0466
  32   1.0000      -0.793326       -21.5875
  33   1.0000      -0.791061       -21.5259
  34   1.0000      -0.696325       -18.9480
  35   1.0000      -0.695517       -18.9260
  36   1.0000      -0.692607       -18.8468
  37   1.0000      -0.690147       -18.7799
  38   1.0000      -0.652998       -17.7690
  39   1.0000      -0.637942       -17.3593
  40   1.0000      -0.623126       -16.9561
  41   1.0000      -0.609189       -16.5769
  42   1.0000      -0.592676       -16.1275
  43   1.0000      -0.589528       -16.0419
  44   1.0000      -0.576356       -15.6834
  45   1.0000      -0.571382       -15.5481
  46   1.0000      -0.566425       -15.4132
  47   1.0000      -0.556553       -15.1446
  48   1.0000      -0.554066       -15.0769
  49   1.0000      -0.537977       -14.6391
  50   1.0000      -0.530302       -14.4302
  51   1.0000      -0.525469       -14.2987
  52   1.0000      -0.522220       -14.2103
  53   1.0000      -0.512841       -13.9551
  54   1.0000      -0.508147       -13.8274
  55   1.0000      -0.490083       -13.3358
  56   1.0000      -0.485765       -13.2183
  57   1.0000      -0.467220       -12.7137
  58   1.0000      -0.426922       -11.6171
  59   1.0000      -0.417590       -11.3632
  60   1.0000      -0.409184       -11.1345
  61   1.0000      -0.402150       -10.9430
  62   1.0000      -0.391666       -10.6578
  63   1.0000      -0.388693       -10.5769
  64   1.0000      -0.379134       -10.3168
  65   1.0000      -0.337328        -9.1792
  66   1.0000      -0.241924        -6.5831
  67   0.0000       0.013469         0.3665
  68   0.0000       0.021511         0.5853
  69   0.0000       0.032723         0.8904
  70   0.0000       0.035969         0.9788
  71   0.0000       0.040872         1.1122

                 SPIN DOWN ORBITALS
  NO   OCC          E(Eh)            E(eV)
   0   1.0000     -19.337428      -526.1982
   1   1.0000     -19.332666      -526.0686
   2   1.0000     -19.320856      -525.7472
   3   1.0000     -19.316244      -525.6217
   4   1.0000     -14.586546      -396.9201
   5   1.0000     -14.581583      -396.7850
   6   1.0000     -14.578645      -396.7051
   7   1.0000     -14.553113      -396.0103
   8   1.0000     -10.520145      -286.2677
   9   1.0000     -10.514890      -286.1247
  10   1.0000     -10.476154      -285.0706
  11   1.0000     -10.469937      -284.9015
  12   1.0000     -10.429077      -283.7896
  13   1.0000     -10.413306      -283.3605
  14   1.0000     -10.405075      -283.1365
  15   1.0000     -10.371316      -282.2179
  16   1.0000     -10.362450      -281.9766
  17   1.0000     -10.354707      -281.7659
  18   1.0000      -1.229975       -33.4693
  19   1.0000      -1.220179       -33.2028
  20   1.0000      -1.174895       -31.9705
  21   1.0000      -1.171996       -31.8916
  22   1.0000      -1.121801       -30.5258
  23   1.0000      -1.111891       -30.2561
  24   1.0000      -1.072504       -29.1843
  25   1.0000      -1.056832       -28.7579
  26   1.0000      -0.957174       -26.0460
  27   1.0000      -0.954478       -25.9727
  28   1.0000      -0.847935       -23.0735
  29   1.0000      -0.846281       -23.0285
  30   1.0000      -0.810509       -22.0551
  31   1.0000      -0.799848       -21.7650
  32   1.0000      -0.793211       -21.5844
  33   1.0000      -0.786827       -21.4106
  34   1.0000      -0.696128       -18.9426
  35   1.0000      -0.692576       -18.8460
  36   1.0000      -0.684358       -18.6223
  37   1.0000      -0.682606       -18.5747
  38   1.0000      -0.645760       -17.5720
  39   1.0000      -0.635788       -17.3007
  40   1.0000      -0.614778       -16.7290
  41   1.0000      -0.603286       -16.4162
  42   1.0000      -0.589486       -16.0407
  43   1.0000      -0.582169       -15.8416
  44   1.0000      -0.569732       -15.5032
  45   1.0000      -0.566646       -15.4192
  46   1.0000      -0.555162       -15.1067
  47   1.0000      -0.552671       -15.0389
  48   1.0000      -0.548981       -14.9385
  49   1.0000      -0.528126       -14.3710
  50   1.0000      -0.522796       -14.2260
  51   1.0000      -0.519256       -14.1297
  52   1.0000      -0.515454       -14.0262
  53   1.0000      -0.508537       -13.8380
  54   1.0000      -0.498023       -13.5519
  55   1.0000      -0.485707       -13.2168
  56   1.0000      -0.466984       -12.7073
  57   1.0000      -0.444388       -12.0924
  58   1.0000      -0.423070       -11.5123
  59   1.0000      -0.417414       -11.3584
  60   1.0000      -0.401811       -10.9338
  61   1.0000      -0.384729       -10.4690
  62   1.0000      -0.382699       -10.4138
  63   1.0000      -0.378746       -10.3062
  64   1.0000      -0.336762        -9.1638
  65   0.0000      -0.108162        -2.9432
  66   0.0000       0.012230         0.3328
  67   0.0000       0.020990         0.5712
  68   0.0000       0.026326         0.7164
  69   0.0000       0.034838         0.9480

----------------------------------------------------------------------------------------------------
          SPIN FLIP ABSORPTION SPECTRUM VIA TRANSITION ELECTRIC DIPOLE MOMENTS
----------------------------------------------------------------------------------------------------
     Transition      Energy     Energy  Wavelength fosc(D2)      D2        DX        DY        DZ
                      (eV)      (cm-1)    (nm)                 (au**2)    (au)      (au)      (au)
----------------------------------------------------------------------------------------------------
  1-3A  ->  2-3A    3.504842   28268.5   353.8   0.000785046   0.00914  -0.03875   0.05547   0.06756

Dispersion correction             ... done (  0.1 sec)

MULLIKEN ATOMIC CHARGES AND SPIN DENSITIES
------------------------------------------
   0 O :   -0.684998    0.001443
   1 O :   -0.674622    0.035376
   2 O :   -0.637208    0.000013
   3 O :   -0.658225    0.008697
   4 N :   -0.002053    0.001132
   5 N :    0.095042    0.043570
   6 N :    0.083878    0.001611
   7 N :    0.034118   -0.004123
   8 C :    0.639496    0.003430
   9 C :    1.086836    0.508149
  10 C :   -0.109575    0.006628
  11 C :   -0.355070   -0.325847
  12 C :   -1.172631   -0.005802
  13 C :   -1.514769   -0.004155
  14 C :    0.497839   -0.012976
  15 C :    0.257696   -0.347718
  16 C :    0.253554    0.001355
  17 C :    0.465174    0.018731
  18 H :    0.161775   -0.002746
  19 H :    0.198833    0.032103
  20 H :    0.187968    0.003101
  21 H :    0.351761    0.000460
  22 H :    0.300995   -0.000208
  23 H :    0.468571    0.019513
  24 H :    0.290257    0.024119
  25 H :    0.265390   -0.009208
  26 H :    0.044302    0.000083
  27 H :    0.020098    0.005152
  28 H :    0.066784   -0.000450
  29 H :    0.038785   -0.001434
Sum of atomic charges       :    0.0000000

LOEWDIN ATOMIC CHARGES AND SPIN DENSITIES
-----------------------------------------
   0 O :    0.055068    0.000395
   1 O :    0.061989    0.027839
   2 O :    0.078829   -0.000003
   3 O :    0.084039    0.007635
   4 N :    0.292393   -0.000157
   5 N :    0.285880    0.022434
   6 N :    0.335313    0.000114
   7 N :    0.347840   -0.003437
   8 C :   -0.153351   -0.000766
   9 C :   -0.132895   -0.037084
  10 C :    0.070059   -0.000390
  11 C :    0.141217   -0.021951
  12 C :    0.149682    0.000005
  13 C :    0.171168   -0.002500
  14 C :   -0.375643   -0.000039
  15 C :   -0.367560    0.003124
  16 C :   -0.451257   -0.000042
  17 C :   -0.492984    0.000931
  18 H :    0.019260    0.000003
  19 H :    0.031689    0.000462
  20 H :    0.005067    0.000043
  21 H :   -0.015323    0.000052
  22 H :    0.009663    0.000018
  23 H :    0.007485    0.000509
  24 H :    0.018043    0.000522
  25 H :   -0.044361    0.000206
  26 H :   -0.047661   -0.000012
  27 H :   -0.059882    0.002197
  28 H :    0.028447    0.000042
  29 H :   -0.052214   -0.000152

  Mayer bond orders larger than 0.100000
B(  0-O , 14-C ) :   1.4740 B(  1-O , 15-C ) :   1.3098 B(  2-O , 16-C ) :   1.5985
B(  3-O , 17-C ) :   1.5471 B(  4-N , 10-C ) :   0.8401 B(  4-N , 16-C ) :   0.9703
B(  4-N , 26-H ) :   1.1424 B(  5-N , 11-C ) :   0.9426 B(  5-N , 17-C ) :   0.9716
B(  5-N , 27-H ) :   1.1045 B(  6-N , 14-C ) :   0.9522 B(  6-N , 16-C ) :   1.0073
B(  6-N , 28-H ) :   1.0789 B(  7-N , 15-C ) :   0.9105 B(  7-N , 17-C ) :   0.9359
B(  7-N , 29-H ) :   1.1109 B(  8-C , 10-C ) :   1.2824 B(  8-C , 12-C ) :   0.3951
B(  8-C , 14-C ) :   0.9193 B(  9-C , 11-C ) :   1.2497 B(  9-C , 13-C ) :   0.2819
B(  9-C , 15-C ) :   0.6954 B(  9-C , 25-H ) :  -0.1130 B( 10-C , 16-C ) :  -0.1062
B( 10-C , 18-H ) :   1.0886 B( 11-C , 15-C ) :   0.1266 B( 11-C , 19-H ) :   1.0688
B( 12-C , 20-H ) :   0.9577 B( 12-C , 21-H ) :   0.8893 B( 12-C , 22-H ) :   1.0491
B( 13-C , 23-H ) :   0.7699 B( 13-C , 24-H ) :   0.9147 B( 13-C , 25-H ) :   1.0817
B( 15-C , 17-C ) :  -0.1008

Dispersion correction           -0.056999518
FINAL SINGLE POINT ENERGY      -908.867051484679

DIPOLE MOMENT
-------------

Method             : TDA/CIS
Type of density    : Electron Density
Level              : Relaxed density
State              :   1
Multiplicity       :   3
Irrep              :   0
Energy             :     0.0000000000000000 Eh
Relativity type    :
Basis              : AO
                                X                 Y                 Z
Electronic contribution:     -2.668872066      -9.841561313      -7.396861394
Nuclear contribution   :      1.709261252      10.556380816       9.926057042
                        -----------------------------------------
Total Dipole Moment    :     -0.959610814       0.714819503       2.529195648
                        -----------------------------------------
Magnitude (a.u.)       :      2.797972563
Magnitude (Debye)      :      7.111881065

Rotational constants in cm-1:             0.016833             0.015687             0.012457
Rotational constants in MHz :           504.647900           470.279923           373.445975

                             ****ORCA TERMINATED NORMALLY****
TOTAL RUN TIME: 0 days 0 hours 5 minutes 18 seconds 286 msec
