                         Program Version 6.0.0  -   RELEASE  -
|  1> ! Engrad wB97M-D3BJ def2-TZVPPD
|  2> %pal nprocs 8 end%pal nprocs 16 end
|  3> %tddft nroots 2 Iroot 2
|  4>  sf true
|  5> end
|  6> *xyz 0 3
|  7> O   0.99433311048217 1.12154755903315 0.24028484238348
|  8> C   0.88314559615928 0.0511657276768 -0.31162430588177
|  9> C   -0.32982421810022 -0.71542420516818 0.18131463309866
| 10> H   -0.00283401734713 -1.50865883468036 0.85687793850714
| 11> H   1.58638309377788 -0.33597842022751 -1.06228703143528
| 12> H   -0.88362065433731 -1.20137660502922 -0.62345120842797
| 13> H   -0.96092646582227 -0.01954950635684 0.71888513175575
| 14> *
| 15>
| 16>                          ****END OF INPUT****

CARTESIAN COORDINATES (ANGSTROEM)
---------------------------------
  O      0.994333    1.121548    0.240285
  C      0.883146    0.051166   -0.311624
  C     -0.329824   -0.715424    0.181315
  H     -0.002834   -1.508659    0.856878
  H      1.586383   -0.335978   -1.062287
  H     -0.883621   -1.201377   -0.623451
  H     -0.960926   -0.019550    0.718885

 Total Charge           Charge          ....    0
 Multiplicity           Mult            ....    3
 Number of Electrons    NEL             ....   24
 Basis Dimension        Dim             ....  182

ORBITAL ENERGIES
----------------
                 SPIN UP ORBITALS
  NO   OCC          E(Eh)            E(eV)
   0   1.0000     -19.411425      -528.2117
   1   1.0000     -10.382046      -282.5098
   2   1.0000     -10.366642      -282.0907
   3   1.0000      -1.247133       -33.9362
   4   1.0000      -0.874798       -23.8045
   5   1.0000      -0.722154       -19.6508
   6   1.0000      -0.639293       -17.3960
   7   1.0000      -0.583098       -15.8669
   8   1.0000      -0.581349       -15.8193
   9   1.0000      -0.514223       -13.9927
  10   1.0000      -0.508967       -13.8497
  11   1.0000      -0.436201       -11.8696
  12   1.0000      -0.226059        -6.1514
  13   0.0000       0.042997         1.1700
  14   0.0000       0.060481         1.6458
  15   0.0000       0.079434         2.1615
  16   0.0000       0.088480         2.4077
  17   0.0000       0.108902         2.9634

                 SPIN DOWN ORBITALS
  NO   OCC          E(Eh)            E(eV)
   0   1.0000     -19.383399      -527.4491
   1   1.0000     -10.371632      -282.2264
   2   1.0000     -10.364198      -282.0242
   3   1.0000      -1.188516       -32.3412
   4   1.0000      -0.854948       -23.2643
   5   1.0000      -0.679120       -18.4798
   6   1.0000      -0.585350       -15.9282
   7   1.0000      -0.540997       -14.7213
   8   1.0000      -0.532137       -14.4802
   9   1.0000      -0.502545       -13.6750
  10   1.0000      -0.468844       -12.7579
  11   0.0000      -0.078730        -2.1424
  12   0.0000       0.042410         1.1540
  13   0.0000       0.060030         1.6335
  14   0.0000       0.079248         2.1564
  15   0.0000       0.080823         2.1993

----------------------------------------------------------------------------------------------------
          SPIN FLIP ABSORPTION SPECTRUM VIA TRANSITION ELECTRIC DIPOLE MOMENTS
----------------------------------------------------------------------------------------------------
     Transition      Energy     Energy  Wavelength fosc(D2)      D2        DX        DY        DZ
                      (eV)      (cm-1)    (nm)                 (au**2)    (au)      (au)      (au)
----------------------------------------------------------------------------------------------------
  1-3A  ->  2-3A    4.297663   34663.0   288.5   0.000009139   0.00009  -0.00276   0.00438   0.00775

Dispersion correction             ... done (  0.0 sec)

MULLIKEN ATOMIC CHARGES AND SPIN DENSITIES
------------------------------------------
   0 O :   -0.241820    0.623578
   1 C :    0.192827   -0.654304
   2 C :   -0.691721    0.133223
   3 H :    0.179479   -0.055092
   4 H :    0.122555   -0.015849
   5 H :    0.208503   -0.024447
   6 H :    0.230176   -0.007108
Sum of atomic charges       :    0.0000000

LOEWDIN ATOMIC CHARGES AND SPIN DENSITIES
-----------------------------------------
   0 O :    0.152085    0.438140
   1 C :   -0.238071   -0.389744
   2 C :    0.142673    0.007158
   3 H :   -0.018310   -0.019370
   4 H :   -0.009094   -0.035129
   5 H :   -0.012108   -0.001509
   6 H :   -0.017175    0.000454

  Mayer bond orders larger than 0.100000
B(  0-O ,  1-C ) :   1.2513 B(  1-C ,  2-C ) :   0.6876 B(  1-C ,  4-H ) :   1.0279
B(  2-C ,  3-H ) :   0.9960 B(  2-C ,  5-H ) :   0.9844 B(  2-C ,  6-H ) :   0.9655

Dispersion correction           -0.005559941
FINAL SINGLE POINT ENERGY      -153.757971364716

DIPOLE MOMENT
-------------

Method             : TDA/CIS
Type of density    : Electron Density
Level              : Relaxed density
State              :   2
Multiplicity       :   3
Irrep              :   0
Energy             :     0.0000000000000000 Eh
Relativity type    :
Basis              : AO
                                X                 Y                 Z
Electronic contribution:      1.920972519       2.955522415       0.220074946
Nuclear contribution   :     -2.136541198      -3.447427438      -0.285060628
                        -----------------------------------------
Total Dipole Moment    :     -0.215568680      -0.491905022      -0.064985682
                        -----------------------------------------
Magnitude (a.u.)       :      0.540983868
Magnitude (Debye)      :      1.375071714

Rotational constants in cm-1:             1.601181             0.376760             0.323013
Rotational constants in MHz :         48002.190123         11294.980135          9683.699794

                             ****ORCA TERMINATED NORMALLY****
TOTAL RUN TIME: 0 days 0 hours 0 minutes 16 seconds 575 msec
