                         Program Version 6.0.0  -   RELEASE  -
|  1> ! Engrad def2-TZVPPD wB97M-D3BJ
|  2> %pal nprocs 8 end%pal nprocs 64 end
|  3> %tddft
|  4>  Iroot 1 Nroots 3
|  5> sf true
|  6> end
|  7> *xyz 0 3
|  8> O   1.01395469 1.04050942 0.25499655
|  9> C   0.75682484 -0.26676649 -0.07908117
| 10> C   -0.66148212 -0.65394176 0.02260719
| 11> H   1.2661657 -0.93465753 0.63823112
| 12> H   1.14472335 -0.52712666 -1.08674069
| 13> H   -1.26276535 -1.14735368 -0.73388978
| 14> H   -1.23385512 -0.34379972 0.88778634
| 15> *
| 16>
| 17>                          ****END OF INPUT****

CARTESIAN COORDINATES (ANGSTROEM)
---------------------------------
  O      1.013955    1.040509    0.254997
  C      0.756825   -0.266766   -0.079081
  C     -0.661482   -0.653942    0.022607
  H      1.266166   -0.934658    0.638231
  H      1.144723   -0.527127   -1.086741
  H     -1.262765   -1.147354   -0.733890
  H     -1.233855   -0.343800    0.887786

 Total Charge           Charge          ....    0
 Multiplicity           Mult            ....    3
 Number of Electrons    NEL             ....   24
 Basis Dimension        Dim             ....  182

ORBITAL ENERGIES
----------------
                 SPIN UP ORBITALS
  NO   OCC          E(Eh)            E(eV)
   0   1.0000     -19.393219      -527.7163
   1   1.0000     -10.415142      -283.4104
   2   1.0000     -10.367003      -282.1005
   3   1.0000      -1.169760       -31.8308
   4   1.0000      -0.881951       -23.9991
   5   1.0000      -0.734462       -19.9857
   6   1.0000      -0.615311       -16.7435
   7   1.0000      -0.589257       -16.0345
   8   1.0000      -0.561636       -15.2829
   9   1.0000      -0.507813       -13.8183
  10   1.0000      -0.446982       -12.1630
  11   1.0000      -0.416237       -11.3264
  12   1.0000      -0.323224        -8.7954
  13   0.0000       0.041258         1.1227
  14   0.0000       0.061273         1.6673
  15   0.0000       0.078026         2.1232
  16   0.0000       0.087126         2.3708
  17   0.0000       0.111193         3.0257

                 SPIN DOWN ORBITALS
  NO   OCC          E(Eh)            E(eV)
   0   1.0000     -19.369185      -527.0623
   1   1.0000     -10.416505      -283.4475
   2   1.0000     -10.353448      -281.7316
   3   1.0000      -1.114941       -30.3391
   4   1.0000      -0.848714       -23.0947
   5   1.0000      -0.707291       -19.2464
   6   1.0000      -0.589482       -16.0406
   7   1.0000      -0.545516       -14.8443
   8   1.0000      -0.534833       -14.5535
   9   1.0000      -0.486552       -13.2397
  10   1.0000      -0.386691       -10.5224
  11   0.0000      -0.057991        -1.5780
  12   0.0000      -0.000224        -0.0061
  13   0.0000       0.040419         1.0999
  14   0.0000       0.061463         1.6725
  15   0.0000       0.078018         2.1230

----------------------------------------------------------------------------------------------------
          SPIN FLIP ABSORPTION SPECTRUM VIA TRANSITION ELECTRIC DIPOLE MOMENTS
----------------------------------------------------------------------------------------------------
     Transition      Energy     Energy  Wavelength fosc(D2)      D2        DX        DY        DZ
                      (eV)      (cm-1)    (nm)                 (au**2)    (au)      (au)      (au)
----------------------------------------------------------------------------------------------------
  1-3A  ->  2-3A    0.228952    1846.6  5415.3   0.000047439   0.00846  -0.07942  -0.04599   0.00588
  1-3A  ->  3-1A    0.944528    7618.1  1312.7   0.037565902   1.62338  -0.82497  -0.96754  -0.08168

Dispersion correction             ... done (  0.2 sec)

MULLIKEN ATOMIC CHARGES AND SPIN DENSITIES
------------------------------------------
   0 O :   -0.470877   -0.555455
   1 C :   -0.036179   -0.055053
   2 C :   -0.457774    0.520756
   3 H :    0.230348    0.077910
   4 H :    0.231429   -0.066429
   5 H :    0.228601    0.037240
   6 H :    0.274452    0.041030
Sum of atomic charges       :    0.0000000

LOEWDIN ATOMIC CHARGES AND SPIN DENSITIES
-----------------------------------------
   0 O :   -0.057128   -0.557999
   1 C :   -0.305181    0.010498
   2 C :    0.347031    0.465973
   3 H :    0.030754    0.022575
   4 H :    0.046125   -0.051341
   5 H :   -0.030572    0.056388
   6 H :   -0.031028    0.053906

  Mayer bond orders larger than 0.100000
B(  0-O ,  1-C ) :   0.9787 B(  0-O ,  2-C ) :   0.3621 B(  1-C ,  2-C ) :   0.8524
B(  1-C ,  3-H ) :   0.9733 B(  1-C ,  4-H ) :   0.9438 B(  2-C ,  5-H ) :   0.9576
B(  2-C ,  6-H ) :   0.9377

Dispersion correction           -0.005508534
FINAL SINGLE POINT ENERGY      -153.759114972528

DIPOLE MOMENT
-------------

Method             : TDA/CIS
Type of density    : Electron Density
Level              : Relaxed density
State              :   1
Multiplicity       :   3
Irrep              :   0
Energy             :     0.0000000000000000 Eh
Relativity type    :
Basis              : AO
                                X                 Y                 Z
Electronic contribution:      0.849683368       1.687487547       0.234195795
Nuclear contribution   :     -1.543339410      -2.978364485      -0.538122786
                        -----------------------------------------
Total Dipole Moment    :     -0.693656042      -1.290876939      -0.303926991
                        -----------------------------------------
Magnitude (a.u.)       :      1.496627406
Magnitude (Debye)      :      3.804124547

Rotational constants in cm-1:             1.466066             0.348346             0.306019
Rotational constants in MHz :         43951.552466         10443.141650          9174.232220

                             ****ORCA TERMINATED NORMALLY****
TOTAL RUN TIME: 0 days 0 hours 0 minutes 26 seconds 327 msec
