                         Program Version 6.0.0  -   RELEASE  -
|  1> ! Engrad wB97M-D3BJ def2-TZVPPD
|  2> %pal nprocs 8 end%pal nprocs 16 end
|  3> %tddft nroots 2 Iroot 2
|  4>  sf true
|  5> end
|  6> *xyz 0 3
|  7> O   1.34054419502895 1.06321883059986 -0.08648488597271
|  8> C   0.92808821866759 -0.0058533313603 0.2749704110184
|  9> C   -0.31540488378199 -0.67604617661503 -0.22624010018168
| 10> H   1.48524257448792 -0.57764389004882 1.04307848528924
| 11> H   -0.05374469869994 -1.64774297045003 -0.646355671289
| 12> H   -0.8130578775133 -0.06542562493681 -0.97343682411881
| 13> H   -0.9844181064463 -0.86326115921344 0.61446858525456
| 14> *
| 15>
| 16>                          ****END OF INPUT****

CARTESIAN COORDINATES (ANGSTROEM)
---------------------------------
  O      1.340544    1.063219   -0.086485
  C      0.928088   -0.005853    0.274970
  C     -0.315405   -0.676046   -0.226240
  H      1.485243   -0.577644    1.043078
  H     -0.053745   -1.647743   -0.646356
  H     -0.813058   -0.065426   -0.973437
  H     -0.984418   -0.863261    0.614469

 Total Charge           Charge          ....    0
 Multiplicity           Mult            ....    3
 Number of Electrons    NEL             ....   24
 Basis Dimension        Dim             ....  182

ORBITAL ENERGIES
----------------
                 SPIN UP ORBITALS
  NO   OCC          E(Eh)            E(eV)
   0   1.0000     -19.409485      -528.1589
   1   1.0000     -10.379387      -282.4375
   2   1.0000     -10.367071      -282.1024
   3   1.0000      -1.246044       -33.9066
   4   1.0000      -0.882678       -24.0189
   5   1.0000      -0.717998       -19.5377
   6   1.0000      -0.634857       -17.2753
   7   1.0000      -0.587190       -15.9783
   8   1.0000      -0.581940       -15.8354
   9   1.0000      -0.515118       -14.0171
  10   1.0000      -0.513816       -13.9816
  11   1.0000      -0.433332       -11.7916
  12   1.0000      -0.220313        -5.9950
  13   0.0000       0.040830         1.1110
  14   0.0000       0.060242         1.6393
  15   0.0000       0.078483         2.1356
  16   0.0000       0.087929         2.3927
  17   0.0000       0.107749         2.9320

                 SPIN DOWN ORBITALS
  NO   OCC          E(Eh)            E(eV)
   0   1.0000     -19.381861      -527.4072
   1   1.0000     -10.369117      -282.1580
   2   1.0000     -10.364914      -282.0437
   3   1.0000      -1.188369       -32.3372
   4   1.0000      -0.863471       -23.4962
   5   1.0000      -0.673269       -18.3206
   6   1.0000      -0.585958       -15.9447
   7   1.0000      -0.540877       -14.7180
   8   1.0000      -0.535354       -14.5677
   9   1.0000      -0.499428       -13.5901
  10   1.0000      -0.471304       -12.8248
  11   0.0000      -0.083163        -2.2630
  12   0.0000       0.041229         1.1219
  13   0.0000       0.059907         1.6301
  14   0.0000       0.078360         2.1323
  15   0.0000       0.084121         2.2890

----------------------------------------------------------------------------------------------------
          SPIN FLIP ABSORPTION SPECTRUM VIA TRANSITION ELECTRIC DIPOLE MOMENTS
----------------------------------------------------------------------------------------------------
     Transition      Energy     Energy  Wavelength fosc(D2)      D2        DX        DY        DZ
                      (eV)      (cm-1)    (nm)                 (au**2)    (au)      (au)      (au)
----------------------------------------------------------------------------------------------------
  1-3A  ->  2-3A    4.584536   36976.8   270.4   0.000098717   0.00088   0.01570  -0.01332  -0.02132

Dispersion correction             ... done (  0.0 sec)

MULLIKEN ATOMIC CHARGES AND SPIN DENSITIES
------------------------------------------
   0 O :   -0.257542    0.590891
   1 C :    0.218149   -0.620490
   2 C :   -0.709323    0.119115
   3 H :    0.101840    0.003775
   4 H :    0.199313   -0.045847
   5 H :    0.247458   -0.003118
   6 H :    0.200105   -0.044325
Sum of atomic charges       :   -0.0000000

LOEWDIN ATOMIC CHARGES AND SPIN DENSITIES
-----------------------------------------
   0 O :    0.159839    0.401375
   1 C :   -0.256705   -0.350324
   2 C :    0.136158   -0.012059
   3 H :    0.007737   -0.004812
   4 H :   -0.018843   -0.019556
   5 H :   -0.009467    0.004903
   6 H :   -0.018719   -0.019527

  Mayer bond orders larger than 0.100000
B(  0-O ,  1-C ) :   1.2756 B(  1-C ,  2-C ) :   0.6404 B(  1-C ,  3-H ) :   1.0105
B(  2-C ,  4-H ) :   1.0099 B(  2-C ,  5-H ) :   0.9347 B(  2-C ,  6-H ) :   1.0084

Dispersion correction           -0.005533850
FINAL SINGLE POINT ENERGY      -153.756234763656

DIPOLE MOMENT
-------------

Method             : TDA/CIS
Type of density    : Electron Density
Level              : Relaxed density
State              :   2
Multiplicity       :   3
Irrep              :   0
Energy             :     0.0000000000000000 Eh
Relativity type    :
Basis              : AO
                                X                 Y                 Z
Electronic contribution:      2.401921268       2.928603812      -0.051131804
Nuclear contribution   :     -2.755545979      -3.425768167       0.099164989
                        -----------------------------------------
Total Dipole Moment    :     -0.353624712      -0.497164355       0.048033185
                        -----------------------------------------
Magnitude (a.u.)       :      0.611988578
Magnitude (Debye)      :      1.555551343

Rotational constants in cm-1:             1.944019             0.338197             0.304172
Rotational constants in MHz :         58280.236791         10138.882095          9118.849265

                             ****ORCA TERMINATED NORMALLY****
TOTAL RUN TIME: 0 days 0 hours 0 minutes 16 seconds 367 msec
