                         Program Version 6.0.0  -   RELEASE  -
|  1> ! Engrad def2-TZVPPD wB97M-D3BJ
|  2> %pal nprocs 8 end%pal nprocs 64 end
|  3> %tddft
|  4>  Iroot 2 Nroots 3
|  5> sf true
|  6> end
|  7> *xyz 0 3
|  8> O   3.15226043 -0.59227545 -2.03937394
|  9> O   -2.28107477 1.54564914 -1.47735617
| 10> O   -1.02747512 -2.05713384 -1.48915917
| 11> O   -2.88649365 0.28935691 2.72223501
| 12> N   0.02668617 -1.55097151 0.40776483
| 13> N   -0.72565331 0.63697617 2.06134241
| 14> N   1.13359691 -1.5920739 -1.69510117
| 15> N   -2.54280753 0.72662616 0.60238012
| 16> C   2.21968671 -0.56810922 0.17306006
| 17> C   -0.32602589 1.33528733 -0.22150924
| 18> C   0.96796278 -0.62691902 0.9165436
| 19> C   0.2449569 0.8331068 1.02979781
| 20> C   3.43050193 -0.0315205 0.78132076
| 21> C   0.43348941 1.76676868 -1.38948471
| 22> C   2.23335973 -0.9014376 -1.26464716
| 23> C   -1.74603244 1.25731651 -0.36318296
| 24> C   -0.01621807 -1.79409385 -0.91110769
| 25> C   -2.09101888 0.54836616 1.89282423
| 26> H   1.18666811 -0.92907793 1.94634591
| 27> H   0.96182588 1.473107 1.43061875
| 28> H   3.16266095 0.70417987 1.67128634
| 29> H   4.125389 -0.74363297 1.30226966
| 30> H   4.11415662 0.56044887 0.11308451
| 31> H   0.32765454 1.10717438 -2.24690262
| 32> H   0.34154264 2.84878813 -1.59899674
| 33> H   1.56932374 1.65177688 -1.11199944
| 34> H   -0.82966349 -1.57021531 0.83702604
| 35> H   -0.45471208 0.05268178 2.88722472
| 36> H   1.02553203 -1.58041642 -2.69121132
| 37> H   -3.54013018 0.87626251 0.48259627
| 38> *
| 39>
| 40>                          ****END OF INPUT****

CARTESIAN COORDINATES (ANGSTROEM)
---------------------------------
  O      3.152260   -0.592275   -2.039374
  O     -2.281075    1.545649   -1.477356
  O     -1.027475   -2.057134   -1.489159
  O     -2.886494    0.289357    2.722235
  N      0.026686   -1.550972    0.407765
  N     -0.725653    0.636976    2.061342
  N      1.133597   -1.592074   -1.695101
  N     -2.542808    0.726626    0.602380
  C      2.219687   -0.568109    0.173060
  C     -0.326026    1.335287   -0.221509
  C      0.967963   -0.626919    0.916544
  C      0.244957    0.833107    1.029798
  C      3.430502   -0.031520    0.781321
  C      0.433489    1.766769   -1.389485
  C      2.233360   -0.901438   -1.264647
  C     -1.746032    1.257317   -0.363183
  C     -0.016218   -1.794094   -0.911108
  C     -2.091019    0.548366    1.892824
  H      1.186668   -0.929078    1.946346
  H      0.961826    1.473107    1.430619
  H      3.162661    0.704180    1.671286
  H      4.125389   -0.743633    1.302270
  H      4.114157    0.560449    0.113085
  H      0.327655    1.107174   -2.246903
  H      0.341543    2.848788   -1.598997
  H      1.569324    1.651777   -1.111999
  H     -0.829663   -1.570215    0.837026
  H     -0.454712    0.052682    2.887225
  H      1.025532   -1.580416   -2.691211
  H     -3.540130    0.876263    0.482596

 Total Charge           Charge          ....    0
 Multiplicity           Mult            ....    3
 Number of Electrons    NEL             ....  132
 Basis Dimension        Dim             ....  882

ORBITAL ENERGIES
----------------
                 SPIN UP ORBITALS
  NO   OCC          E(Eh)            E(eV)
   0   1.0000     -19.334350      -526.1144
   1   1.0000     -19.326140      -525.8910
   2   1.0000     -19.325709      -525.8793
   3   1.0000     -19.320509      -525.7378
   4   1.0000     -14.571335      -396.5062
   5   1.0000     -14.568481      -396.4285
   6   1.0000     -14.564048      -396.3079
   7   1.0000     -14.563385      -396.2898
   8   1.0000     -10.506928      -285.9081
   9   1.0000     -10.505970      -285.8820
  10   1.0000     -10.485422      -285.3228
  11   1.0000     -10.473380      -284.9952
  12   1.0000     -10.449611      -284.3484
  13   1.0000     -10.444791      -284.2172
  14   1.0000     -10.422535      -283.6116
  15   1.0000     -10.422112      -283.6001
  16   1.0000     -10.392952      -282.8066
  17   1.0000     -10.380395      -282.4649
  18   1.0000      -1.239843       -33.7379
  19   1.0000      -1.233676       -33.5700
  20   1.0000      -1.191306       -32.4171
  21   1.0000      -1.179825       -32.1047
  22   1.0000      -1.137114       -30.9425
  23   1.0000      -1.109163       -30.1819
  24   1.0000      -1.077098       -29.3093
  25   1.0000      -1.066694       -29.0262
  26   1.0000      -0.988303       -26.8931
  27   1.0000      -0.967058       -26.3150
  28   1.0000      -0.892129       -24.2761
  29   1.0000      -0.847994       -23.0751
  30   1.0000      -0.826448       -22.4888
  31   1.0000      -0.813012       -22.1232
  32   1.0000      -0.798346       -21.7241
  33   1.0000      -0.783081       -21.3087
  34   1.0000      -0.708912       -19.2905
  35   1.0000      -0.703795       -19.1512
  36   1.0000      -0.697303       -18.9746
  37   1.0000      -0.690271       -18.7832
  38   1.0000      -0.666590       -18.1388
  39   1.0000      -0.653918       -17.7940
  40   1.0000      -0.626829       -17.0569
  41   1.0000      -0.614555       -16.7229
  42   1.0000      -0.601351       -16.3636
  43   1.0000      -0.588345       -16.0097
  44   1.0000      -0.578060       -15.7298
  45   1.0000      -0.574428       -15.6310
  46   1.0000      -0.571966       -15.5640
  47   1.0000      -0.566315       -15.4102
  48   1.0000      -0.564245       -15.3539
  49   1.0000      -0.556130       -15.1331
  50   1.0000      -0.551729       -15.0133
  51   1.0000      -0.544138       -14.8068
  52   1.0000      -0.535864       -14.5816
  53   1.0000      -0.522377       -14.2146
  54   1.0000      -0.512491       -13.9456
  55   1.0000      -0.499066       -13.5803
  56   1.0000      -0.481442       -13.1007
  57   1.0000      -0.433428       -11.7942
  58   1.0000      -0.421041       -11.4571
  59   1.0000      -0.412001       -11.2111
  60   1.0000      -0.405830       -11.0432
  61   1.0000      -0.404289       -11.0013
  62   1.0000      -0.398226       -10.8363
  63   1.0000      -0.388765       -10.5788
  64   1.0000      -0.385834       -10.4991
  65   1.0000      -0.359740        -9.7890
  66   1.0000      -0.320863        -8.7311
  67   0.0000       0.007561         0.2057
  68   0.0000       0.028143         0.7658
  69   0.0000       0.033113         0.9011
  70   0.0000       0.036383         0.9900
  71   0.0000       0.053824         1.4646

                 SPIN DOWN ORBITALS
  NO   OCC          E(Eh)            E(eV)
   0   1.0000     -19.330831      -526.0186
   1   1.0000     -19.326146      -525.8912
   2   1.0000     -19.320390      -525.7345
   3   1.0000     -19.320098      -525.7266
   4   1.0000     -14.571189      -396.5022
   5   1.0000     -14.567769      -396.4091
   6   1.0000     -14.563606      -396.2959
   7   1.0000     -14.563359      -396.2891
   8   1.0000     -10.506986      -285.9096
   9   1.0000     -10.506011      -285.8831
  10   1.0000     -10.486384      -285.3490
  11   1.0000     -10.474686      -285.0307
  12   1.0000     -10.449002      -284.3318
  13   1.0000     -10.444123      -284.1990
  14   1.0000     -10.411293      -283.3057
  15   1.0000     -10.411248      -283.3045
  16   1.0000     -10.393696      -282.8268
  17   1.0000     -10.380857      -282.4775
  18   1.0000      -1.239419       -33.7263
  19   1.0000      -1.233021       -33.5522
  20   1.0000      -1.186612       -32.2894
  21   1.0000      -1.173373       -31.9291
  22   1.0000      -1.134560       -30.8729
  23   1.0000      -1.106844       -30.1188
  24   1.0000      -1.074761       -29.2457
  25   1.0000      -1.064225       -28.9590
  26   1.0000      -0.974846       -26.5269
  27   1.0000      -0.949265       -25.8308
  28   1.0000      -0.885837       -24.1048
  29   1.0000      -0.843738       -22.9593
  30   1.0000      -0.818569       -22.2744
  31   1.0000      -0.807784       -21.9809
  32   1.0000      -0.796505       -21.6740
  33   1.0000      -0.781684       -21.2707
  34   1.0000      -0.704794       -19.1784
  35   1.0000      -0.698051       -18.9949
  36   1.0000      -0.690955       -18.8018
  37   1.0000      -0.684161       -18.6170
  38   1.0000      -0.655139       -17.8272
  39   1.0000      -0.650065       -17.6892
  40   1.0000      -0.621942       -16.9239
  41   1.0000      -0.609187       -16.5768
  42   1.0000      -0.596377       -16.2283
  43   1.0000      -0.583488       -15.8775
  44   1.0000      -0.570896       -15.5349
  45   1.0000      -0.565746       -15.3947
  46   1.0000      -0.562125       -15.2962
  47   1.0000      -0.560160       -15.2427
  48   1.0000      -0.551355       -15.0031
  49   1.0000      -0.549142       -14.9429
  50   1.0000      -0.545281       -14.8378
  51   1.0000      -0.537353       -14.6221
  52   1.0000      -0.528544       -14.3824
  53   1.0000      -0.512781       -13.9535
  54   1.0000      -0.502120       -13.6634
  55   1.0000      -0.495959       -13.4957
  56   1.0000      -0.477825       -13.0023
  57   1.0000      -0.429036       -11.6747
  58   1.0000      -0.418097       -11.3770
  59   1.0000      -0.406704       -11.0670
  60   1.0000      -0.395524       -10.7627
  61   1.0000      -0.392873       -10.6906
  62   1.0000      -0.386209       -10.5093
  63   1.0000      -0.381316       -10.3761
  64   1.0000      -0.377187       -10.2638
  65   0.0000      -0.078034        -2.1234
  66   0.0000      -0.049984        -1.3601
  67   0.0000       0.007179         0.1953
  68   0.0000       0.027802         0.7565
  69   0.0000       0.032803         0.8926

----------------------------------------------------------------------------------------------------
          SPIN FLIP ABSORPTION SPECTRUM VIA TRANSITION ELECTRIC DIPOLE MOMENTS
----------------------------------------------------------------------------------------------------
     Transition      Energy     Energy  Wavelength fosc(D2)      D2        DX        DY        DZ
                      (eV)      (cm-1)    (nm)                 (au**2)    (au)      (au)      (au)
----------------------------------------------------------------------------------------------------
  1-3A  ->  2-3A    0.247990    2000.2  4999.6   0.000109387   0.01800   0.11468  -0.06422  -0.02701
  1-3A  ->  3-3A    1.872153   15099.9   662.3   0.000542626   0.01183   0.07330  -0.05409   0.05943

Dispersion correction             ... done (  0.1 sec)

MULLIKEN ATOMIC CHARGES AND SPIN DENSITIES
------------------------------------------
   0 O :   -0.692618   -0.000265
   1 O :   -0.718907    0.002644
   2 O :   -0.608654   -0.000013
   3 O :   -0.618594   -0.000104
   4 N :   -0.173662   -0.011289
   5 N :   -0.351966    0.001524
   6 N :   -0.055057   -0.003178
   7 N :   -0.005775   -0.000251
   8 C :    0.299952    0.344487
   9 C :    0.425490    0.314684
  10 C :    0.241926   -0.177459
  11 C :    0.073644   -0.200785
  12 C :   -1.273644   -0.016274
  13 C :   -1.221665   -0.017821
  14 C :    0.245480   -0.138232
  15 C :    0.298880   -0.148845
  16 C :    0.403993    0.006848
  17 C :    0.396177    0.010809
  18 H :    0.570073   -0.001614
  19 H :    0.708559    0.004231
  20 H :    0.296494    0.004339
  21 H :    0.337540    0.008334
  22 H :    0.265585   -0.000690
  23 H :    0.248281    0.003732
  24 H :    0.349053    0.005988
  25 H :    0.250098    0.003979
  26 H :    0.014105    0.000468
  27 H :    0.146255    0.001795
  28 H :    0.059976    0.001332
  29 H :    0.088982    0.001625
Sum of atomic charges       :    0.0000000

LOEWDIN ATOMIC CHARGES AND SPIN DENSITIES
-----------------------------------------
   0 O :    0.059098   -0.000198
   1 O :    0.049972    0.002042
   2 O :    0.119270   -0.000132
   3 O :    0.125210   -0.000173
   4 N :    0.318649   -0.000595
   5 N :    0.257339   -0.000282
   6 N :    0.333919   -0.002028
   7 N :    0.321515   -0.002903
   8 C :   -0.059703    0.010423
   9 C :   -0.026912    0.005211
  10 C :   -0.116438   -0.000939
  11 C :   -0.089335   -0.000061
  12 C :    0.143289    0.000693
  13 C :    0.183884   -0.001166
  14 C :   -0.417640   -0.003808
  15 C :   -0.375874   -0.005794
  16 C :   -0.476100   -0.000235
  17 C :   -0.521486   -0.000327
  18 H :    0.056490   -0.000504
  19 H :    0.011452   -0.000010
  20 H :    0.051861    0.000237
  21 H :    0.023169    0.000803
  22 H :    0.021203    0.000307
  23 H :    0.009171    0.000304
  24 H :    0.027401   -0.000206
  25 H :    0.047802   -0.000071
  26 H :   -0.084234   -0.000042
  27 H :    0.012217   -0.000063
  28 H :   -0.013983   -0.000231
  29 H :    0.008795   -0.000250

  Mayer bond orders larger than 0.100000
B(  0-O , 14-C ) :   1.3437 B(  1-O , 15-C ) :   1.2412 B(  2-O , 16-C ) :   1.4805
B(  3-O , 17-C ) :   1.6377 B(  4-N ,  8-C ) :   0.1971 B(  4-N , 10-C ) :   0.2996
B(  4-N , 16-C ) :   1.0951 B(  4-N , 18-H ) :  -0.1342 B(  4-N , 26-H ) :   1.0727
B(  5-N , 10-C ) :   0.1287 B(  5-N , 11-C ) :   0.3795 B(  5-N , 17-C ) :   1.0197
B(  5-N , 27-H ) :   1.0297 B(  6-N ,  8-C ) :  -0.1446 B(  6-N , 14-C ) :   1.0414
B(  6-N , 16-C ) :   0.8897 B(  6-N , 28-H ) :   1.0645 B(  7-N , 15-C ) :   1.0759
B(  7-N , 17-C ) :   1.0048 B(  7-N , 29-H ) :   1.0295 B(  8-C , 10-C ) :   0.5834
B(  8-C , 11-C ) :   0.2372 B(  8-C , 12-C ) :   0.4124 B(  8-C , 14-C ) :   0.7098
B(  8-C , 16-C ) :   0.1247 B(  8-C , 18-H ) :  -0.1585 B(  8-C , 20-H ) :  -0.1624
B(  9-C , 10-C ) :   0.1803 B(  9-C , 11-C ) :   0.8586 B(  9-C , 13-C ) :   0.4052
B(  9-C , 15-C ) :   0.7710 B(  9-C , 19-H ) :  -0.1770 B(  9-C , 25-H ) :  -0.1902
B( 10-C , 11-C ) :   0.2820 B( 10-C , 14-C ) :  -0.1104 B( 10-C , 16-C ) :  -0.1373
B( 10-C , 18-H ) :   0.7652 B( 10-C , 19-H ) :  -0.1005 B( 11-C , 13-C ) :  -0.1010
B( 11-C , 17-C ) :  -0.1905 B( 11-C , 19-H ) :   0.5455 B( 12-C , 20-H ) :   0.9354
B( 12-C , 21-H ) :   0.8913 B( 12-C , 22-H ) :   1.0120 B( 13-C , 15-C ) :   0.1136
B( 13-C , 23-H ) :   0.9302 B( 13-C , 24-H ) :   0.8820 B( 13-C , 25-H ) :   1.0892

Dispersion correction           -0.059901514
FINAL SINGLE POINT ENERGY      -908.760974402919

DIPOLE MOMENT
-------------

Method             : TDA/CIS
Type of density    : Electron Density
Level              : Relaxed density
State              :   2
Multiplicity       :   3
Irrep              :   0
Energy             :     0.0000000000000000 Eh
Relativity type    :
Basis              : AO
                                X                 Y                 Z
Electronic contribution:     -9.522620485      -4.229047826      -1.337213979
Nuclear contribution   :     11.275875849       4.676551872       3.099726454
                        -----------------------------------------
Total Dipole Moment    :      1.753255363       0.447504046       1.762512475
                        -----------------------------------------
Magnitude (a.u.)       :      2.525987820
Magnitude (Debye)      :      6.420550788

Rotational constants in cm-1:             0.023781             0.011921             0.010999
Rotational constants in MHz :           712.926668           357.378048           329.736206

                             ****ORCA TERMINATED NORMALLY****
TOTAL RUN TIME: 0 days 0 hours 4 minutes 49 seconds 773 msec
