                         Program Version 6.0.0  -   RELEASE  -
|  1> ! Engrad def2-TZVPPD wB97M-D3BJ
|  2> %pal nprocs 8 end%pal nprocs 64 end
|  3> %tddft
|  4>  Iroot 1 Nroots 3
|  5> sf true
|  6> end
|  7> *xyz 0 3
|  8> O   3.55601864 0.36522762 0.50763753
|  9> O   -0.8774776 0.88369523 -2.90706852
| 10> O   0.64839714 -2.7788371 -1.05664023
| 11> O   -3.80478352 -0.78425486 -0.04650164
| 12> N   -0.05059464 -1.4530759 0.67205619
| 13> N   -2.17697892 0.53428347 0.89143917
| 14> N   2.17124424 -1.24218176 -0.14998759
| 15> N   -2.07870305 -0.26504124 -1.40294366
| 16> C   1.49399587 0.25913358 1.55331365
| 17> C   -0.38369496 1.22903057 -0.58617004
| 18> C   0.09443745 -0.17145393 1.3808636
| 19> C   -0.79951297 0.97276936 0.81064864
| 20> C   1.86803126 1.29825453 2.46039516
| 21> C   0.74391933 2.17243695 -0.73614028
| 22> C   2.49977919 -0.20890759 0.62907426
| 23> C   -1.10250517 0.68357188 -1.71247477
| 24> C   0.88688391 -1.944023 -0.21524672
| 25> C   -2.78034243 -0.17173628 -0.14918117
| 26> H   -0.34765145 -0.29795316 2.37311183
| 27> H   -0.7363631 1.93140993 1.40929266
| 28> H   2.32983264 2.21431009 1.94884597
| 29> H   1.06820292 1.50384135 3.16373343
| 30> H   2.72728971 0.8302098 3.06879864
| 31> H   1.7373336 1.79693987 -0.81938871
| 32> H   0.65763501 2.89960943 -1.60403578
| 33> H   0.80390644 2.87425918 0.18423857
| 34> H   -0.9167117 -1.97999677 0.60597543
| 35> H   -2.61250463 0.37426032 1.77347085
| 36> H   2.85941162 -1.41105708 -0.86323363
| 37> H   -2.69147293 -0.42161292 -2.20759022
| 38> *
| 39>
| 40>                          ****END OF INPUT****

CARTESIAN COORDINATES (ANGSTROEM)
---------------------------------
  O      3.556019    0.365228    0.507638
  O     -0.877478    0.883695   -2.907069
  O      0.648397   -2.778837   -1.056640
  O     -3.804784   -0.784255   -0.046502
  N     -0.050595   -1.453076    0.672056
  N     -2.176979    0.534283    0.891439
  N      2.171244   -1.242182   -0.149988
  N     -2.078703   -0.265041   -1.402944
  C      1.493996    0.259134    1.553314
  C     -0.383695    1.229031   -0.586170
  C      0.094437   -0.171454    1.380864
  C     -0.799513    0.972769    0.810649
  C      1.868031    1.298255    2.460395
  C      0.743919    2.172437   -0.736140
  C      2.499779   -0.208908    0.629074
  C     -1.102505    0.683572   -1.712475
  C      0.886884   -1.944023   -0.215247
  C     -2.780342   -0.171736   -0.149181
  H     -0.347651   -0.297953    2.373112
  H     -0.736363    1.931410    1.409293
  H      2.329833    2.214310    1.948846
  H      1.068203    1.503841    3.163733
  H      2.727290    0.830210    3.068799
  H      1.737334    1.796940   -0.819389
  H      0.657635    2.899609   -1.604036
  H      0.803906    2.874259    0.184239
  H     -0.916712   -1.979997    0.605975
  H     -2.612505    0.374260    1.773471
  H      2.859412   -1.411057   -0.863234
  H     -2.691473   -0.421613   -2.207590

 Total Charge           Charge          ....    0
 Multiplicity           Mult            ....    3
 Number of Electrons    NEL             ....  132
 Basis Dimension        Dim             ....  882

ORBITAL ENERGIES
----------------
                 SPIN UP ORBITALS
  NO   OCC          E(Eh)            E(eV)
   0   1.0000     -19.332523      -526.0647
   1   1.0000     -19.332097      -526.0531
   2   1.0000     -19.327440      -525.9264
   3   1.0000     -19.325145      -525.8639
   4   1.0000     -14.568650      -396.4331
   5   1.0000     -14.568461      -396.4280
   6   1.0000     -14.563911      -396.3042
   7   1.0000     -14.559385      -396.1810
   8   1.0000     -10.518766      -286.2302
   9   1.0000     -10.511486      -286.0321
  10   1.0000     -10.478015      -285.1213
  11   1.0000     -10.470557      -284.9183
  12   1.0000     -10.451538      -284.4008
  13   1.0000     -10.450571      -284.3745
  14   1.0000     -10.423481      -283.6373
  15   1.0000     -10.409767      -283.2642
  16   1.0000     -10.384102      -282.5658
  17   1.0000     -10.379494      -282.4404
  18   1.0000      -1.224293       -33.3147
  19   1.0000      -1.220911       -33.2227
  20   1.0000      -1.202389       -32.7187
  21   1.0000      -1.192447       -32.4481
  22   1.0000      -1.122893       -30.5555
  23   1.0000      -1.097152       -29.8550
  24   1.0000      -1.062331       -28.9075
  25   1.0000      -1.054770       -28.7018
  26   1.0000      -0.993373       -27.0311
  27   1.0000      -0.962500       -26.1910
  28   1.0000      -0.892633       -24.2898
  29   1.0000      -0.839239       -22.8369
  30   1.0000      -0.824845       -22.4452
  31   1.0000      -0.801005       -21.7964
  32   1.0000      -0.784848       -21.3568
  33   1.0000      -0.775222       -21.0949
  34   1.0000      -0.699980       -19.0474
  35   1.0000      -0.693273       -18.8649
  36   1.0000      -0.689612       -18.7653
  37   1.0000      -0.683124       -18.5887
  38   1.0000      -0.658456       -17.9175
  39   1.0000      -0.640134       -17.4189
  40   1.0000      -0.620903       -16.8956
  41   1.0000      -0.606515       -16.5041
  42   1.0000      -0.603003       -16.4085
  43   1.0000      -0.585613       -15.9353
  44   1.0000      -0.575226       -15.6527
  45   1.0000      -0.569427       -15.4949
  46   1.0000      -0.566178       -15.4065
  47   1.0000      -0.565577       -15.3901
  48   1.0000      -0.561389       -15.2762
  49   1.0000      -0.554500       -15.0887
  50   1.0000      -0.550597       -14.9825
  51   1.0000      -0.539257       -14.6739
  52   1.0000      -0.532053       -14.4779
  53   1.0000      -0.525640       -14.3034
  54   1.0000      -0.512750       -13.9526
  55   1.0000      -0.507735       -13.8162
  56   1.0000      -0.487637       -13.2693
  57   1.0000      -0.429363       -11.6836
  58   1.0000      -0.426291       -11.6000
  59   1.0000      -0.410236       -11.1631
  60   1.0000      -0.408598       -11.1185
  61   1.0000      -0.400396       -10.8953
  62   1.0000      -0.397087       -10.8053
  63   1.0000      -0.389963       -10.6114
  64   1.0000      -0.384385       -10.4596
  65   1.0000      -0.352146        -9.5824
  66   1.0000      -0.322472        -8.7749
  67   0.0000       0.006548         0.1782
  68   0.0000       0.029683         0.8077
  69   0.0000       0.032669         0.8890
  70   0.0000       0.035487         0.9657
  71   0.0000       0.054628         1.4865

                 SPIN DOWN ORBITALS
  NO   OCC          E(Eh)            E(eV)
   0   1.0000     -19.332040      -526.0516
   1   1.0000     -19.327722      -525.9341
   2   1.0000     -19.327372      -525.9245
   3   1.0000     -19.322064      -525.7801
   4   1.0000     -14.568503      -396.4291
   5   1.0000     -14.568445      -396.4276
   6   1.0000     -14.563026      -396.2801
   7   1.0000     -14.558871      -396.1670
   8   1.0000     -10.518813      -286.2314
   9   1.0000     -10.511526      -286.0332
  10   1.0000     -10.479187      -285.1532
  11   1.0000     -10.471290      -284.9383
  12   1.0000     -10.450985      -284.3858
  13   1.0000     -10.450225      -284.3651
  14   1.0000     -10.412228      -283.3311
  15   1.0000     -10.398485      -282.9572
  16   1.0000     -10.384766      -282.5838
  17   1.0000     -10.380102      -282.4569
  18   1.0000      -1.223412       -33.2907
  19   1.0000      -1.219195       -33.1760
  20   1.0000      -1.199375       -32.6367
  21   1.0000      -1.186201       -32.2782
  22   1.0000      -1.120103       -30.4796
  23   1.0000      -1.095147       -29.8005
  24   1.0000      -1.060274       -28.8515
  25   1.0000      -1.052971       -28.6528
  26   1.0000      -0.980696       -26.6861
  27   1.0000      -0.945062       -25.7164
  28   1.0000      -0.886239       -24.1158
  29   1.0000      -0.833986       -22.6939
  30   1.0000      -0.815558       -22.1925
  31   1.0000      -0.795355       -21.6427
  32   1.0000      -0.783558       -21.3217
  33   1.0000      -0.773818       -21.0567
  34   1.0000      -0.695908       -18.9366
  35   1.0000      -0.687987       -18.7211
  36   1.0000      -0.683416       -18.5967
  37   1.0000      -0.676625       -18.4119
  38   1.0000      -0.644535       -17.5387
  39   1.0000      -0.636348       -17.3159
  40   1.0000      -0.617722       -16.8091
  41   1.0000      -0.599967       -16.3259
  42   1.0000      -0.595535       -16.2053
  43   1.0000      -0.580917       -15.8075
  44   1.0000      -0.569101       -15.4860
  45   1.0000      -0.565101       -15.3772
  46   1.0000      -0.560814       -15.2605
  47   1.0000      -0.557244       -15.1634
  48   1.0000      -0.554709       -15.0944
  49   1.0000      -0.544755       -14.8235
  50   1.0000      -0.539382       -14.6773
  51   1.0000      -0.532265       -14.4837
  52   1.0000      -0.523670       -14.2498
  53   1.0000      -0.518799       -14.1173
  54   1.0000      -0.504839       -13.7374
  55   1.0000      -0.501473       -13.6458
  56   1.0000      -0.482823       -13.1383
  57   1.0000      -0.425529       -11.5792
  58   1.0000      -0.421941       -11.4816
  59   1.0000      -0.406031       -11.0487
  60   1.0000      -0.396172       -10.7804
  61   1.0000      -0.393188       -10.6992
  62   1.0000      -0.388310       -10.5665
  63   1.0000      -0.385034       -10.4773
  64   1.0000      -0.377057       -10.2602
  65   0.0000      -0.067509        -1.8370
  66   0.0000      -0.048459        -1.3186
  67   0.0000       0.006275         0.1708
  68   0.0000       0.028957         0.7880
  69   0.0000       0.032315         0.8793

----------------------------------------------------------------------------------------------------
          SPIN FLIP ABSORPTION SPECTRUM VIA TRANSITION ELECTRIC DIPOLE MOMENTS
----------------------------------------------------------------------------------------------------
     Transition      Energy     Energy  Wavelength fosc(D2)      D2        DX        DY        DZ
                      (eV)      (cm-1)    (nm)                 (au**2)    (au)      (au)      (au)
----------------------------------------------------------------------------------------------------
  1-3A  ->  2-3A    0.094705     763.8  13091.6   0.000026738   0.01152   0.08722  -0.02768   0.05614
  1-3A  ->  3-3A    2.005836   16178.2   618.1   0.001674427   0.03407   0.02473  -0.09710   0.15503

Dispersion correction             ... done (  0.1 sec)

MULLIKEN ATOMIC CHARGES AND SPIN DENSITIES
------------------------------------------
   0 O :   -0.683956   -0.036128
   1 O :   -0.682227    0.056057
   2 O :   -0.612668   -0.001160
   3 O :   -0.623341   -0.000522
   4 N :   -0.192335   -0.004711
   5 N :   -0.280461   -0.000306
   6 N :   -0.051669   -0.011403
   7 N :    0.033068    0.007128
   8 C :    0.703324    0.316720
   9 C :    0.417990    0.379924
  10 C :    0.029921   -0.249064
  11 C :    0.463727   -0.108335
  12 C :   -1.398131   -0.052539
  13 C :   -1.307970   -0.012065
  14 C :    0.096029   -0.226889
  15 C :    0.261698   -0.097740
  16 C :    0.414722    0.018053
  17 C :    0.269114    0.004437
  18 H :    0.529152   -0.040696
  19 H :    0.480643    0.007460
  20 H :    0.268283    0.004296
  21 H :    0.360718   -0.000394
  22 H :    0.374882    0.001964
  23 H :    0.215896    0.026026
  24 H :    0.330683    0.005572
  25 H :    0.266021    0.007892
  26 H :    0.077682    0.000583
  27 H :    0.064598    0.000983
  28 H :    0.027715    0.004343
  29 H :    0.146894    0.000514
Sum of atomic charges       :   -0.0000000

LOEWDIN ATOMIC CHARGES AND SPIN DENSITIES
-----------------------------------------
   0 O :    0.080798   -0.030154
   1 O :    0.079519    0.049306
   2 O :    0.099220   -0.000965
   3 O :    0.093192   -0.000526
   4 N :    0.293780   -0.000065
   5 N :    0.280472   -0.001283
   6 N :    0.344371   -0.011215
   7 N :    0.309363    0.004899
   8 C :   -0.083491   -0.145548
   9 C :   -0.031327    0.160081
  10 C :   -0.106405   -0.013053
  11 C :   -0.134955    0.006292
  12 C :    0.144566   -0.026862
  13 C :    0.188246    0.022783
  14 C :   -0.500589   -0.029418
  15 C :   -0.400135    0.022850
  16 C :   -0.410489   -0.000012
  17 C :   -0.460260   -0.000514
  18 H :    0.056286   -0.004298
  19 H :    0.084142    0.002516
  20 H :    0.048603   -0.007860
  21 H :   -0.007076    0.000404
  22 H :    0.060265   -0.009006
  23 H :   -0.025483    0.007082
  24 H :    0.043691    0.003988
  25 H :    0.036815    0.001514
  26 H :   -0.021637   -0.000075
  27 H :   -0.042659   -0.000407
  28 H :   -0.014855   -0.001011
  29 H :   -0.003964    0.000559

  Mayer bond orders larger than 0.100000
B(  0-O ,  8-C ) :  -0.1205 B(  0-O , 14-C ) :   1.4625 B(  1-O , 15-C ) :   1.2430
B(  2-O , 16-C ) :   1.5773 B(  3-O , 17-C ) :   1.6129 B(  4-N ,  8-C ) :   0.1282
B(  4-N ,  9-C ) :   0.1117 B(  4-N , 10-C ) :   0.5465 B(  4-N , 16-C ) :   1.0987
B(  4-N , 26-H ) :   1.0366 B(  5-N ,  9-C ) :   0.2476 B(  5-N , 10-C ) :   0.1283
B(  5-N , 17-C ) :   1.1579 B(  5-N , 27-H ) :   1.0809 B(  6-N ,  8-C ) :  -0.1517
B(  6-N , 10-C ) :   0.1005 B(  6-N , 14-C ) :   1.0991 B(  6-N , 16-C ) :   0.9185
B(  6-N , 28-H ) :   1.1286 B(  7-N , 15-C ) :   1.1060 B(  7-N , 17-C ) :   0.9832
B(  7-N , 29-H ) :   0.9471 B(  8-C ,  9-C ) :   0.1472 B(  8-C , 10-C ) :   0.5944
B(  8-C , 11-C ) :   0.2417 B(  8-C , 12-C ) :   0.1581 B(  8-C , 14-C ) :   0.5372
B(  8-C , 18-H ) :  -0.1581 B(  8-C , 21-H ) :  -0.1861 B(  9-C , 10-C ) :   0.1885
B(  9-C , 11-C ) :   0.1867 B(  9-C , 13-C ) :   0.3460 B(  9-C , 15-C ) :   0.9600
B(  9-C , 19-H ) :  -0.1640 B(  9-C , 25-H ) :  -0.1185 B( 10-C , 11-C ) :   0.6702
B( 10-C , 16-C ) :  -0.1316 B( 10-C , 18-H ) :   0.7774 B( 10-C , 19-H ) :  -0.1271
B( 11-C , 13-C ) :  -0.2717 B( 11-C , 17-C ) :  -0.2575 B( 11-C , 18-H ) :  -0.1261
B( 11-C , 19-H ) :   0.9227 B( 12-C , 20-H ) :   0.8834 B( 12-C , 21-H ) :   1.1039
B( 12-C , 22-H ) :   0.8730 B( 13-C , 14-C ) :   0.1079 B( 13-C , 15-C ) :  -0.1085
B( 13-C , 23-H ) :   0.9352 B( 13-C , 24-H ) :   0.9826 B( 13-C , 25-H ) :   1.0412
B( 15-C , 17-C ) :  -0.1098

Dispersion correction           -0.059469866
FINAL SINGLE POINT ENERGY      -908.776855271037

DIPOLE MOMENT
-------------

Method             : TDA/CIS
Type of density    : Electron Density
Level              : Relaxed density
State              :   1
Multiplicity       :   3
Irrep              :   0
Energy             :     0.0000000000000000 Eh
Relativity type    :
Basis              : AO
                                X                 Y                 Z
Electronic contribution:     -4.754587784      -8.801960572      -6.237146537
Nuclear contribution   :      4.664229102      10.129544564       8.671413086
                        -----------------------------------------
Total Dipole Moment    :     -0.090358683       1.327583992       2.434266549
                        -----------------------------------------
Magnitude (a.u.)       :      2.774220175
Magnitude (Debye)      :      7.051507293

Rotational constants in cm-1:             0.022013             0.012223             0.011646
Rotational constants in MHz :           659.945814           366.445034           349.136981

                             ****ORCA TERMINATED NORMALLY****
TOTAL RUN TIME: 0 days 0 hours 5 minutes 3 seconds 767 msec
