                         Program Version 6.0.0  -   RELEASE  -
|  1> ! EnGrad wB97M-D3BJ def2-TZVPPD
|  2> %pal nprocs 8 end%pal nprocs 16 end
|  3> %tddft
|  4>  sf true
|  5>  nroots 2 Iroot 2 end
|  6> *xyz 0 3
|  7> O   0.00720908034347 0.7869934574057 -4.469154227e-05
|  8> C   0.72665652093704 -0.43345469545972 0.00011222239357
|  9> C   -0.72970133397352 -0.44665017962995 -0.00011210147169
| 10> H   1.26075171007785 -0.65482482643048 0.91610020387467
| 11> H   1.26055730864678 -0.65487896916154 -0.91600089021456
| 12> H   -1.2617413250492 -0.65784283929466 -0.91823486994208
| 13> H   -1.26153196098243 -0.65774194742934 0.91818012690235
| 14> *
| 15>
| 16>                          ****END OF INPUT****

CARTESIAN COORDINATES (ANGSTROEM)
---------------------------------
  O      0.007209    0.786993   -0.000045
  C      0.726657   -0.433455    0.000112
  C     -0.729701   -0.446650   -0.000112
  H      1.260752   -0.654825    0.916100
  H      1.260557   -0.654879   -0.916001
  H     -1.261741   -0.657843   -0.918235
  H     -1.261532   -0.657742    0.918180

 Total Charge           Charge          ....    0
 Multiplicity           Mult            ....    3
 Number of Electrons    NEL             ....   24
 Basis Dimension        Dim             ....  182

ORBITAL ENERGIES
----------------
                 SPIN UP ORBITALS
  NO   OCC          E(Eh)            E(eV)
   0   1.0000     -19.517233      -531.0909
   1   1.0000     -10.444810      -284.2177
   2   1.0000     -10.430781      -283.8360
   3   1.0000      -1.343131       -36.5484
   4   1.0000      -0.884764       -24.0756
   5   1.0000      -0.817386       -22.2422
   6   1.0000      -0.722047       -19.6479
   7   1.0000      -0.684365       -18.6225
   8   1.0000      -0.608123       -16.5479
   9   1.0000      -0.536074       -14.5873
  10   1.0000      -0.530198       -14.4274
  11   1.0000      -0.492461       -13.4006
  12   1.0000      -0.117983        -3.2105
  13   0.0000       0.029616         0.8059
  14   0.0000       0.052511         1.4289
  15   0.0000       0.065239         1.7752
  16   0.0000       0.085282         2.3206
  17   0.0000       0.094403         2.5688

                 SPIN DOWN ORBITALS
  NO   OCC          E(Eh)            E(eV)
   0   1.0000     -19.485978      -530.2404
   1   1.0000     -10.443811      -284.1905
   2   1.0000     -10.427858      -283.7564
   3   1.0000      -1.279085       -34.8057
   4   1.0000      -0.853541       -23.2260
   5   1.0000      -0.802563       -21.8389
   6   1.0000      -0.661234       -17.9931
   7   1.0000      -0.654782       -17.8175
   8   1.0000      -0.577846       -15.7240
   9   1.0000      -0.517782       -14.0896
  10   1.0000      -0.475493       -12.9388
  11   0.0000      -0.151779        -4.1301
  12   0.0000       0.035645         0.9700
  13   0.0000       0.050806         1.3825
  14   0.0000       0.064694         1.7604
  15   0.0000       0.075541         2.0556

----------------------------------------------------------------------------------------------------
          SPIN FLIP ABSORPTION SPECTRUM VIA TRANSITION ELECTRIC DIPOLE MOMENTS
----------------------------------------------------------------------------------------------------
     Transition      Energy     Energy  Wavelength fosc(D2)      D2        DX        DY        DZ
                      (eV)      (cm-1)    (nm)                 (au**2)    (au)      (au)      (au)
----------------------------------------------------------------------------------------------------
  1-3A  ->  2-3A    6.983382   56324.8   177.5   0.005450107   0.03186  -0.00000   0.00005   0.17848

Dispersion correction             ... done (  0.0 sec)

MULLIKEN ATOMIC CHARGES AND SPIN DENSITIES
------------------------------------------
   0 O :    0.825854    1.044715
   1 C :   -1.724153   -1.993561
   2 C :   -2.067374   -1.984927
   3 H :    0.676949    0.650992
   4 H :    0.677862    0.651992
   5 H :    0.805447    0.815526
   6 H :    0.805415    0.815264
Sum of atomic charges       :   -0.0000000

LOEWDIN ATOMIC CHARGES AND SPIN DENSITIES
-----------------------------------------
   0 O :    0.370288    0.616355
   1 C :   -0.157068   -0.242166
   2 C :   -0.178618   -0.169767
   3 H :    0.003220   -0.061211
   4 H :    0.003180   -0.061269
   5 H :   -0.020520   -0.040992
   6 H :   -0.020483   -0.040949

  Mayer bond orders larger than 0.100000
B(  0-O ,  1-C ) :  -1.1071 B(  0-O ,  2-C ) :  -1.5452 B(  0-O ,  3-H ) :   0.6104
B(  0-O ,  4-H ) :   0.6112 B(  0-O ,  5-H ) :   0.7395 B(  0-O ,  6-H ) :   0.7395
B(  1-C ,  2-C ) :  11.1960 B(  1-C ,  3-H ) :  -0.5635 B(  1-C ,  4-H ) :  -0.5662
B(  1-C ,  5-H ) :  -3.2724 B(  1-C ,  6-H ) :  -3.2709 B(  2-C ,  3-H ) :  -3.0372
B(  2-C ,  4-H ) :  -3.0407 B(  2-C ,  5-H ) :  -1.3760 B(  2-C ,  6-H ) :  -1.3754
B(  3-H ,  4-H ) :   0.5070 B(  3-H ,  5-H ) :   0.9421 B(  3-H ,  6-H ) :   1.0249
B(  4-H ,  5-H ) :   1.0265 B(  4-H ,  6-H ) :   0.9426 B(  5-H ,  6-H ) :   0.7732

Dispersion correction           -0.005227449
FINAL SINGLE POINT ENERGY      -153.622169638667

DIPOLE MOMENT
-------------

Method             : TDA/CIS
Type of density    : Electron Density
Level              : Relaxed density
State              :   2
Multiplicity       :   3
Irrep              :   0
Energy             :     0.0000000000000000 Eh
Relativity type    :
Basis              : AO
                                X                 Y                 Z
Electronic contribution:      0.284348585       3.003355189       0.000705768
Nuclear contribution   :     -0.008303167      -2.397797610       0.000098338
                        -----------------------------------------
Total Dipole Moment    :      0.276045418       0.605557579       0.000804106
                        -----------------------------------------
Magnitude (a.u.)       :      0.665508604
Magnitude (Debye)      :      1.691588437

Rotational constants in cm-1:             0.857347             0.747194             0.475654
Rotational constants in MHz :         25702.610497         22400.309308         14259.740992

                             ****ORCA TERMINATED NORMALLY****
TOTAL RUN TIME: 0 days 0 hours 0 minutes 25 seconds 746 msec
