                         Program Version 6.0.0  -   RELEASE  -
|  1> ! Engrad def2-TZVPPD wB97M-D3BJ
|  2> %pal nprocs 8 end%pal nprocs 64 end
|  3> %tddft Nroots 2 Iroot 1
|  4> sf true
|  5> end
|  6> *xyz 0 3
|  7> O   2.30711929 -0.28727448 -1.16443038
|  8> O   -0.19485127 2.79798135 -2.27723991
|  9> O   0.21368569 -3.78632392 0.77662685
| 10> O   -2.14319337 -1.0881963 -1.39482235
| 11> N   0.38834465 -1.88145172 1.99573584
| 12> N   -1.38271381 -0.17337849 0.52428186
| 13> N   1.06659977 -1.93077038 -0.23057137
| 14> N   -0.79463225 0.7153133 -1.61149156
| 15> C   1.3509474 0.16729547 0.95905
| 16> C   -0.31165491 2.6836605 -0.10242597
| 17> C   0.58388263 -0.46838323 2.06860965
| 18> C   -0.37306587 0.42530028 1.30580058
| 19> C   2.26917126 1.31987567 1.22486754
| 20> C   -1.53082795 3.36892488 0.34212411
| 21> C   1.62523444 -0.66615403 -0.23894549
| 22> C   -0.44735811 2.02196141 -1.36428664
| 23> C   0.52219194 -2.62087999 0.8502274
| 24> C   -1.48351199 -0.23075071 -0.85427934
| 25> H   0.83916189 -0.15022188 3.07331894
| 26> H   -0.52224666 1.40438522 1.72063471
| 27> H   2.41206631 1.90746202 0.31842812
| 28> H   1.86359445 1.96100397 1.98587946
| 29> H   3.22940468 0.94538861 1.55914137
| 30> H   -2.44442043 2.77856412 0.25095321
| 31> H   -1.44722078 3.80409812 1.32935389
| 32> H   -1.63223294 4.19324795 -0.38140779
| 33> H   -0.03671974 -2.36931638 2.76867743
| 34> H   -1.85101654 -0.96779976 0.93155165
| 35> H   1.23623073 -2.49296115 -1.04555812
| 36> H   -0.83362206 0.50738098 -2.59402739
| 37> *
| 38>
| 39>                          ****END OF INPUT****

CARTESIAN COORDINATES (ANGSTROEM)
---------------------------------
  O      2.307119   -0.287274   -1.164430
  O     -0.194851    2.797981   -2.277240
  O      0.213686   -3.786324    0.776627
  O     -2.143193   -1.088196   -1.394822
  N      0.388345   -1.881452    1.995736
  N     -1.382714   -0.173378    0.524282
  N      1.066600   -1.930770   -0.230571
  N     -0.794632    0.715313   -1.611492
  C      1.350947    0.167295    0.959050
  C     -0.311655    2.683660   -0.102426
  C      0.583883   -0.468383    2.068610
  C     -0.373066    0.425300    1.305801
  C      2.269171    1.319876    1.224868
  C     -1.530828    3.368925    0.342124
  C      1.625234   -0.666154   -0.238945
  C     -0.447358    2.021961   -1.364287
  C      0.522192   -2.620880    0.850227
  C     -1.483512   -0.230751   -0.854279
  H      0.839162   -0.150222    3.073319
  H     -0.522247    1.404385    1.720635
  H      2.412066    1.907462    0.318428
  H      1.863594    1.961004    1.985879
  H      3.229405    0.945389    1.559141
  H     -2.444420    2.778564    0.250953
  H     -1.447221    3.804098    1.329354
  H     -1.632233    4.193248   -0.381408
  H     -0.036720   -2.369316    2.768677
  H     -1.851017   -0.967800    0.931552
  H      1.236231   -2.492961   -1.045558
  H     -0.833622    0.507381   -2.594027

 Total Charge           Charge          ....    0
 Multiplicity           Mult            ....    3
 Number of Electrons    NEL             ....  132
 Basis Dimension        Dim             ....  882

ORBITAL ENERGIES
----------------
                 SPIN UP ORBITALS
  NO   OCC          E(Eh)            E(eV)
   0   1.0000     -19.335702      -526.1512
   1   1.0000     -19.332335      -526.0596
   2   1.0000     -19.327082      -525.9166
   3   1.0000     -19.321905      -525.7758
   4   1.0000     -14.569982      -396.4694
   5   1.0000     -14.568731      -396.4353
   6   1.0000     -14.566702      -396.3801
   7   1.0000     -14.566672      -396.3793
   8   1.0000     -10.514248      -286.1072
   9   1.0000     -10.509236      -285.9709
  10   1.0000     -10.488295      -285.4010
  11   1.0000     -10.484048      -285.2854
  12   1.0000     -10.443651      -284.1862
  13   1.0000     -10.441257      -284.1210
  14   1.0000     -10.417678      -283.4794
  15   1.0000     -10.401546      -283.0405
  16   1.0000     -10.374316      -282.2995
  17   1.0000     -10.365692      -282.0648
  18   1.0000      -1.226278       -33.3687
  19   1.0000      -1.221414       -33.2364
  20   1.0000      -1.202705       -32.7273
  21   1.0000      -1.199301       -32.6346
  22   1.0000      -1.123805       -30.5803
  23   1.0000      -1.093169       -29.7466
  24   1.0000      -1.073944       -29.2235
  25   1.0000      -1.063899       -28.9502
  26   1.0000      -0.992888       -27.0179
  27   1.0000      -0.940501       -25.5923
  28   1.0000      -0.881946       -23.9990
  29   1.0000      -0.825480       -22.4625
  30   1.0000      -0.816070       -22.2064
  31   1.0000      -0.806879       -21.9563
  32   1.0000      -0.790920       -21.5220
  33   1.0000      -0.778833       -21.1931
  34   1.0000      -0.722390       -19.6572
  35   1.0000      -0.700125       -19.0514
  36   1.0000      -0.693673       -18.8758
  37   1.0000      -0.662439       -18.0259
  38   1.0000      -0.641643       -17.4600
  39   1.0000      -0.632967       -17.2239
  40   1.0000      -0.615035       -16.7360
  41   1.0000      -0.606253       -16.4970
  42   1.0000      -0.601022       -16.3546
  43   1.0000      -0.591061       -16.0836
  44   1.0000      -0.579836       -15.7781
  45   1.0000      -0.569966       -15.5096
  46   1.0000      -0.565141       -15.3783
  47   1.0000      -0.560802       -15.2602
  48   1.0000      -0.557899       -15.1812
  49   1.0000      -0.555286       -15.1101
  50   1.0000      -0.544757       -14.8236
  51   1.0000      -0.542855       -14.7718
  52   1.0000      -0.534065       -14.5326
  53   1.0000      -0.515383       -14.0243
  54   1.0000      -0.509450       -13.8628
  55   1.0000      -0.491994       -13.3878
  56   1.0000      -0.439166       -11.9503
  57   1.0000      -0.424869       -11.5613
  58   1.0000      -0.418630       -11.3915
  59   1.0000      -0.409412       -11.1407
  60   1.0000      -0.403815       -10.9884
  61   1.0000      -0.398682       -10.8487
  62   1.0000      -0.394383       -10.7317
  63   1.0000      -0.390406       -10.6235
  64   1.0000      -0.380706       -10.3595
  65   1.0000      -0.371339       -10.1046
  66   1.0000      -0.301003        -8.1907
  67   0.0000       0.009331         0.2539
  68   0.0000       0.024048         0.6544
  69   0.0000       0.031678         0.8620
  70   0.0000       0.035242         0.9590
  71   0.0000       0.041212         1.1214

                 SPIN DOWN ORBITALS
  NO   OCC          E(Eh)            E(eV)
   0   1.0000     -19.332252      -526.0573
   1   1.0000     -19.330258      -526.0031
   2   1.0000     -19.327083      -525.9167
   3   1.0000     -19.321901      -525.7757
   4   1.0000     -14.569909      -396.4674
   5   1.0000     -14.568750      -396.4358
   6   1.0000     -14.566663      -396.3790
   7   1.0000     -14.566561      -396.3763
   8   1.0000     -10.514276      -286.1080
   9   1.0000     -10.509239      -285.9709
  10   1.0000     -10.488325      -285.4018
  11   1.0000     -10.484556      -285.2993
  12   1.0000     -10.443373      -284.1786
  13   1.0000     -10.440924      -284.1120
  14   1.0000     -10.417227      -283.4672
  15   1.0000     -10.374620      -282.3078
  16   1.0000     -10.374072      -282.2929
  17   1.0000     -10.365572      -282.0615
  18   1.0000      -1.225551       -33.3489
  19   1.0000      -1.220705       -33.2171
  20   1.0000      -1.199249       -32.6332
  21   1.0000      -1.194781       -32.5117
  22   1.0000      -1.123481       -30.5715
  23   1.0000      -1.092341       -29.7241
  24   1.0000      -1.072747       -29.1909
  25   1.0000      -1.063460       -28.9382
  26   1.0000      -0.992068       -26.9955
  27   1.0000      -0.911900       -24.8141
  28   1.0000      -0.881324       -23.9820
  29   1.0000      -0.824154       -22.4264
  30   1.0000      -0.811871       -22.0921
  31   1.0000      -0.802685       -21.8422
  32   1.0000      -0.787155       -21.4196
  33   1.0000      -0.773535       -21.0490
  34   1.0000      -0.715375       -19.4664
  35   1.0000      -0.697551       -18.9813
  36   1.0000      -0.688830       -18.7440
  37   1.0000      -0.660341       -17.9688
  38   1.0000      -0.636817       -17.3287
  39   1.0000      -0.628640       -17.1062
  40   1.0000      -0.612097       -16.6560
  41   1.0000      -0.602584       -16.3971
  42   1.0000      -0.588751       -16.0207
  43   1.0000      -0.583035       -15.8652
  44   1.0000      -0.574716       -15.6388
  45   1.0000      -0.563279       -15.3276
  46   1.0000      -0.558369       -15.1940
  47   1.0000      -0.556301       -15.1377
  48   1.0000      -0.554990       -15.1021
  49   1.0000      -0.551834       -15.0162
  50   1.0000      -0.537392       -14.6232
  51   1.0000      -0.533834       -14.5264
  52   1.0000      -0.528797       -14.3893
  53   1.0000      -0.514904       -14.0113
  54   1.0000      -0.497619       -13.5409
  55   1.0000      -0.490853       -13.3568
  56   1.0000      -0.427014       -11.6196
  57   1.0000      -0.423046       -11.5117
  58   1.0000      -0.418101       -11.3771
  59   1.0000      -0.403466       -10.9789
  60   1.0000      -0.395395       -10.7593
  61   1.0000      -0.393405       -10.7051
  62   1.0000      -0.384399       -10.4600
  63   1.0000      -0.380126       -10.3437
  64   1.0000      -0.368114       -10.0169
  65   0.0000      -0.058999        -1.6054
  66   0.0000       0.008152         0.2218
  67   0.0000       0.017211         0.4683
  68   0.0000       0.031654         0.8613
  69   0.0000       0.033390         0.9086

----------------------------------------------------------------------------------------------------
          SPIN FLIP ABSORPTION SPECTRUM VIA TRANSITION ELECTRIC DIPOLE MOMENTS
----------------------------------------------------------------------------------------------------
     Transition      Energy     Energy  Wavelength fosc(D2)      D2        DX        DY        DZ
                      (eV)      (cm-1)    (nm)                 (au**2)    (au)      (au)      (au)
----------------------------------------------------------------------------------------------------
  1-3A  ->  2-3A    2.067179   16672.9   599.8   0.000382880   0.00756  -0.04226  -0.06288   0.04267

Dispersion correction             ... done (  0.1 sec)

MULLIKEN ATOMIC CHARGES AND SPIN DENSITIES
------------------------------------------
   0 O :   -0.660187    0.000258
   1 O :   -0.628722   -0.026768
   2 O :   -0.643722   -0.000031
   3 O :   -0.649313    0.000197
   4 N :   -0.206786   -0.000456
   5 N :   -0.124435   -0.000210
   6 N :    0.021734   -0.000407
   7 N :    0.050435   -0.010975
   8 C :    1.596040   -0.001744
   9 C :   -0.117349    0.111730
  10 C :    0.130684    0.003210
  11 C :   -0.963560   -0.147285
  12 C :   -1.642013    0.026957
  13 C :   -0.904188    0.201169
  14 C :    0.107104    0.011050
  15 C :    0.740382   -0.163608
  16 C :    0.442367    0.000506
  17 C :    0.504345    0.009599
  18 H :    0.290196   -0.000048
  19 H :    0.488916    0.051775
  20 H :    0.295300   -0.020901
  21 H :    0.320731   -0.014500
  22 H :    0.429175   -0.007470
  23 H :    0.294950   -0.013193
  24 H :    0.286810    0.002064
  25 H :    0.357612   -0.013264
  26 H :    0.040901   -0.000342
  27 H :    0.103244   -0.001447
  28 H :    0.027573   -0.000046
  29 H :    0.011777    0.004179
Sum of atomic charges       :    0.0000000

LOEWDIN ATOMIC CHARGES AND SPIN DENSITIES
-----------------------------------------
   0 O :    0.111142   -0.000224
   1 O :    0.096489   -0.031436
   2 O :    0.095522    0.000020
   3 O :    0.098035   -0.000635
   4 N :    0.283362   -0.000082
   5 N :    0.269157    0.000087
   6 N :    0.342127   -0.000133
   7 N :    0.341367    0.000420
   8 C :   -0.128163   -0.001145
   9 C :    0.155693    0.053890
  10 C :   -0.097695   -0.000094
  11 C :    0.006311   -0.001529
  12 C :    0.181929   -0.006613
  13 C :    0.105186    0.001489
  14 C :   -0.386433   -0.000171
  15 C :   -0.514997   -0.007843
  16 C :   -0.478187   -0.000011
  17 C :   -0.466970   -0.000281
  18 H :    0.058558    0.000017
  19 H :   -0.004364   -0.000658
  20 H :   -0.003737   -0.002778
  21 H :   -0.011071   -0.001260
  22 H :    0.003765   -0.000980
  23 H :    0.003260    0.000871
  24 H :   -0.016669   -0.000450
  25 H :    0.026327   -0.000470
  26 H :   -0.022039   -0.000007
  27 H :   -0.029109   -0.000048
  28 H :   -0.008255   -0.000010
  29 H :   -0.010542    0.000066

  Mayer bond orders larger than 0.100000
B(  0-O ,  8-C ) :  -0.1460 B(  0-O , 14-C ) :   1.5797 B(  1-O ,  9-C ) :   0.2797
B(  1-O , 15-C ) :   1.1921 B(  2-O , 16-C ) :   1.5752 B(  3-O , 17-C ) :   1.4958
B(  4-N ,  8-C ) :   0.1367 B(  4-N , 10-C ) :   0.5471 B(  4-N , 16-C ) :   1.0964
B(  4-N , 26-H ) :   1.1179 B(  5-N , 11-C ) :   0.6603 B(  5-N , 17-C ) :   0.9637
B(  5-N , 19-H ) :  -0.1452 B(  5-N , 27-H ) :   1.0301 B(  6-N , 10-C ) :   0.1363
B(  6-N , 14-C ) :   1.0606 B(  6-N , 16-C ) :   0.9406 B(  6-N , 28-H ) :   1.1130
B(  7-N , 15-C ) :   0.9391 B(  7-N , 17-C ) :   0.9614 B(  7-N , 29-H ) :   1.1302
B(  8-C , 10-C ) :   0.6205 B(  8-C , 11-C ) :   0.3322 B(  8-C , 14-C ) :   0.3560
B(  8-C , 18-H ) :  -0.1032 B(  8-C , 19-H ) :  -0.1210 B(  8-C , 20-H ) :  -0.1127
B(  8-C , 21-H ) :  -0.1265 B(  9-C , 12-C ) :  -0.1083 B(  9-C , 13-C ) :   0.4350
B(  9-C , 15-C ) :   0.6254 B( 10-C , 11-C ) :   0.8315 B( 10-C , 12-C ) :  -0.1390
B( 10-C , 14-C ) :  -0.1149 B( 10-C , 16-C ) :  -0.1117 B( 10-C , 18-H ) :   1.0735
B( 11-C , 14-C ) :   0.1205 B( 11-C , 17-C ) :  -0.1053 B( 11-C , 19-H ) :   0.9633
B( 12-C , 20-H ) :   1.0558 B( 12-C , 21-H ) :   1.0574 B( 12-C , 22-H ) :   0.7415
B( 13-C , 23-H ) :   0.9808 B( 13-C , 24-H ) :   1.0317 B( 13-C , 25-H ) :   0.8553

Dispersion correction           -0.057337896
FINAL SINGLE POINT ENERGY      -908.728075969178

DIPOLE MOMENT
-------------

Method             : TDA/CIS
Type of density    : Electron Density
Level              : Relaxed density
State              :   1
Multiplicity       :   3
Irrep              :   0
Energy             :     0.0000000000000000 Eh
Relativity type    :
Basis              : AO
                                X                 Y                 Z
Electronic contribution:     -0.408479837      -9.835201142      -6.474631822
Nuclear contribution   :     -0.142588183      10.753101050       9.028436518
                        -----------------------------------------
Total Dipole Moment    :     -0.551068020       0.917899908       2.553804696
                        -----------------------------------------
Magnitude (a.u.)       :      2.769139691
Magnitude (Debye)      :      7.038593729

Rotational constants in cm-1:             0.022686             0.012481             0.011356
Rotational constants in MHz :           680.118223           374.160160           340.449945

                             ****ORCA TERMINATED NORMALLY****
TOTAL RUN TIME: 0 days 0 hours 4 minutes 45 seconds 189 msec
