                         Program Version 6.0.0  -   RELEASE  -
|  1> ! EnGrad wB97M-D3BJ def2-TZVPPD
|  2> %pal nprocs 8 end%pal nprocs 16 end
|  3> %tddft
|  4>  sf true
|  5>  nroots 2 Iroot 1 end
|  6> *xyz 0 3
|  7> O   -0.07750600652458 0.7555969881213 -4.125397772e-05
|  8> C   0.78088379378008 -0.5013046829132 -1.49690402e-06
|  9> C   -0.74183729389539 -0.37450498235993 6.99623163e-06
| 10> H   1.29396651045885 -0.65101246397276 0.93450435390246
| 11> H   1.29398863267388 -0.6510582806944 -0.93448527950738
| 12> H   -1.27362666365739 -0.64810782388982 -0.91124713999066
| 13> H   -1.27366897283543 -0.64800875429119 0.91126382024568
| 14> *
| 15>
| 16>                          ****END OF INPUT****

CARTESIAN COORDINATES (ANGSTROEM)
---------------------------------
  O     -0.077506    0.755597   -0.000041
  C      0.780884   -0.501305   -0.000001
  C     -0.741837   -0.374505    0.000007
  H      1.293967   -0.651012    0.934504
  H      1.293989   -0.651058   -0.934485
  H     -1.273627   -0.648108   -0.911247
  H     -1.273669   -0.648009    0.911264

 Total Charge           Charge          ....    0
 Multiplicity           Mult            ....    3
 Number of Electrons    NEL             ....   24
 Basis Dimension        Dim             ....  182

ORBITAL ENERGIES
----------------
                 SPIN UP ORBITALS
  NO   OCC          E(Eh)            E(eV)
   0   1.0000     -19.474422      -529.9260
   1   1.0000     -10.427717      -283.7526
   2   1.0000     -10.375869      -282.3418
   3   1.0000      -1.321989       -35.9732
   4   1.0000      -0.843486       -22.9524
   5   1.0000      -0.798685       -21.7333
   6   1.0000      -0.699989       -19.0477
   7   1.0000      -0.657274       -17.8853
   8   1.0000      -0.594644       -16.1811
   9   1.0000      -0.512688       -13.9509
  10   1.0000      -0.499766       -13.5993
  11   1.0000      -0.443572       -12.0702
  12   1.0000      -0.136923        -3.7259
  13   0.0000       0.034692         0.9440
  14   0.0000       0.060579         1.6485
  15   0.0000       0.069388         1.8882
  16   0.0000       0.083955         2.2845
  17   0.0000       0.109978         2.9926

                 SPIN DOWN ORBITALS
  NO   OCC          E(Eh)            E(eV)
   0   1.0000     -19.443337      -529.0801
   1   1.0000     -10.427318      -283.7417
   2   1.0000     -10.368057      -282.1292
   3   1.0000      -1.261585       -34.3295
   4   1.0000      -0.810338       -22.0504
   5   1.0000      -0.776702       -21.1351
   6   1.0000      -0.637354       -17.3433
   7   1.0000      -0.627943       -17.0872
   8   1.0000      -0.553836       -15.0706
   9   1.0000      -0.495113       -13.4727
  10   1.0000      -0.413241       -11.2449
  11   0.0000      -0.127147        -3.4598
  12   0.0000       0.031307         0.8519
  13   0.0000       0.057412         1.5623
  14   0.0000       0.064127         1.7450
  15   0.0000       0.066002         1.7960

----------------------------------------------------------------------------------------------------
          SPIN FLIP ABSORPTION SPECTRUM VIA TRANSITION ELECTRIC DIPOLE MOMENTS
----------------------------------------------------------------------------------------------------
     Transition      Energy     Energy  Wavelength fosc(D2)      D2        DX        DY        DZ
                      (eV)      (cm-1)    (nm)                 (au**2)    (au)      (au)      (au)
----------------------------------------------------------------------------------------------------
  1-3A  ->  2-3A    6.690237   53960.4   185.3   0.003929998   0.02398  -0.00001   0.00001   0.15484

Dispersion correction             ... done (  0.0 sec)

MULLIKEN ATOMIC CHARGES AND SPIN DENSITIES
------------------------------------------
   0 O :   -0.368231    0.058052
   1 C :   -0.450487    0.012454
   2 C :   -0.122650   -0.072228
   3 H :    0.283589   -0.022552
   4 H :    0.283603   -0.022551
   5 H :    0.187079    0.023415
   6 H :    0.187097    0.023410
Sum of atomic charges       :   -0.0000000

LOEWDIN ATOMIC CHARGES AND SPIN DENSITIES
-----------------------------------------
   0 O :   -0.069578    0.032109
   1 C :    0.160479   -0.028460
   2 C :   -0.126150    0.001648
   3 H :    0.001247   -0.009016
   4 H :    0.001247   -0.009013
   5 H :    0.016378    0.006367
   6 H :    0.016378    0.006365

  Mayer bond orders larger than 0.100000
B(  0-O ,  1-C ) :   0.8971 B(  0-O ,  2-C ) :   0.8184 B(  1-C ,  2-C ) :   0.7242
B(  1-C ,  3-H ) :   0.9192 B(  1-C ,  4-H ) :   0.9192 B(  2-C ,  5-H ) :   1.0146
B(  2-C ,  6-H ) :   1.0146

Dispersion correction           -0.005188436
FINAL SINGLE POINT ENERGY      -153.863538026442

DIPOLE MOMENT
-------------

Method             : TDA/CIS
Type of density    : Electron Density
Level              : Relaxed density
State              :   1
Multiplicity       :   3
Irrep              :   0
Energy             :     0.0000000000000000 Eh
Relativity type    :
Basis              : AO
                                X                 Y                 Z
Electronic contribution:      0.084477587       1.224723739      -0.000041378
Nuclear contribution   :      0.099434456      -2.336625853       0.000080649
                        -----------------------------------------
Total Dipole Moment    :      0.183912044      -1.111902115       0.000039271
                        -----------------------------------------
Magnitude (a.u.)       :      1.127009296
Magnitude (Debye)      :      2.864629975

Rotational constants in cm-1:             0.934743             0.673984             0.465973
Rotational constants in MHz :         28022.877205         20205.522192         13969.521008

                             ****ORCA TERMINATED NORMALLY****
TOTAL RUN TIME: 0 days 0 hours 0 minutes 20 seconds 992 msec
