                         Program Version 6.0.0  -   RELEASE  -
|  1> ! Engrad def2-TZVPPD wB97M-D3BJ
|  2> %pal nprocs 8 end%pal nprocs 64 end
|  3> %tddft
|  4>  Iroot 2 Nroots 3
|  5> sf true
|  6> end
|  7> *xyz 0 3
|  8> O   0.18922918 0.348776 1.12329561
|  9> C   0.02323036 -0.30643322 -0.0221876
| 10> C   1.06318978 0.14411785 -0.98796851
| 11> H   -0.97767987 0.00901465 -0.36445359
| 12> H   -0.01474216 -1.3922923 0.23781502
| 13> H   1.68843494 -0.63608249 -1.45644237
| 14> H   1.3212304 1.20457993 -1.08140428
| 15> *
| 16>
| 17>                          ****END OF INPUT****

CARTESIAN COORDINATES (ANGSTROEM)
---------------------------------
  O      0.189229    0.348776    1.123296
  C      0.023230   -0.306433   -0.022188
  C      1.063190    0.144118   -0.987969
  H     -0.977680    0.009015   -0.364454
  H     -0.014742   -1.392292    0.237815
  H      1.688435   -0.636082   -1.456442
  H      1.321230    1.204580   -1.081404

 Total Charge           Charge          ....    0
 Multiplicity           Mult            ....    3
 Number of Electrons    NEL             ....   24
 Basis Dimension        Dim             ....  182

ORBITAL ENERGIES
----------------
                 SPIN UP ORBITALS
  NO   OCC          E(Eh)            E(eV)
   0   1.0000     -19.380669      -527.3748
   1   1.0000     -10.412700      -283.3440
   2   1.0000     -10.370618      -282.1989
   3   1.0000      -1.183904       -32.2157
   4   1.0000      -0.867258       -23.5993
   5   1.0000      -0.733575       -19.9616
   6   1.0000      -0.624575       -16.9955
   7   1.0000      -0.589266       -16.0347
   8   1.0000      -0.555103       -15.1051
   9   1.0000      -0.517180       -14.0732
  10   1.0000      -0.430942       -11.7265
  11   1.0000      -0.409434       -11.1413
  12   1.0000      -0.323414        -8.8005
  13   0.0000       0.042335         1.1520
  14   0.0000       0.060856         1.6560
  15   0.0000       0.076816         2.0903
  16   0.0000       0.087657         2.3853
  17   0.0000       0.114092         3.1046

                 SPIN DOWN ORBITALS
  NO   OCC          E(Eh)            E(eV)
   0   1.0000     -19.357057      -526.7323
   1   1.0000     -10.413946      -283.3779
   2   1.0000     -10.356937      -281.8266
   3   1.0000      -1.132860       -30.8267
   4   1.0000      -0.832238       -22.6464
   5   1.0000      -0.705589       -19.2000
   6   1.0000      -0.593512       -16.1503
   7   1.0000      -0.547689       -14.9034
   8   1.0000      -0.533054       -14.5051
   9   1.0000      -0.492500       -13.4016
  10   1.0000      -0.377309       -10.2671
  11   0.0000      -0.051171        -1.3924
  12   0.0000       0.001057         0.0288
  13   0.0000       0.041644         1.1332
  14   0.0000       0.061430         1.6716
  15   0.0000       0.076648         2.0857

----------------------------------------------------------------------------------------------------
          SPIN FLIP ABSORPTION SPECTRUM VIA TRANSITION ELECTRIC DIPOLE MOMENTS
----------------------------------------------------------------------------------------------------
     Transition      Energy     Energy  Wavelength fosc(D2)      D2        DX        DY        DZ
                      (eV)      (cm-1)    (nm)                 (au**2)    (au)      (au)      (au)
----------------------------------------------------------------------------------------------------
  1-3A  ->  2-3A    0.296214    2389.1  4185.6   0.000031332   0.00432  -0.02369   0.06048   0.00992
  1-3A  ->  3-3A    1.081401    8722.1  1146.5   0.002245560   0.08476  -0.06300  -0.13685  -0.24912

Dispersion correction             ... done (  0.1 sec)

MULLIKEN ATOMIC CHARGES AND SPIN DENSITIES
------------------------------------------
   0 O :   -0.341544    0.770677
   1 C :   -0.005193    0.077539
   2 C :   -0.282402   -0.728464
   3 H :    0.151985    0.010337
   4 H :    0.219253    0.017906
   5 H :    0.103639   -0.064056
   6 H :    0.154262   -0.083940
Sum of atomic charges       :    0.0000000

LOEWDIN ATOMIC CHARGES AND SPIN DENSITIES
-----------------------------------------
   0 O :    0.061305    0.718137
   1 C :   -0.302023    0.006993
   2 C :    0.277652   -0.616036
   3 H :    0.040757    0.029087
   4 H :    0.045202    0.016192
   5 H :   -0.065343   -0.079361
   6 H :   -0.057550   -0.075012

  Mayer bond orders larger than 0.100000
B(  0-O ,  1-C ) :   0.9021 B(  1-C ,  2-C ) :   0.8352 B(  1-C ,  3-H ) :   0.9354
B(  1-C ,  4-H ) :   0.9479 B(  2-C ,  5-H ) :   1.0558 B(  2-C ,  6-H ) :   1.0356

Dispersion correction           -0.005523411
FINAL SINGLE POINT ENERGY      -153.747410554132

DIPOLE MOMENT
-------------

Method             : TDA/CIS
Type of density    : Electron Density
Level              : Relaxed density
State              :   2
Multiplicity       :   3
Irrep              :   0
Energy             :     0.0000000000000000 Eh
Relativity type    :
Basis              : AO
                                X                 Y                 Z
Electronic contribution:     -0.527893334       0.649607171       2.270980669
Nuclear contribution   :      0.346540315      -0.999497367      -2.752779533
                        -----------------------------------------
Total Dipole Moment    :     -0.181353019      -0.349890196      -0.481798865
                        -----------------------------------------
Magnitude (a.u.)       :      0.622448562
Magnitude (Debye)      :      1.582138511

Rotational constants in cm-1:             1.358598             0.377509             0.324872
Rotational constants in MHz :         40729.732101         11317.435555          9739.412650

                             ****ORCA TERMINATED NORMALLY****
TOTAL RUN TIME: 0 days 0 hours 0 minutes 26 seconds 614 msec
