                         Program Version 6.0.0  -   RELEASE  -
|  1> ! EnGrad wB97M-D3BJ def2-TZVPPD
|  2> %pal nprocs 8 end%pal nprocs 16 end
|  3> %tddft
|  4>  sf true
|  5>  nroots 2 Iroot 2 end
|  6> *xyz 0 3
|  7> O   0.47024363503161 1.27765982877763 0.11599792313765
|  8> C   0.62000764904794 0.14960816454949 -0.29018127448423
|  9> C   -0.44057400969948 -0.81537280804701 0.19381603784097
| 10> H   0.00735772886541 -1.63486247108849 0.75921488326964
| 11> H   1.44488372805477 -0.15950464347431 -0.94884433358296
| 12> H   -0.96654867010912 -1.27255672493251 -0.64655137565643
| 13> H   -1.13317006119113 -0.2633713457848 0.81654813947537
| 14> *
| 15>
| 16>                          ****END OF INPUT****

CARTESIAN COORDINATES (ANGSTROEM)
---------------------------------
  O      0.470244    1.277660    0.115998
  C      0.620008    0.149608   -0.290181
  C     -0.440574   -0.815373    0.193816
  H      0.007358   -1.634862    0.759215
  H      1.444884   -0.159505   -0.948844
  H     -0.966549   -1.272557   -0.646551
  H     -1.133170   -0.263371    0.816548

 Total Charge           Charge          ....    0
 Multiplicity           Mult            ....    3
 Number of Electrons    NEL             ....   24
 Basis Dimension        Dim             ....  182

ORBITAL ENERGIES
----------------
                 SPIN UP ORBITALS
  NO   OCC          E(Eh)            E(eV)
   0   1.0000     -19.411087      -528.2025
   1   1.0000     -10.380831      -282.4768
   2   1.0000     -10.366345      -282.0826
   3   1.0000      -1.246901       -33.9299
   4   1.0000      -0.875800       -23.8317
   5   1.0000      -0.721296       -19.6275
   6   1.0000      -0.638911       -17.3857
   7   1.0000      -0.582212       -15.8428
   8   1.0000      -0.581988       -15.8367
   9   1.0000      -0.514237       -13.9931
  10   1.0000      -0.509993       -13.8776
  11   1.0000      -0.436326       -11.8730
  12   1.0000      -0.224759        -6.1160
  13   0.0000       0.042746         1.1632
  14   0.0000       0.060493         1.6461
  15   0.0000       0.079643         2.1672
  16   0.0000       0.088513         2.4086
  17   0.0000       0.108857         2.9621

                 SPIN DOWN ORBITALS
  NO   OCC          E(Eh)            E(eV)
   0   1.0000     -19.382984      -527.4378
   1   1.0000     -10.370420      -282.1935
   2   1.0000     -10.363925      -282.0167
   3   1.0000      -1.188125       -32.3305
   4   1.0000      -0.856022       -23.2935
   5   1.0000      -0.678193       -18.4546
   6   1.0000      -0.585312       -15.9271
   7   1.0000      -0.539836       -14.6897
   8   1.0000      -0.532463       -14.4891
   9   1.0000      -0.502376       -13.6703
  10   1.0000      -0.469359       -12.7719
  11   0.0000      -0.079130        -2.1532
  12   0.0000       0.042502         1.1566
  13   0.0000       0.060139         1.6365
  14   0.0000       0.080083         2.1792
  15   0.0000       0.081854         2.2274

----------------------------------------------------------------------------------------------------
          SPIN FLIP ABSORPTION SPECTRUM VIA TRANSITION ELECTRIC DIPOLE MOMENTS
----------------------------------------------------------------------------------------------------
     Transition      Energy     Energy  Wavelength fosc(D2)      D2        DX        DY        DZ
                      (eV)      (cm-1)    (nm)                 (au**2)    (au)      (au)      (au)
----------------------------------------------------------------------------------------------------
  1-3A  ->  2-3A    4.362508   35186.0   284.2   0.000000011   0.00000   0.00021  -0.00013  -0.00021

Dispersion correction             ... done (  0.0 sec)

MULLIKEN ATOMIC CHARGES AND SPIN DENSITIES
------------------------------------------
   0 O :   -0.242711    0.620941
   1 C :    0.190402   -0.650196
   2 C :   -0.678875    0.127142
   3 H :    0.190231   -0.040694
   4 H :    0.117489   -0.014408
   5 H :    0.191022   -0.041138
   6 H :    0.232441   -0.001647
Sum of atomic charges       :   -0.0000000

LOEWDIN ATOMIC CHARGES AND SPIN DENSITIES
-----------------------------------------
   0 O :    0.152193    0.432372
   1 C :   -0.240578   -0.383784
   2 C :    0.144088    0.005943
   3 H :   -0.016498   -0.012919
   4 H :   -0.007179   -0.031817
   5 H :   -0.016281   -0.012413
   6 H :   -0.015745    0.002617

  Mayer bond orders larger than 0.100000
B(  0-O ,  1-C ) :   1.2541 B(  1-C ,  2-C ) :   0.6760 B(  1-C ,  4-H ) :   1.0266
B(  2-C ,  3-H ) :   0.9940 B(  2-C ,  5-H ) :   0.9933 B(  2-C ,  6-H ) :   0.9533

Dispersion correction           -0.005555832
FINAL SINGLE POINT ENERGY      -153.757731790771

DIPOLE MOMENT
-------------

Method             : TDA/CIS
Type of density    : Electron Density
Level              : Relaxed density
State              :   2
Multiplicity       :   3
Irrep              :   0
Energy             :     0.0000000000000000 Eh
Relativity type    :
Basis              : AO
                                X                 Y                 Z
Electronic contribution:      1.240716033       3.349023761       0.026608374
Nuclear contribution   :     -1.372409315      -3.882718036      -0.074740091
                        -----------------------------------------
Total Dipole Moment    :     -0.131693282      -0.533694275      -0.048131716
                        -----------------------------------------
Magnitude (a.u.)       :      0.551805547
Magnitude (Debye)      :      1.402578237

Rotational constants in cm-1:             1.641330             0.371192             0.320456
Rotational constants in MHz :         49205.833680         11128.061935          9607.022983

                             ****ORCA TERMINATED NORMALLY****
TOTAL RUN TIME: 0 days 0 hours 0 minutes 16 seconds 327 msec
