                         Program Version 6.0.0  -   RELEASE  -
|  1> ! Engrad def2-TZVPPD wB97M-D3BJ
|  2> %pal nprocs 8 end%pal nprocs 64 end
|  3> %tddft
|  4>  Iroot 2 Nroots 3
|  5> sf true
|  6> end
|  7> *xyz 0 3
|  8> O   1.56997716 0.41919275 -0.01773147
|  9> C   0.18588983 0.48687379 0.05823451
| 10> C   -0.58139426 -0.78779334 0.1861724
| 11> H   -0.08735245 1.02201068 -0.87469277
| 12> H   0.06263832 1.2142078 0.89416915
| 13> H   -1.31829086 -0.89699947 0.93591686
| 14> H   -0.13050782 -1.69400579 -0.28414468
| 15> *
| 16>
| 17>                          ****END OF INPUT****

CARTESIAN COORDINATES (ANGSTROEM)
---------------------------------
  O      1.569977    0.419193   -0.017731
  C      0.185890    0.486874    0.058235
  C     -0.581394   -0.787793    0.186172
  H     -0.087352    1.022011   -0.874693
  H      0.062638    1.214208    0.894169
  H     -1.318291   -0.896999    0.935917
  H     -0.130508   -1.694006   -0.284145

 Total Charge           Charge          ....    0
 Multiplicity           Mult            ....    3
 Number of Electrons    NEL             ....   24
 Basis Dimension        Dim             ....  182

ORBITAL ENERGIES
----------------
                 SPIN UP ORBITALS
  NO   OCC          E(Eh)            E(eV)
   0   1.0000     -19.386568      -527.5353
   1   1.0000     -10.416048      -283.4351
   2   1.0000     -10.371057      -282.2108
   3   1.0000      -1.161537       -31.6070
   4   1.0000      -0.874744       -23.8030
   5   1.0000      -0.733954       -19.9719
   6   1.0000      -0.616602       -16.7786
   7   1.0000      -0.580878       -15.8065
   8   1.0000      -0.552015       -15.0211
   9   1.0000      -0.514693       -14.0055
  10   1.0000      -0.441530       -12.0146
  11   1.0000      -0.411561       -11.1991
  12   1.0000      -0.328002        -8.9254
  13   0.0000       0.041938         1.1412
  14   0.0000       0.060815         1.6549
  15   0.0000       0.078784         2.1438
  16   0.0000       0.086940         2.3658
  17   0.0000       0.111244         3.0271

                 SPIN DOWN ORBITALS
  NO   OCC          E(Eh)            E(eV)
   0   1.0000     -19.362717      -526.8863
   1   1.0000     -10.417272      -283.4684
   2   1.0000     -10.357894      -281.8526
   3   1.0000      -1.107666       -30.1411
   4   1.0000      -0.841728       -22.9046
   5   1.0000      -0.707004       -19.2386
   6   1.0000      -0.584456       -15.9039
   7   1.0000      -0.544259       -14.8100
   8   1.0000      -0.530487       -14.4353
   9   1.0000      -0.490669       -13.3518
  10   1.0000      -0.381899       -10.3920
  11   0.0000      -0.049586        -1.3493
  12   0.0000      -0.002858        -0.0778
  13   0.0000       0.040983         1.1152
  14   0.0000       0.061097         1.6625
  15   0.0000       0.078970         2.1489

----------------------------------------------------------------------------------------------------
          SPIN FLIP ABSORPTION SPECTRUM VIA TRANSITION ELECTRIC DIPOLE MOMENTS
----------------------------------------------------------------------------------------------------
     Transition      Energy     Energy  Wavelength fosc(D2)      D2        DX        DY        DZ
                      (eV)      (cm-1)    (nm)                 (au**2)    (au)      (au)      (au)
----------------------------------------------------------------------------------------------------
  1-3A  ->  2-3A    0.262818    2119.8  4717.5   0.000448907   0.06972   0.19949   0.15540  -0.07596
  1-3A  ->  3-3A    0.815081    6574.1  1521.1   0.006568068   0.32891   0.54589   0.16806  -0.05167

Dispersion correction             ... done (  0.1 sec)

MULLIKEN ATOMIC CHARGES AND SPIN DENSITIES
------------------------------------------
   0 O :   -0.335449   -0.331743
   1 C :    0.031926    0.029416
   2 C :   -0.559970    0.285534
   3 H :    0.179945    0.061009
   4 H :    0.215067   -0.045772
   5 H :    0.228563    0.003605
   6 H :    0.239918   -0.002049
Sum of atomic charges       :   -0.0000000

LOEWDIN ATOMIC CHARGES AND SPIN DENSITIES
-----------------------------------------
   0 O :    0.017671   -0.317398
   1 C :   -0.261545    0.007011
   2 C :    0.293604    0.254517
   3 H :    0.031299    0.043683
   4 H :    0.024661   -0.041639
   5 H :   -0.081092    0.031308
   6 H :   -0.024597    0.022517

  Mayer bond orders larger than 0.100000
B(  0-O ,  1-C ) :   0.8875 B(  0-O ,  2-C ) :   0.1226 B(  1-C ,  2-C ) :   0.7359
B(  1-C ,  3-H ) :   0.9540 B(  1-C ,  4-H ) :   0.9612 B(  2-C ,  5-H ) :   0.9763
B(  2-C ,  6-H ) :   0.9703

Dispersion correction           -0.005457217
FINAL SINGLE POINT ENERGY      -153.744486942381

DIPOLE MOMENT
-------------

Method             : TDA/CIS
Type of density    : Electron Density
Level              : Relaxed density
State              :   2
Multiplicity       :   3
Irrep              :   0
Energy             :     0.0000000000000000 Eh
Relativity type    :
Basis              : AO
                                X                 Y                 Z
Electronic contribution:      2.125984934       0.513361168      -0.266536128
Nuclear contribution   :     -2.974050852      -0.560529257       0.344827431
                        -----------------------------------------
Total Dipole Moment    :     -0.848065917      -0.047168089       0.078291303
                        -----------------------------------------
Magnitude (a.u.)       :      0.852977231
Magnitude (Debye)      :      2.168095820

Rotational constants in cm-1:             1.524256             0.332194             0.294389
Rotational constants in MHz :         45696.058287          9958.932574          8825.554225

                             ****ORCA TERMINATED NORMALLY****
TOTAL RUN TIME: 0 days 0 hours 0 minutes 26 seconds 539 msec
