                         Program Version 6.0.0  -   RELEASE  -
|  1> ! Engrad def2-TZVPPD wB97M-D3BJ
|  2> %pal nprocs 8 end%pal nprocs 64 end
|  3> %tddft
|  4>  Iroot 2 Nroots 3
|  5> sf true
|  6> end
|  7> *xyz 0 3
|  8> O   3.14163265 0.14941112 -1.74113404
|  9> O   -2.10680737 0.54461897 -1.89110167
| 10> O   -0.59422669 -2.36906013 -1.32522714
| 11> O   -2.93475808 -0.37131546 2.50155252
| 12> N   0.30821134 -1.53476542 0.56588066
| 13> N   -1.06982285 0.66053506 1.93902728
| 14> N   1.32528428 -1.18115624 -1.47756314
| 15> N   -2.45443512 -0.10962871 0.2945304
| 16> C   2.16391645 0.05555733 0.36964492
| 17> C   -0.43616994 1.20493845 -0.33692793
| 18> C   0.99515921 -0.37744158 1.10256668
| 19> C   0.02285214 0.92095519 1.04981167
| 20> C   3.03624576 1.08956348 1.00318901
| 21> C   0.21105022 2.08619012 -1.35155091
| 22> C   2.22278011 -0.17000779 -1.04184795
| 23> C   -1.70071964 0.4981945 -0.73401188
| 24> C   0.25963736 -1.75537868 -0.76970787
| 25> C   -2.2196024 0.01801131 1.63498458
| 26> H   1.24627028 -0.54759848 2.13747087
| 27> H   0.7297459 1.71139234 1.48776154
| 28> H   2.7987793 1.2772107 2.09002867
| 29> H   4.10814496 0.71072291 0.9625481
| 30> H   3.04871196 2.00207148 0.47420454
| 31> H   -0.44930321 2.9625913 -1.63635469
| 32> H   1.20363582 2.42137637 -0.93485782
| 33> H   0.46635041 1.65586894 -2.29591183
| 34> H   -0.56905646 -1.70630869 1.0863726
| 35> H   -0.89444256 0.79047148 2.89560218
| 36> H   1.39858868 -1.51524272 -2.40694664
| 37> H   -3.19846854 -0.7025605 -0.0314324
| 38> *
| 39>
| 40>                          ****END OF INPUT****

CARTESIAN COORDINATES (ANGSTROEM)
---------------------------------
  O      3.141633    0.149411   -1.741134
  O     -2.106807    0.544619   -1.891102
  O     -0.594227   -2.369060   -1.325227
  O     -2.934758   -0.371315    2.501553
  N      0.308211   -1.534765    0.565881
  N     -1.069823    0.660535    1.939027
  N      1.325284   -1.181156   -1.477563
  N     -2.454435   -0.109629    0.294530
  C      2.163916    0.055557    0.369645
  C     -0.436170    1.204938   -0.336928
  C      0.995159   -0.377442    1.102567
  C      0.022852    0.920955    1.049812
  C      3.036246    1.089563    1.003189
  C      0.211050    2.086190   -1.351551
  C      2.222780   -0.170008   -1.041848
  C     -1.700720    0.498194   -0.734012
  C      0.259637   -1.755379   -0.769708
  C     -2.219602    0.018011    1.634985
  H      1.246270   -0.547598    2.137471
  H      0.729746    1.711392    1.487762
  H      2.798779    1.277211    2.090029
  H      4.108145    0.710723    0.962548
  H      3.048712    2.002071    0.474205
  H     -0.449303    2.962591   -1.636355
  H      1.203636    2.421376   -0.934858
  H      0.466350    1.655869   -2.295912
  H     -0.569056   -1.706309    1.086373
  H     -0.894443    0.790471    2.895602
  H      1.398589   -1.515243   -2.406947
  H     -3.198469   -0.702561   -0.031432

 Total Charge           Charge          ....    0
 Multiplicity           Mult            ....    3
 Number of Electrons    NEL             ....  132
 Basis Dimension        Dim             ....  882

ORBITAL ENERGIES
----------------
                 SPIN UP ORBITALS
  NO   OCC          E(Eh)            E(eV)
   0   1.0000     -19.337549      -526.2015
   1   1.0000     -19.335311      -526.1406
   2   1.0000     -19.320196      -525.7293
   3   1.0000     -19.318311      -525.6780
   4   1.0000     -14.566461      -396.3736
   5   1.0000     -14.560154      -396.2019
   6   1.0000     -14.559434      -396.1823
   7   1.0000     -14.552989      -396.0070
   8   1.0000     -10.504512      -285.8423
   9   1.0000     -10.498508      -285.6789
  10   1.0000     -10.488155      -285.3972
  11   1.0000     -10.479643      -285.1656
  12   1.0000     -10.453622      -284.4575
  13   1.0000     -10.438151      -284.0365
  14   1.0000     -10.426720      -283.7255
  15   1.0000     -10.414622      -283.3963
  16   1.0000     -10.387544      -282.6594
  17   1.0000     -10.380485      -282.4674
  18   1.0000      -1.232946       -33.5502
  19   1.0000      -1.225731       -33.3538
  20   1.0000      -1.208588       -32.8874
  21   1.0000      -1.195299       -32.5257
  22   1.0000      -1.127997       -30.6943
  23   1.0000      -1.103174       -30.0189
  24   1.0000      -1.069454       -29.1013
  25   1.0000      -1.052604       -28.6428
  26   1.0000      -0.991044       -26.9677
  27   1.0000      -0.954286       -25.9674
  28   1.0000      -0.885027       -24.0828
  29   1.0000      -0.847737       -23.0681
  30   1.0000      -0.827004       -22.5039
  31   1.0000      -0.803653       -21.8685
  32   1.0000      -0.792430       -21.5631
  33   1.0000      -0.778017       -21.1709
  34   1.0000      -0.701481       -19.0883
  35   1.0000      -0.698188       -18.9987
  36   1.0000      -0.691452       -18.8154
  37   1.0000      -0.684854       -18.6358
  38   1.0000      -0.658380       -17.9154
  39   1.0000      -0.639402       -17.3990
  40   1.0000      -0.626090       -17.0368
  41   1.0000      -0.602694       -16.4001
  42   1.0000      -0.594475       -16.1765
  43   1.0000      -0.592735       -16.1291
  44   1.0000      -0.576879       -15.6977
  45   1.0000      -0.573076       -15.5942
  46   1.0000      -0.566855       -15.4249
  47   1.0000      -0.564892       -15.3715
  48   1.0000      -0.560948       -15.2642
  49   1.0000      -0.557778       -15.1779
  50   1.0000      -0.551710       -15.0128
  51   1.0000      -0.537974       -14.6390
  52   1.0000      -0.531983       -14.4760
  53   1.0000      -0.527755       -14.3609
  54   1.0000      -0.514149       -13.9907
  55   1.0000      -0.508971       -13.8498
  56   1.0000      -0.497049       -13.5254
  57   1.0000      -0.430277       -11.7084
  58   1.0000      -0.418964       -11.4006
  59   1.0000      -0.412575       -11.2267
  60   1.0000      -0.409571       -11.1450
  61   1.0000      -0.404079       -10.9956
  62   1.0000      -0.394086       -10.7236
  63   1.0000      -0.389723       -10.6049
  64   1.0000      -0.384562       -10.4645
  65   1.0000      -0.349694        -9.5157
  66   1.0000      -0.320306        -8.7160
  67   0.0000       0.008901         0.2422
  68   0.0000       0.031291         0.8515
  69   0.0000       0.034360         0.9350
  70   0.0000       0.035704         0.9716
  71   0.0000       0.054888         1.4936

                 SPIN DOWN ORBITALS
  NO   OCC          E(Eh)            E(eV)
   0   1.0000     -19.333538      -526.0923
   1   1.0000     -19.331345      -526.0326
   2   1.0000     -19.319982      -525.7234
   3   1.0000     -19.318282      -525.6772
   4   1.0000     -14.566169      -396.3656
   5   1.0000     -14.559531      -396.1850
   6   1.0000     -14.559380      -396.1809
   7   1.0000     -14.551918      -395.9778
   8   1.0000     -10.504553      -285.8434
   9   1.0000     -10.498576      -285.6808
  10   1.0000     -10.489288      -285.4281
  11   1.0000     -10.480482      -285.1884
  12   1.0000     -10.452720      -284.4330
  13   1.0000     -10.437370      -284.0153
  14   1.0000     -10.415239      -283.4131
  15   1.0000     -10.403507      -283.0938
  16   1.0000     -10.388075      -282.6739
  17   1.0000     -10.381082      -282.4836
  18   1.0000      -1.232083       -33.5267
  19   1.0000      -1.224033       -33.3076
  20   1.0000      -1.203952       -32.7612
  21   1.0000      -1.189839       -32.3772
  22   1.0000      -1.125074       -30.6148
  23   1.0000      -1.101130       -29.9633
  24   1.0000      -1.067806       -29.0565
  25   1.0000      -1.050518       -28.5861
  26   1.0000      -0.978003       -26.6128
  27   1.0000      -0.936441       -25.4819
  28   1.0000      -0.879076       -23.9209
  29   1.0000      -0.842625       -22.9290
  30   1.0000      -0.818583       -22.2748
  31   1.0000      -0.799635       -21.7592
  32   1.0000      -0.790145       -21.5009
  33   1.0000      -0.776159       -21.1204
  34   1.0000      -0.696249       -18.9459
  35   1.0000      -0.691757       -18.8237
  36   1.0000      -0.685095       -18.6424
  37   1.0000      -0.678215       -18.4552
  38   1.0000      -0.646911       -17.6034
  39   1.0000      -0.634952       -17.2779
  40   1.0000      -0.620432       -16.8828
  41   1.0000      -0.597119       -16.2484
  42   1.0000      -0.589098       -16.0302
  43   1.0000      -0.588138       -16.0040
  44   1.0000      -0.568793       -15.4777
  45   1.0000      -0.566825       -15.4241
  46   1.0000      -0.561290       -15.2735
  47   1.0000      -0.558865       -15.2075
  48   1.0000      -0.555013       -15.1027
  49   1.0000      -0.545682       -14.8488
  50   1.0000      -0.543122       -14.7791
  51   1.0000      -0.531573       -14.4648
  52   1.0000      -0.526421       -14.3246
  53   1.0000      -0.517737       -14.0883
  54   1.0000      -0.508162       -13.8278
  55   1.0000      -0.498812       -13.5734
  56   1.0000      -0.492829       -13.4106
  57   1.0000      -0.425950       -11.5907
  58   1.0000      -0.415757       -11.3133
  59   1.0000      -0.407968       -11.1014
  60   1.0000      -0.398144       -10.8341
  61   1.0000      -0.391828       -10.6622
  62   1.0000      -0.388111       -10.5610
  63   1.0000      -0.383924       -10.4471
  64   1.0000      -0.371428       -10.1071
  65   0.0000      -0.065900        -1.7932
  66   0.0000      -0.051051        -1.3892
  67   0.0000       0.008648         0.2353
  68   0.0000       0.031010         0.8438
  69   0.0000       0.034094         0.9277

----------------------------------------------------------------------------------------------------
          SPIN FLIP ABSORPTION SPECTRUM VIA TRANSITION ELECTRIC DIPOLE MOMENTS
----------------------------------------------------------------------------------------------------
     Transition      Energy     Energy  Wavelength fosc(D2)      D2        DX        DY        DZ
                      (eV)      (cm-1)    (nm)                 (au**2)    (au)      (au)      (au)
----------------------------------------------------------------------------------------------------
  1-3A  ->  2-3A    0.089984     725.8  13778.4   0.000040086   0.01818   0.13054  -0.01900  -0.02795
  1-3A  ->  3-1A    2.100935   16945.2   590.1   0.025973932   0.50462   0.57859  -0.32986   0.24708

Dispersion correction             ... done (  0.1 sec)

MULLIKEN ATOMIC CHARGES AND SPIN DENSITIES
------------------------------------------
   0 O :   -0.632663    0.062807
   1 O :   -0.658061   -0.062811
   2 O :   -0.601189   -0.000320
   3 O :   -0.644198    0.001915
   4 N :   -0.242558   -0.002390
   5 N :   -0.190182   -0.001728
   6 N :    0.080203   -0.003011
   7 N :    0.083804   -0.003268
   8 C :    0.285256    0.336314
   9 C :    0.553083    0.286711
  10 C :    0.341342   -0.037892
  11 C :    0.059514   -0.323218
  12 C :   -1.408809   -0.007566
  13 C :   -1.304342   -0.019481
  14 C :    0.164194   -0.020620
  15 C :    0.066656   -0.232578
  16 C :    0.354532   -0.003094
  17 C :    0.469215    0.017234
  18 H :    0.485199    0.009806
  19 H :    0.676192   -0.009551
  20 H :    0.354631    0.000982
  21 H :    0.368102    0.015057
  22 H :    0.277099    0.007172
  23 H :    0.368339   -0.003753
  24 H :    0.254463    0.000561
  25 H :    0.267765   -0.006541
  26 H :    0.177192   -0.002513
  27 H :   -0.019263    0.001203
  28 H :   -0.013536   -0.002118
  29 H :    0.028020    0.002692
Sum of atomic charges       :   -0.0000000

LOEWDIN ATOMIC CHARGES AND SPIN DENSITIES
-----------------------------------------
   0 O :    0.113562    0.054584
   1 O :    0.087677   -0.053890
   2 O :    0.119708   -0.000919
   3 O :    0.112446    0.001703
   4 N :    0.282608   -0.000097
   5 N :    0.283646    0.001420
   6 N :    0.352133    0.002197
   7 N :    0.334604   -0.007711
   8 C :   -0.066297    0.210229
   9 C :    0.005665   -0.199060
  10 C :   -0.111570    0.006046
  11 C :   -0.104583   -0.006094
  12 C :    0.175862    0.028672
  13 C :    0.181230   -0.032160
  14 C :   -0.441586    0.031914
  15 C :   -0.371878   -0.032668
  16 C :   -0.520755   -0.001749
  17 C :   -0.546997    0.000352
  18 H :    0.051203    0.000570
  19 H :    0.078864   -0.002545
  20 H :    0.026491   -0.000409
  21 H :    0.046504    0.010408
  22 H :   -0.034219    0.006179
  23 H :    0.045787   -0.011357
  24 H :    0.013686    0.000975
  25 H :   -0.012530   -0.006417
  26 H :   -0.010580    0.000016
  27 H :   -0.048873    0.000159
  28 H :   -0.035290    0.000280
  29 H :   -0.006518   -0.000628

  Mayer bond orders larger than 0.100000
B(  0-O , 14-C ) :   1.3921 B(  1-O , 15-C ) :   1.3909 B(  2-O , 16-C ) :   1.5225
B(  3-O , 17-C ) :   1.6038 B(  4-N ,  8-C ) :   0.1612 B(  4-N , 10-C ) :   0.4601
B(  4-N , 16-C ) :   1.0089 B(  4-N , 26-H ) :   0.9161 B(  5-N ,  9-C ) :   0.1099
B(  5-N , 10-C ) :   0.1282 B(  5-N , 11-C ) :   0.2467 B(  5-N , 17-C ) :   1.1248
B(  5-N , 27-H ) :   1.1611 B(  6-N , 10-C ) :   0.1373 B(  6-N , 14-C ) :   0.9557
B(  6-N , 16-C ) :   0.9272 B(  6-N , 28-H ) :   1.1253 B(  7-N , 11-C ) :   0.1017
B(  7-N , 15-C ) :   1.0293 B(  7-N , 17-C ) :   0.9225 B(  7-N , 29-H ) :   1.1166
B(  8-C , 10-C ) :   0.4438 B(  8-C , 11-C ) :   0.3238 B(  8-C , 12-C ) :   0.3985
B(  8-C , 14-C ) :   0.8530 B(  8-C , 18-H ) :  -0.2208 B(  8-C , 20-H ) :  -0.1247
B(  9-C , 10-C ) :   0.1246 B(  9-C , 11-C ) :   0.6567 B(  9-C , 13-C ) :   0.5120
B(  9-C , 15-C ) :   0.4357 B(  9-C , 19-H ) :  -0.1325 B( 10-C , 11-C ) :   0.3971
B( 10-C , 12-C ) :  -0.1330 B( 10-C , 18-H ) :   0.8854 B( 10-C , 19-H ) :  -0.1022
B( 11-C , 12-C ) :   0.1449 B( 11-C , 15-C ) :   0.2034 B( 11-C , 17-C ) :  -0.1569
B( 11-C , 19-H ) :   0.6152 B( 12-C , 20-H ) :   0.9733 B( 12-C , 21-H ) :   0.9454
B( 12-C , 22-H ) :   0.9462 B( 13-C , 23-H ) :   0.8633 B( 13-C , 24-H ) :   0.9452
B( 13-C , 25-H ) :   0.9769 B( 15-C , 16-C ) :   0.1274

Dispersion correction           -0.061876780
FINAL SINGLE POINT ENERGY      -908.775201004136

DIPOLE MOMENT
-------------

Method             : TDA/CIS
Type of density    : Electron Density
Level              : Relaxed density
State              :   2
Multiplicity       :   3
Irrep              :   0
Energy             :     0.0000000000000000 Eh
Relativity type    :
Basis              : AO
                                X                 Y                 Z
Electronic contribution:     -7.835180860      -7.630601947      -2.171198291
Nuclear contribution   :      9.307072340       8.954278898       3.823206032
                        -----------------------------------------
Total Dipole Moment    :      1.471891480       1.323676952       1.652007740
                        -----------------------------------------
Magnitude (a.u.)       :      2.578316268
Magnitude (Debye)      :      6.553559132

Rotational constants in cm-1:             0.022938             0.013330             0.012136
Rotational constants in MHz :           687.662572           399.628346           363.835500

                             ****ORCA TERMINATED NORMALLY****
TOTAL RUN TIME: 0 days 0 hours 5 minutes 1 seconds 253 msec
