                         Program Version 6.0.0  -   RELEASE  -
|  1> ! Engrad def2-TZVPPD wB97M-D3BJ
|  2> %pal nprocs 8 end%pal nprocs 64 end
|  3> %tddft Nroots 2 Iroot 2
|  4> sf true
|  5> end
|  6> *xyz 0 3
|  7> O   2.60404722 1.15505994 -0.51695747
|  8> O   -0.58391005 0.87187548 -2.28215811
|  9> O   0.64160428 -2.8283577 -1.50807198
| 10> O   -2.53786237 -1.63486837 0.97519183
| 11> N   0.60386163 -2.0916403 0.64530644
| 12> N   -2.00031329 0.53384376 1.42690825
| 13> N   1.70310002 -0.87238295 -0.97062383
| 14> N   -1.62807946 -0.33197883 -0.66144072
| 15> C   1.42103562 0.08319842 1.22211208
| 16> C   -0.82637556 1.89017795 -0.15901958
| 17> C   0.77562794 -1.06187709 1.54194381
| 18> C   -1.3825957 1.70197984 1.07719486
| 19> C   1.67092968 1.18478165 2.1981838
| 20> C   -0.12906071 3.13551359 -0.56642189
| 21> C   1.96005067 0.20469405 -0.12302487
| 22> C   -0.98636073 0.81398153 -1.13058399
| 23> C   0.95962288 -1.99746121 -0.67997565
| 24> C   -2.09724033 -0.56455767 0.61021857
| 25> H   0.40069032 -1.21544323 2.51663458
| 26> H   -1.36894737 2.4933921 1.82828227
| 27> H   1.38964061 2.13069134 1.78048241
| 28> H   1.13205994 1.02726629 3.11877515
| 29> H   2.74795543 1.25347385 2.41806138
| 30> H   -0.59440696 3.57361636 -1.43967879
| 31> H   -0.17286709 3.88132646 0.23104324
| 32> H   0.90106785 2.92625143 -0.81305377
| 33> H   -0.03710414 -2.82736733 0.86881092
| 34> H   -2.37505742 0.40261639 2.35116293
| 35> H   1.96076159 -0.75153348 -1.94346674
| 36> H   -1.69896707 -1.10630917 -1.29968399
| 37> *
| 38>
| 39>                          ****END OF INPUT****

CARTESIAN COORDINATES (ANGSTROEM)
---------------------------------
  O      2.604047    1.155060   -0.516957
  O     -0.583910    0.871875   -2.282158
  O      0.641604   -2.828358   -1.508072
  O     -2.537862   -1.634868    0.975192
  N      0.603862   -2.091640    0.645306
  N     -2.000313    0.533844    1.426908
  N      1.703100   -0.872383   -0.970624
  N     -1.628079   -0.331979   -0.661441
  C      1.421036    0.083198    1.222112
  C     -0.826376    1.890178   -0.159020
  C      0.775628   -1.061877    1.541944
  C     -1.382596    1.701980    1.077195
  C      1.670930    1.184782    2.198184
  C     -0.129061    3.135514   -0.566422
  C      1.960051    0.204694   -0.123025
  C     -0.986361    0.813982   -1.130584
  C      0.959623   -1.997461   -0.679976
  C     -2.097240   -0.564558    0.610219
  H      0.400690   -1.215443    2.516635
  H     -1.368947    2.493392    1.828282
  H      1.389641    2.130691    1.780482
  H      1.132060    1.027266    3.118775
  H      2.747955    1.253474    2.418061
  H     -0.594407    3.573616   -1.439679
  H     -0.172867    3.881326    0.231043
  H      0.901068    2.926251   -0.813054
  H     -0.037104   -2.827367    0.868811
  H     -2.375057    0.402616    2.351163
  H      1.960762   -0.751533   -1.943467
  H     -1.698967   -1.106309   -1.299684

 Total Charge           Charge          ....    0
 Multiplicity           Mult            ....    3
 Number of Electrons    NEL             ....  132
 Basis Dimension        Dim             ....  882

ORBITAL ENERGIES
----------------
                 SPIN UP ORBITALS
  NO   OCC          E(Eh)            E(eV)
   0   1.0000     -19.340440      -526.2801
   1   1.0000     -19.322160      -525.7827
   2   1.0000     -19.318945      -525.6952
   3   1.0000     -19.318241      -525.6761
   4   1.0000     -14.598608      -397.2483
   5   1.0000     -14.576645      -396.6507
   6   1.0000     -14.563515      -396.2934
   7   1.0000     -14.557482      -396.1292
   8   1.0000     -10.517875      -286.2059
   9   1.0000     -10.506134      -285.8864
  10   1.0000     -10.474683      -285.0306
  11   1.0000     -10.461810      -284.6803
  12   1.0000     -10.430465      -283.8274
  13   1.0000     -10.410840      -283.2934
  14   1.0000     -10.406358      -283.1714
  15   1.0000     -10.379958      -282.4530
  16   1.0000     -10.360638      -281.9273
  17   1.0000     -10.359836      -281.9055
  18   1.0000      -1.233882       -33.5756
  19   1.0000      -1.217298       -33.1244
  20   1.0000      -1.189804       -32.3762
  21   1.0000      -1.187671       -32.3182
  22   1.0000      -1.132441       -30.8153
  23   1.0000      -1.116239       -30.3744
  24   1.0000      -1.068011       -29.0620
  25   1.0000      -1.062923       -28.9236
  26   1.0000      -0.974683       -26.5225
  27   1.0000      -0.955780       -26.0081
  28   1.0000      -0.858456       -23.3598
  29   1.0000      -0.849567       -23.1179
  30   1.0000      -0.815644       -22.1948
  31   1.0000      -0.809319       -22.0227
  32   1.0000      -0.795675       -21.6514
  33   1.0000      -0.787364       -21.4253
  34   1.0000      -0.705186       -19.1891
  35   1.0000      -0.696199       -18.9445
  36   1.0000      -0.691177       -18.8079
  37   1.0000      -0.689509       -18.7625
  38   1.0000      -0.645476       -17.5643
  39   1.0000      -0.637563       -17.3490
  40   1.0000      -0.636072       -17.3084
  41   1.0000      -0.600160       -16.3312
  42   1.0000      -0.598079       -16.2746
  43   1.0000      -0.592808       -16.1311
  44   1.0000      -0.577269       -15.7083
  45   1.0000      -0.574881       -15.6433
  46   1.0000      -0.559320       -15.2199
  47   1.0000      -0.550574       -14.9819
  48   1.0000      -0.549558       -14.9542
  49   1.0000      -0.548360       -14.9216
  50   1.0000      -0.532701       -14.4955
  51   1.0000      -0.526052       -14.3146
  52   1.0000      -0.520101       -14.1527
  53   1.0000      -0.515714       -14.0333
  54   1.0000      -0.506694       -13.7879
  55   1.0000      -0.503161       -13.6917
  56   1.0000      -0.498223       -13.5573
  57   1.0000      -0.471821       -12.8389
  58   1.0000      -0.427950       -11.6451
  59   1.0000      -0.412499       -11.2247
  60   1.0000      -0.410572       -11.1722
  61   1.0000      -0.395172       -10.7532
  62   1.0000      -0.389678       -10.6037
  63   1.0000      -0.388534       -10.5726
  64   1.0000      -0.382208       -10.4004
  65   1.0000      -0.343329        -9.3424
  66   1.0000      -0.217234        -5.9112
  67   0.0000       0.011333         0.3084
  68   0.0000       0.019789         0.5385
  69   0.0000       0.033294         0.9060
  70   0.0000       0.039214         1.0671
  71   0.0000       0.040764         1.1093

                 SPIN DOWN ORBITALS
  NO   OCC          E(Eh)            E(eV)
   0   1.0000     -19.338608      -526.2303
   1   1.0000     -19.318948      -525.6953
   2   1.0000     -19.318204      -525.6750
   3   1.0000     -19.315808      -525.6099
   4   1.0000     -14.594380      -397.1333
   5   1.0000     -14.576507      -396.6469
   6   1.0000     -14.563527      -396.2937
   7   1.0000     -14.556509      -396.1028
   8   1.0000     -10.518115      -286.2125
   9   1.0000     -10.506140      -285.8866
  10   1.0000     -10.474672      -285.0303
  11   1.0000     -10.461622      -284.6752
  12   1.0000     -10.430214      -283.8206
  13   1.0000     -10.401304      -283.0339
  14   1.0000     -10.395617      -282.8791
  15   1.0000     -10.380020      -282.4547
  16   1.0000     -10.361036      -281.9381
  17   1.0000     -10.359729      -281.9026
  18   1.0000      -1.229868       -33.4664
  19   1.0000      -1.217155       -33.1205
  20   1.0000      -1.188128       -32.3306
  21   1.0000      -1.180037       -32.1104
  22   1.0000      -1.122293       -30.5391
  23   1.0000      -1.115987       -30.3676
  24   1.0000      -1.063120       -28.9290
  25   1.0000      -1.062407       -28.9096
  26   1.0000      -0.957285       -26.0490
  27   1.0000      -0.948673       -25.8147
  28   1.0000      -0.849384       -23.1129
  29   1.0000      -0.846542       -23.0356
  30   1.0000      -0.810001       -22.0412
  31   1.0000      -0.804627       -21.8950
  32   1.0000      -0.788976       -21.4691
  33   1.0000      -0.787147       -21.4194
  34   1.0000      -0.693960       -18.8836
  35   1.0000      -0.691155       -18.8073
  36   1.0000      -0.689498       -18.7622
  37   1.0000      -0.687091       -18.6967
  38   1.0000      -0.638659       -17.3788
  39   1.0000      -0.633552       -17.2398
  40   1.0000      -0.628954       -17.1147
  41   1.0000      -0.594394       -16.1743
  42   1.0000      -0.590646       -16.0723
  43   1.0000      -0.589808       -16.0495
  44   1.0000      -0.567901       -15.4534
  45   1.0000      -0.563093       -15.3225
  46   1.0000      -0.558379       -15.1943
  47   1.0000      -0.549664       -14.9571
  48   1.0000      -0.542174       -14.7533
  49   1.0000      -0.537041       -14.6136
  50   1.0000      -0.523585       -14.2475
  51   1.0000      -0.519927       -14.1479
  52   1.0000      -0.515915       -14.0388
  53   1.0000      -0.506679       -13.7874
  54   1.0000      -0.504721       -13.7342
  55   1.0000      -0.498257       -13.5583
  56   1.0000      -0.470680       -12.8078
  57   1.0000      -0.456575       -12.4240
  58   1.0000      -0.423941       -11.5360
  59   1.0000      -0.411093       -11.1864
  60   1.0000      -0.395848       -10.7716
  61   1.0000      -0.386260       -10.5107
  62   1.0000      -0.382669       -10.4130
  63   1.0000      -0.380483       -10.3535
  64   1.0000      -0.342345        -9.3157
  65   0.0000      -0.105362        -2.8670
  66   0.0000       0.011008         0.2995
  67   0.0000       0.022042         0.5998
  68   0.0000       0.031255         0.8505
  69   0.0000       0.037177         1.0116

----------------------------------------------------------------------------------------------------
          SPIN FLIP ABSORPTION SPECTRUM VIA TRANSITION ELECTRIC DIPOLE MOMENTS
----------------------------------------------------------------------------------------------------
     Transition      Energy     Energy  Wavelength fosc(D2)      D2        DX        DY        DZ
                      (eV)      (cm-1)    (nm)                 (au**2)    (au)      (au)      (au)
----------------------------------------------------------------------------------------------------
  1-3A  ->  2-3A    4.001230   32272.1   309.9   0.001198227   0.01222   0.02867  -0.04887  -0.09494

Dispersion correction             ... done (  0.1 sec)

MULLIKEN ATOMIC CHARGES AND SPIN DENSITIES
------------------------------------------
   0 O :   -0.688527   -0.001668
   1 O :   -0.690160    0.009876
   2 O :   -0.653666   -0.000022
   3 O :   -0.646651    0.001288
   4 N :   -0.057439   -0.000330
   5 N :    0.085969    0.022925
   6 N :    0.042103   -0.003483
   7 N :    0.006980   -0.009241
   8 C :    0.848861   -0.038034
   9 C :    1.024752    0.050106
  10 C :    0.020112    0.004217
  11 C :   -0.331644    0.083884
  12 C :   -1.442362    0.013323
  13 C :   -1.372698   -0.026492
  14 C :    0.281639    0.020530
  15 C :    0.351281   -0.145039
  16 C :    0.377430    0.000866
  17 C :    0.459095   -0.008037
  18 H :    0.203003   -0.000025
  19 H :    0.125936    0.000753
  20 H :    0.245508    0.002692
  21 H :    0.330013   -0.003466
  22 H :    0.367394   -0.002276
  23 H :    0.370328    0.008443
  24 H :    0.337248   -0.001940
  25 H :    0.252387    0.018059
  26 H :    0.058270    0.000536
  27 H :    0.035129    0.000833
  28 H :    0.043726   -0.000290
  29 H :    0.015986    0.002015
Sum of atomic charges       :    0.0000000

LOEWDIN ATOMIC CHARGES AND SPIN DENSITIES
-----------------------------------------
   0 O :    0.085432   -0.000678
   1 O :    0.076408    0.007609
   2 O :    0.082468    0.000046
   3 O :    0.094750    0.000571
   4 N :    0.284018   -0.000279
   5 N :    0.299043    0.016764
   6 N :    0.343818   -0.000128
   7 N :    0.322958   -0.006366
   8 C :   -0.135433   -0.000501
   9 C :   -0.092806    0.006662
  10 C :    0.062433   -0.000314
  11 C :    0.008303   -0.010314
  12 C :    0.177003   -0.000843
  13 C :    0.213326    0.001796
  14 C :   -0.404947   -0.000179
  15 C :   -0.424371   -0.006833
  16 C :   -0.478556   -0.000050
  17 C :   -0.483820   -0.003281
  18 H :    0.022655    0.000029
  19 H :    0.011673   -0.005861
  20 H :   -0.029771   -0.000092
  21 H :   -0.010985   -0.000241
  22 H :    0.015402   -0.000182
  23 H :    0.010968    0.000855
  24 H :    0.002865   -0.000275
  25 H :   -0.008441    0.000994
  26 H :   -0.026159   -0.000023
  27 H :   -0.005746    0.001885
  28 H :    0.003801   -0.000051
  29 H :   -0.016286   -0.000720

  Mayer bond orders larger than 0.100000
B(  0-O , 14-C ) :   1.4399 B(  1-O , 15-C ) :   1.2306 B(  2-O , 16-C ) :   1.5582
B(  3-O , 17-C ) :   1.5372 B(  4-N , 10-C ) :   0.8398 B(  4-N , 16-C ) :   1.0029
B(  4-N , 26-H ) :   1.1162 B(  5-N , 11-C ) :   0.9332 B(  5-N , 17-C ) :   0.9924
B(  5-N , 27-H ) :   1.1029 B(  6-N , 14-C ) :   1.0436 B(  6-N , 16-C ) :   0.9219
B(  6-N , 28-H ) :   1.0904 B(  7-N , 15-C ) :   0.8643 B(  7-N , 17-C ) :   0.9295
B(  7-N , 29-H ) :   1.1390 B(  8-C , 10-C ) :   1.0640 B(  8-C , 12-C ) :   0.3646
B(  8-C , 14-C ) :   0.7209 B(  9-C , 11-C ) :   0.4984 B(  9-C , 13-C ) :   0.4017
B(  9-C , 15-C ) :   0.9099 B(  9-C , 19-H ) :  -0.1263 B(  9-C , 24-H ) :  -0.1175
B( 10-C , 12-C ) :  -0.1340 B( 10-C , 18-H ) :   1.1144 B( 11-C , 13-C ) :  -0.1558
B( 11-C , 19-H ) :   1.1826 B( 12-C , 20-H ) :   1.0030 B( 12-C , 21-H ) :   1.0133
B( 12-C , 22-H ) :   0.8915 B( 13-C , 23-H ) :   0.8654 B( 13-C , 24-H ) :   1.0247
B( 13-C , 25-H ) :   0.9387

Dispersion correction           -0.060181714
FINAL SINGLE POINT ENERGY      -908.776366432758

DIPOLE MOMENT
-------------

Method             : TDA/CIS
Type of density    : Electron Density
Level              : Relaxed density
State              :   2
Multiplicity       :   3
Irrep              :   0
Energy             :     0.0000000000000000 Eh
Relativity type    :
Basis              : AO
                                X                 Y                 Z
Electronic contribution:     -2.630401212     -10.099573480      -5.925779835
Nuclear contribution   :      2.040192994      11.054764502       8.504690252
                        -----------------------------------------
Total Dipole Moment    :     -0.590208218       0.955191022       2.578910417
                        -----------------------------------------
Magnitude (a.u.)       :      2.812741468
Magnitude (Debye)      :      7.149420638

Rotational constants in cm-1:             0.017273             0.016541             0.013520
Rotational constants in MHz :           517.825191           495.877086           405.329573

                             ****ORCA TERMINATED NORMALLY****
TOTAL RUN TIME: 0 days 0 hours 5 minutes 41 seconds 752 msec
