                         Program Version 6.0.0  -   RELEASE  -
|  1> ! Engrad def2-TZVPPD wB97M-D3BJ
|  2> %pal nprocs 8 end%pal nprocs 32 end
|  3> %tddft Nroots 2 Iroot 2
|  4> sf true
|  5> end
|  6> *xyz 0 3
|  7> O   0.50907493 1.33881805 0.07586773
|  8> C   0.57769415 0.1649308 -0.28866573
|  9> C   -0.43319135 -0.82376291 0.21111111
| 10> H   0.07627179 -1.64552929 0.73201041
| 11> H   1.36436292 -0.15514477 -0.95965074
| 12> H   -0.96246151 -1.26415178 -0.63360316
| 13> H   -1.13389317 -0.33188164 0.86448172
| 14> *
| 15>
| 16>                          ****END OF INPUT****

CARTESIAN COORDINATES (ANGSTROEM)
---------------------------------
  O      0.509075    1.338818    0.075868
  C      0.577694    0.164931   -0.288666
  C     -0.433191   -0.823763    0.211111
  H      0.076272   -1.645529    0.732010
  H      1.364363   -0.155145   -0.959651
  H     -0.962462   -1.264152   -0.633603
  H     -1.133893   -0.331882    0.864482

 Total Charge           Charge          ....    0
 Multiplicity           Mult            ....    3
 Number of Electrons    NEL             ....   24
 Basis Dimension        Dim             ....  182

ORBITAL ENERGIES
----------------
                 SPIN UP ORBITALS
  NO   OCC          E(Eh)            E(eV)
   0   1.0000     -19.414195      -528.2871
   1   1.0000     -10.380263      -282.4613
   2   1.0000     -10.364586      -282.0347
   3   1.0000      -1.236026       -33.6340
   4   1.0000      -0.880213       -23.9518
   5   1.0000      -0.722743       -19.6668
   6   1.0000      -0.634127       -17.2555
   7   1.0000      -0.581795       -15.8315
   8   1.0000      -0.577448       -15.7132
   9   1.0000      -0.514296       -13.9947
  10   1.0000      -0.510425       -13.8894
  11   1.0000      -0.442077       -12.0295
  12   1.0000      -0.229186        -6.2365
  13   0.0000       0.041861         1.1391
  14   0.0000       0.060601         1.6490
  15   0.0000       0.079560         2.1649
  16   0.0000       0.088624         2.4116
  17   0.0000       0.108446         2.9510

                 SPIN DOWN ORBITALS
  NO   OCC          E(Eh)            E(eV)
   0   1.0000     -19.385908      -527.5174
   1   1.0000     -10.369540      -282.1695
   2   1.0000     -10.362648      -281.9820
   3   1.0000      -1.175238       -31.9798
   4   1.0000      -0.861007       -23.4292
   5   1.0000      -0.680118       -18.5070
   6   1.0000      -0.584325       -15.9003
   7   1.0000      -0.537870       -14.6362
   8   1.0000      -0.530471       -14.4349
   9   1.0000      -0.501833       -13.6556
  10   1.0000      -0.466406       -12.6916
  11   0.0000      -0.080359        -2.1867
  12   0.0000       0.041949         1.1415
  13   0.0000       0.060489         1.6460
  14   0.0000       0.079675         2.1681
  15   0.0000       0.080380         2.1873

----------------------------------------------------------------------------------------------------
          SPIN FLIP ABSORPTION SPECTRUM VIA TRANSITION ELECTRIC DIPOLE MOMENTS
----------------------------------------------------------------------------------------------------
     Transition      Energy     Energy  Wavelength fosc(D2)      D2        DX        DY        DZ
                      (eV)      (cm-1)    (nm)                 (au**2)    (au)      (au)      (au)
----------------------------------------------------------------------------------------------------
  1-3A  ->  2-3A    4.296931   34657.1   288.5   0.000009663   0.00009   0.00668   0.00023   0.00686

Dispersion correction             ... done (  0.1 sec)

MULLIKEN ATOMIC CHARGES AND SPIN DENSITIES
------------------------------------------
   0 O :   -0.253282    0.656276
   1 C :    0.221883   -0.631136
   2 C :   -0.713999    0.099262
   3 H :    0.197370   -0.042390
   4 H :    0.110074   -0.034034
   5 H :    0.197408   -0.044748
   6 H :    0.240546   -0.003229
Sum of atomic charges       :   -0.0000000

LOEWDIN ATOMIC CHARGES AND SPIN DENSITIES
-----------------------------------------
   0 O :    0.149822    0.465028
   1 C :   -0.220255   -0.387498
   2 C :    0.136676   -0.015156
   3 H :   -0.010769   -0.017736
   4 H :   -0.018592   -0.030518
   5 H :   -0.018301   -0.017367
   6 H :   -0.018580    0.003246

  Mayer bond orders larger than 0.100000
B(  0-O ,  1-C ) :   1.2002 B(  1-C ,  2-C ) :   0.6807 B(  1-C ,  4-H ) :   1.0254
B(  2-C ,  3-H ) :   0.9957 B(  2-C ,  5-H ) :   0.9997 B(  2-C ,  6-H ) :   0.9487

Dispersion correction           -0.005541011
FINAL SINGLE POINT ENERGY      -153.762619824530

DIPOLE MOMENT
-------------

Method             : TDA/CIS
Type of density    : Electron Density
Level              : Relaxed density
State              :   2
Multiplicity       :   3
Irrep              :   0
Energy             :     0.0000000000000000 Eh
Relativity type    :
Basis              : AO
                                X                 Y                 Z
Electronic contribution:      1.256694745       3.476442695      -0.019289232
Nuclear contribution   :     -1.396107969      -4.029196594      -0.020261855
                        -----------------------------------------
Total Dipole Moment    :     -0.139413224      -0.552753899      -0.039551087
                        -----------------------------------------
Magnitude (a.u.)       :      0.571434343
Magnitude (Debye)      :      1.452470671

Rotational constants in cm-1:             1.774233             0.349586             0.308695
Rotational constants in MHz :         53190.157666         10480.331655          9254.435293

                             ****ORCA TERMINATED NORMALLY****
TOTAL RUN TIME: 0 days 0 hours 0 minutes 15 seconds 695 msec
