                         Program Version 6.0.0  -   RELEASE  -
|  1> ! Engrad wB97M-D3BJ def2-TZVPPD
|  2> %pal nprocs 8 end%pal nprocs 16 end
|  3> %tddft nroots 2 Iroot 1
|  4>  sf true
|  5> end
|  6> *xyz 0 3
|  7> O   1.79648419137197 0.85537017349675 0.06911639374498
|  8> C   0.99217519835963 -0.02933185085873 0.17010141306185
|  9> C   -0.30399180004927 -0.66817344908579 -0.25374723914696
| 10> H   1.32260143198452 -0.77393503434131 0.953851318346
| 11> H   -0.03348912896476 -1.67317103817041 -0.57156569375949
| 12> H   -0.89109667489498 -0.17488914112839 -1.0279057189498
| 13> H   -0.88800826721303 -0.75723724914174 0.66014952670341
| 14> *
| 15>
| 16>                          ****END OF INPUT****

CARTESIAN COORDINATES (ANGSTROEM)
---------------------------------
  O      1.796484    0.855370    0.069116
  C      0.992175   -0.029332    0.170101
  C     -0.303992   -0.668173   -0.253747
  H      1.322601   -0.773935    0.953851
  H     -0.033489   -1.673171   -0.571566
  H     -0.891097   -0.174889   -1.027906
  H     -0.888008   -0.757237    0.660150

 Total Charge           Charge          ....    0
 Multiplicity           Mult            ....    3
 Number of Electrons    NEL             ....   24
 Basis Dimension        Dim             ....  182

ORBITAL ENERGIES
----------------
                 SPIN UP ORBITALS
  NO   OCC          E(Eh)            E(eV)
   0   1.0000     -19.400877      -527.9247
   1   1.0000     -10.384424      -282.5745
   2   1.0000     -10.376575      -282.3610
   3   1.0000      -1.237232       -33.6668
   4   1.0000      -0.894403       -24.3379
   5   1.0000      -0.713479       -19.4147
   6   1.0000      -0.623252       -16.9595
   7   1.0000      -0.588645       -16.0178
   8   1.0000      -0.578768       -15.7491
   9   1.0000      -0.519672       -14.1410
  10   1.0000      -0.519177       -14.1275
  11   1.0000      -0.411525       -11.1982
  12   1.0000      -0.215874        -5.8742
  13   0.0000       0.034698         0.9442
  14   0.0000       0.059221         1.6115
  15   0.0000       0.077148         2.0993
  16   0.0000       0.086995         2.3673
  17   0.0000       0.104336         2.8391

                 SPIN DOWN ORBITALS
  NO   OCC          E(Eh)            E(eV)
   0   1.0000     -19.374449      -527.2056
   1   1.0000     -10.374882      -282.3149
   2   1.0000     -10.374056      -282.2924
   3   1.0000      -1.183382       -32.2015
   4   1.0000      -0.875333       -23.8190
   5   1.0000      -0.667042       -18.1511
   6   1.0000      -0.583380       -15.8746
   7   1.0000      -0.543912       -14.8006
   8   1.0000      -0.534774       -14.5519
   9   1.0000      -0.494912       -13.4672
  10   1.0000      -0.470340       -12.7986
  11   0.0000      -0.075896        -2.0652
  12   0.0000       0.036511         0.9935
  13   0.0000       0.058895         1.6026
  14   0.0000       0.076583         2.0839
  15   0.0000       0.084984         2.3125

----------------------------------------------------------------------------------------------------
          SPIN FLIP ABSORPTION SPECTRUM VIA TRANSITION ELECTRIC DIPOLE MOMENTS
----------------------------------------------------------------------------------------------------
     Transition      Energy     Energy  Wavelength fosc(D2)      D2        DX        DY        DZ
                      (eV)      (cm-1)    (nm)                 (au**2)    (au)      (au)      (au)
----------------------------------------------------------------------------------------------------
  1-3A  ->  2-3A    4.473088   36077.9   277.2   0.000529342   0.00483  -0.03389   0.03622   0.04868

Dispersion correction             ... done (  0.0 sec)

MULLIKEN ATOMIC CHARGES AND SPIN DENSITIES
------------------------------------------
   0 O :   -0.487361    0.051229
   1 C :    0.219351   -0.161164
   2 C :   -0.704659    0.033140
   3 H :    0.226234    0.069131
   4 H :    0.255402   -0.000069
   5 H :    0.234631    0.007491
   6 H :    0.256402    0.000242
Sum of atomic charges       :   -0.0000000

LOEWDIN ATOMIC CHARGES AND SPIN DENSITIES
-----------------------------------------
   0 O :    0.054860    0.018975
   1 C :   -0.236101   -0.013558
   2 C :    0.178754   -0.002213
   3 H :    0.021524   -0.002736
   4 H :   -0.004573   -0.001156
   5 H :   -0.009893    0.001838
   6 H :   -0.004572   -0.001151

  Mayer bond orders larger than 0.100000
B(  0-O ,  1-C ) :   1.8028 B(  1-C ,  2-C ) :   0.7677 B(  1-C ,  3-H ) :   0.9716
B(  2-C ,  4-H ) :   0.9745 B(  2-C ,  5-H ) :   0.9790 B(  2-C ,  6-H ) :   0.9742

Dispersion correction           -0.005484331
FINAL SINGLE POINT ENERGY      -153.901158733689

DIPOLE MOMENT
-------------

Method             : TDA/CIS
Type of density    : Electron Density
Level              : Relaxed density
State              :   1
Multiplicity       :   3
Irrep              :   0
Energy             :     0.0000000000000000 Eh
Relativity type    :
Basis              : AO
                                X                 Y                 Z
Electronic contribution:      2.568666505       2.397894888      -0.002415757
Nuclear contribution   :     -3.555860027      -3.320248506       0.004752586
                        -----------------------------------------
Total Dipole Moment    :     -0.987193522      -0.922353619       0.002336829
                        -----------------------------------------
Magnitude (a.u.)       :      1.351033941
Magnitude (Debye)      :      3.434055369

Rotational constants in cm-1:             2.771207             0.290079             0.275965
Rotational constants in MHz :         83078.691370          8696.341487          8273.215068

                             ****ORCA TERMINATED NORMALLY****
TOTAL RUN TIME: 0 days 0 hours 0 minutes 16 seconds 280 msec
