                         Program Version 6.0.0  -   RELEASE  -
|  1> ! Engrad wB97M-D3BJ def2-TZVPPD
|  2> %pal nprocs 8 end%pal nprocs 16 end
|  3> %tddft nroots 2 Iroot 2
|  4>  sf true
|  5> end
|  6> *xyz 0 3
|  7> O   0.06360989212729 0.81062802957299 -4.812986939e-05
|  8> C   0.72680097431536 -0.41964347017847 6.2856758e-05
|  9> C   -0.71488250055864 -0.45432903922845 -7.957221077e-05
| 10> H   1.26323638044955 -0.66282152513654 0.91154314160057
| 11> H   1.26311261073609 -0.66313440286579 -0.91143065467447
| 12> H   -1.24941467601732 -0.63615352940733 -0.92082017837772
| 13> H   -1.24923592472663 -0.63623585195596 0.92077253677377
| 14> *
| 15>
| 16>                          ****END OF INPUT****

CARTESIAN COORDINATES (ANGSTROEM)
---------------------------------
  O      0.063610    0.810628   -0.000048
  C      0.726801   -0.419643    0.000063
  C     -0.714883   -0.454329   -0.000080
  H      1.263236   -0.662822    0.911543
  H      1.263113   -0.663134   -0.911431
  H     -1.249415   -0.636154   -0.920820
  H     -1.249236   -0.636236    0.920773

 Total Charge           Charge          ....    0
 Multiplicity           Mult            ....    3
 Number of Electrons    NEL             ....   24
 Basis Dimension        Dim             ....  182

ORBITAL ENERGIES
----------------
                 SPIN UP ORBITALS
  NO   OCC          E(Eh)            E(eV)
   0   1.0000     -19.492349      -530.4138
   1   1.0000     -10.434695      -283.9425
   2   1.0000     -10.394299      -282.8433
   3   1.0000      -1.318331       -35.8736
   4   1.0000      -0.873256       -23.7625
   5   1.0000      -0.797340       -21.6967
   6   1.0000      -0.704018       -19.1573
   7   1.0000      -0.666143       -18.1267
   8   1.0000      -0.589294       -16.0355
   9   1.0000      -0.521711       -14.1965
  10   1.0000      -0.511985       -13.9318
  11   1.0000      -0.482631       -13.1331
  12   1.0000      -0.128839        -3.5059
  13   0.0000       0.033840         0.9208
  14   0.0000       0.057657         1.5689
  15   0.0000       0.068484         1.8635
  16   0.0000       0.086203         2.3457
  17   0.0000       0.104879         2.8539

                 SPIN DOWN ORBITALS
  NO   OCC          E(Eh)            E(eV)
   0   1.0000     -19.460189      -529.5387
   1   1.0000     -10.434499      -283.9372
   2   1.0000     -10.388344      -282.6812
   3   1.0000      -1.253048       -34.0972
   4   1.0000      -0.840889       -22.8818
   5   1.0000      -0.780144       -21.2288
   6   1.0000      -0.645883       -17.5754
   7   1.0000      -0.635690       -17.2980
   8   1.0000      -0.552648       -15.0383
   9   1.0000      -0.498773       -13.5723
  10   1.0000      -0.459086       -12.4924
  11   0.0000      -0.133716        -3.6386
  12   0.0000       0.032999         0.8980
  13   0.0000       0.055754         1.5171
  14   0.0000       0.064318         1.7502
  15   0.0000       0.069933         1.9030

----------------------------------------------------------------------------------------------------
          SPIN FLIP ABSORPTION SPECTRUM VIA TRANSITION ELECTRIC DIPOLE MOMENTS
----------------------------------------------------------------------------------------------------
     Transition      Energy     Energy  Wavelength fosc(D2)      D2        DX        DY        DZ
                      (eV)      (cm-1)    (nm)                 (au**2)    (au)      (au)      (au)
----------------------------------------------------------------------------------------------------
  1-3A  ->  2-3A    6.773596   54632.7   183.0   0.001557671   0.00939   0.00006   0.00093  -0.09688

Dispersion correction             ... done (  0.0 sec)

MULLIKEN ATOMIC CHARGES AND SPIN DENSITIES
------------------------------------------
   0 O :    0.759845    1.215828
   1 C :   -1.564746   -1.732038
   2 C :   -2.192228   -1.698767
   3 H :    0.603126    0.426080
   4 H :    0.598299    0.424900
   5 H :    0.885433    0.688368
   6 H :    0.910270    0.675630
Sum of atomic charges       :   -0.0000000

LOEWDIN ATOMIC CHARGES AND SPIN DENSITIES
-----------------------------------------
   0 O :    0.357445    0.587552
   1 C :   -0.179414   -0.213001
   2 C :   -0.150425   -0.193666
   3 H :    0.009343   -0.036646
   4 H :    0.009742   -0.036018
   5 H :   -0.023113   -0.053718
   6 H :   -0.023577   -0.054504

  Mayer bond orders larger than 0.100000
B(  0-O ,  1-C ) :  -0.6581 B(  0-O ,  2-C ) :  -1.3161 B(  0-O ,  3-H ) :   0.3952
B(  0-O ,  4-H ) :   0.3919 B(  0-O ,  5-H ) :   0.6978 B(  0-O ,  6-H ) :   0.7017
B(  1-C ,  2-C ) :   8.1921 B(  1-C ,  5-H ) :  -2.5917 B(  1-C ,  6-H ) :  -2.5517
B(  2-C ,  3-H ) :  -1.9344 B(  2-C ,  4-H ) :  -1.9578 B(  2-C ,  5-H ) :  -1.3035
B(  2-C ,  6-H ) :  -1.3875 B(  3-H ,  4-H ) :   0.2842 B(  3-H ,  5-H ) :   0.5708
B(  3-H ,  6-H ) :   0.7073 B(  4-H ,  5-H ) :   0.6968 B(  4-H ,  6-H ) :   0.5729
B(  5-H ,  6-H ) :   0.7817

Dispersion correction           -0.005233039
FINAL SINGLE POINT ENERGY      -153.625836924853

DIPOLE MOMENT
-------------

Method             : TDA/CIS
Type of density    : Electron Density
Level              : Relaxed density
State              :   2
Multiplicity       :   3
Irrep              :   0
Energy             :     0.0000000000000000 Eh
Relativity type    :
Basis              : AO
                                X                 Y                 Z
Electronic contribution:      0.433316212       2.609128112      -0.013969927
Nuclear contribution   :     -0.074738892      -2.413130730       0.000137559
                        -----------------------------------------
Total Dipole Moment    :      0.358577320       0.195997382      -0.013832368
                        -----------------------------------------
Magnitude (a.u.)       :      0.408881404
Magnitude (Debye)      :      1.039293935

Rotational constants in cm-1:             0.851287             0.744133             0.472359
Rotational constants in MHz :         25520.951802         22308.535246         14160.966982

                             ****ORCA TERMINATED NORMALLY****
TOTAL RUN TIME: 0 days 0 hours 0 minutes 20 seconds 780 msec
