                         Program Version 6.0.0  -   RELEASE  -
|  1> ! Engrad def2-TZVPPD wB97M-D3BJ
|  2> %pal nprocs 8 end%pal nprocs 64 end
|  3> %tddft Nroots 2 Iroot 2
|  4> sf true
|  5> end
|  6> *xyz 0 3
|  7> O   3.78744737 0.45761496 -0.02237061
|  8> O   -1.27850262 1.14804221 -2.49032791
|  9> O   0.95089926 -2.87912001 -1.20897865
| 10> O   -3.58634747 -1.23373681 0.56681813
| 11> N   0.2637622 -1.43659726 0.39071773
| 12> N   -2.0000007 0.20851334 1.33075572
| 13> N   2.36173763 -1.21688077 -0.58246543
| 14> N   -2.19863027 -0.24321452 -0.93908232
| 15> C   1.725918 0.37687082 1.09596478
| 16> C   -0.74498535 1.49450756 -0.19971317
| 17> C   0.43034068 -0.32750468 1.2898843
| 18> C   -0.66036545 0.74748348 1.11726061
| 19> C   2.08875666 1.51622276 1.96694962
| 20> C   -0.60928097 2.96612599 -0.22269773
| 21> C   2.71009876 -0.09275706 0.14038187
| 22> C   -1.37975573 0.81152406 -1.32892741
| 23> C   1.15995186 -1.91195393 -0.51475014
| 24> C   -2.65612547 -0.47943788 0.34298323
| 25> H   0.33848922 -0.69459694 2.32685851
| 26> H   -0.4848265 1.46579096 1.8990052
| 27> H   3.15967734 1.59196082 2.01437426
| 28> H   1.72579941 2.45488068 1.58006173
| 29> H   1.6784338 1.38708382 2.96178491
| 30> H   -1.41211246 3.40761471 0.38089541
| 31> H   0.31012375 3.27748714 0.22844851
| 32> H   -0.68159717 3.32802711 -1.24001127
| 33> H   -0.53369688 -2.03503141 0.45589618
| 34> H   -2.34244417 -0.0077736 2.25186326
| 35> H   2.99940868 -1.54061964 -1.29652101
| 36> H   -2.70063688 -0.71090089 -1.6902861
| 37> *
| 38>
| 39>                          ****END OF INPUT****

CARTESIAN COORDINATES (ANGSTROEM)
---------------------------------
  O      3.787447    0.457615   -0.022371
  O     -1.278503    1.148042   -2.490328
  O      0.950899   -2.879120   -1.208979
  O     -3.586347   -1.233737    0.566818
  N      0.263762   -1.436597    0.390718
  N     -2.000001    0.208513    1.330756
  N      2.361738   -1.216881   -0.582465
  N     -2.198630   -0.243215   -0.939082
  C      1.725918    0.376871    1.095965
  C     -0.744985    1.494508   -0.199713
  C      0.430341   -0.327505    1.289884
  C     -0.660365    0.747483    1.117261
  C      2.088757    1.516223    1.966950
  C     -0.609281    2.966126   -0.222698
  C      2.710099   -0.092757    0.140382
  C     -1.379756    0.811524   -1.328927
  C      1.159952   -1.911954   -0.514750
  C     -2.656125   -0.479438    0.342983
  H      0.338489   -0.694597    2.326859
  H     -0.484826    1.465791    1.899005
  H      3.159677    1.591961    2.014374
  H      1.725799    2.454881    1.580062
  H      1.678434    1.387084    2.961785
  H     -1.412112    3.407615    0.380895
  H      0.310124    3.277487    0.228449
  H     -0.681597    3.328027   -1.240011
  H     -0.533697   -2.035031    0.455896
  H     -2.342444   -0.007774    2.251863
  H      2.999409   -1.540620   -1.296521
  H     -2.700637   -0.710901   -1.690286

 Total Charge           Charge          ....    0
 Multiplicity           Mult            ....    3
 Number of Electrons    NEL             ....  132
 Basis Dimension        Dim             ....  882

ORBITAL ENERGIES
----------------
                 SPIN UP ORBITALS
  NO   OCC          E(Eh)            E(eV)
   0   1.0000     -19.338449      -526.2260
   1   1.0000     -19.332038      -526.0515
   2   1.0000     -19.323716      -525.8250
   3   1.0000     -19.315747      -525.6082
   4   1.0000     -14.566198      -396.3664
   5   1.0000     -14.565478      -396.3468
   6   1.0000     -14.562398      -396.2630
   7   1.0000     -14.558733      -396.1633
   8   1.0000     -10.509133      -285.9680
   9   1.0000     -10.503202      -285.8067
  10   1.0000     -10.484833      -285.3068
  11   1.0000     -10.481409      -285.2136
  12   1.0000     -10.447609      -284.2939
  13   1.0000     -10.445465      -284.2356
  14   1.0000     -10.420432      -283.5544
  15   1.0000     -10.419396      -283.5262
  16   1.0000     -10.374847      -282.3139
  17   1.0000     -10.374593      -282.3070
  18   1.0000      -1.223230       -33.2858
  19   1.0000      -1.218485       -33.1567
  20   1.0000      -1.200015       -32.6541
  21   1.0000      -1.195467       -32.5303
  22   1.0000      -1.122511       -30.5451
  23   1.0000      -1.100454       -29.9449
  24   1.0000      -1.069631       -29.1061
  25   1.0000      -1.060490       -28.8574
  26   1.0000      -0.989409       -26.9232
  27   1.0000      -0.959208       -26.1014
  28   1.0000      -0.897785       -24.4300
  29   1.0000      -0.846824       -23.0433
  30   1.0000      -0.832731       -22.6598
  31   1.0000      -0.804619       -21.8948
  32   1.0000      -0.789420       -21.4812
  33   1.0000      -0.786107       -21.3911
  34   1.0000      -0.705600       -19.2003
  35   1.0000      -0.698538       -19.0082
  36   1.0000      -0.695675       -18.9303
  37   1.0000      -0.681153       -18.5351
  38   1.0000      -0.655234       -17.8298
  39   1.0000      -0.641260       -17.4496
  40   1.0000      -0.628517       -17.1028
  41   1.0000      -0.605397       -16.4737
  42   1.0000      -0.598718       -16.2919
  43   1.0000      -0.589631       -16.0447
  44   1.0000      -0.579333       -15.7644
  45   1.0000      -0.578179       -15.7330
  46   1.0000      -0.568487       -15.4693
  47   1.0000      -0.564034       -15.3482
  48   1.0000      -0.560828       -15.2609
  49   1.0000      -0.558453       -15.1963
  50   1.0000      -0.552502       -15.0343
  51   1.0000      -0.547136       -14.8883
  52   1.0000      -0.533550       -14.5186
  53   1.0000      -0.529120       -14.3981
  54   1.0000      -0.517752       -14.0887
  55   1.0000      -0.511469       -13.9178
  56   1.0000      -0.498431       -13.5630
  57   1.0000      -0.424418       -11.5490
  58   1.0000      -0.422281       -11.4908
  59   1.0000      -0.413244       -11.2449
  60   1.0000      -0.405183       -11.0256
  61   1.0000      -0.400823       -10.9070
  62   1.0000      -0.394653       -10.7391
  63   1.0000      -0.390130       -10.6160
  64   1.0000      -0.383152       -10.4261
  65   1.0000      -0.346329        -9.4241
  66   1.0000      -0.335435        -9.1277
  67   0.0000       0.007385         0.2009
  68   0.0000       0.027835         0.7574
  69   0.0000       0.032224         0.8768
  70   0.0000       0.034342         0.9345
  71   0.0000       0.054266         1.4767

                 SPIN DOWN ORBITALS
  NO   OCC          E(Eh)            E(eV)
   0   1.0000     -19.334685      -526.1235
   1   1.0000     -19.327919      -525.9394
   2   1.0000     -19.323435      -525.8174
   3   1.0000     -19.315730      -525.6077
   4   1.0000     -14.565333      -396.3429
   5   1.0000     -14.565207      -396.3394
   6   1.0000     -14.561629      -396.2421
   7   1.0000     -14.558755      -396.1639
   8   1.0000     -10.509147      -285.9684
   9   1.0000     -10.503250      -285.8080
  10   1.0000     -10.485846      -285.3344
  11   1.0000     -10.482417      -285.2411
  12   1.0000     -10.447821      -284.2997
  13   1.0000     -10.444999      -284.2229
  14   1.0000     -10.409045      -283.2445
  15   1.0000     -10.407339      -283.1981
  16   1.0000     -10.375432      -282.3299
  17   1.0000     -10.375143      -282.3220
  18   1.0000      -1.221320       -33.2338
  19   1.0000      -1.216852       -33.1122
  20   1.0000      -1.195732       -32.5375
  21   1.0000      -1.190738       -32.4016
  22   1.0000      -1.119820       -30.4718
  23   1.0000      -1.098336       -29.8872
  24   1.0000      -1.067782       -29.0558
  25   1.0000      -1.058889       -28.8138
  26   1.0000      -0.977029       -26.5863
  27   1.0000      -0.942102       -25.6359
  28   1.0000      -0.892241       -24.2791
  29   1.0000      -0.841406       -22.8958
  30   1.0000      -0.823620       -22.4119
  31   1.0000      -0.799681       -21.7604
  32   1.0000      -0.787614       -21.4321
  33   1.0000      -0.784711       -21.3531
  34   1.0000      -0.701636       -19.0925
  35   1.0000      -0.691036       -18.8040
  36   1.0000      -0.689222       -18.7547
  37   1.0000      -0.672954       -18.3120
  38   1.0000      -0.643628       -17.5140
  39   1.0000      -0.636851       -17.3296
  40   1.0000      -0.624915       -17.0048
  41   1.0000      -0.600380       -16.3372
  42   1.0000      -0.591815       -16.1041
  43   1.0000      -0.583936       -15.8897
  44   1.0000      -0.572332       -15.5740
  45   1.0000      -0.568938       -15.4816
  46   1.0000      -0.563860       -15.3434
  47   1.0000      -0.561523       -15.2798
  48   1.0000      -0.554119       -15.0783
  49   1.0000      -0.549122       -14.9424
  50   1.0000      -0.546200       -14.8629
  51   1.0000      -0.538229       -14.6460
  52   1.0000      -0.528035       -14.3686
  53   1.0000      -0.518476       -14.1085
  54   1.0000      -0.512230       -13.9385
  55   1.0000      -0.504218       -13.7205
  56   1.0000      -0.492355       -13.3977
  57   1.0000      -0.419793       -11.4231
  58   1.0000      -0.418663       -11.3924
  59   1.0000      -0.407802       -11.0969
  60   1.0000      -0.393146       -10.6981
  61   1.0000      -0.390723       -10.6321
  62   1.0000      -0.390223       -10.6185
  63   1.0000      -0.386186       -10.5087
  64   1.0000      -0.375898       -10.2287
  65   0.0000      -0.064974        -1.7680
  66   0.0000      -0.046892        -1.2760
  67   0.0000       0.006814         0.1854
  68   0.0000       0.027626         0.7517
  69   0.0000       0.031920         0.8686

----------------------------------------------------------------------------------------------------
          SPIN FLIP ABSORPTION SPECTRUM VIA TRANSITION ELECTRIC DIPOLE MOMENTS
----------------------------------------------------------------------------------------------------
     Transition      Energy     Energy  Wavelength fosc(D2)      D2        DX        DY        DZ
                      (eV)      (cm-1)    (nm)                 (au**2)    (au)      (au)      (au)
----------------------------------------------------------------------------------------------------
  1-3A  ->  2-3A    0.086861     700.6  14273.9   0.000001191   0.00056   0.00381   0.02234  -0.00678

Dispersion correction             ... done (  0.1 sec)

MULLIKEN ATOMIC CHARGES AND SPIN DENSITIES
------------------------------------------
   0 O :   -0.670949    0.130084
   1 O :   -0.655055   -0.117826
   2 O :   -0.662265    0.000929
   3 O :   -0.654724   -0.005390
   4 N :   -0.151394   -0.002345
   5 N :   -0.305114   -0.015518
   6 N :   -0.055070    0.032879
   7 N :    0.047975   -0.008808
   8 C :    0.055512    0.366281
   9 C :    1.304673    0.390060
  10 C :    0.386181    0.083182
  11 C :   -0.082082   -0.555128
  12 C :   -1.590902    0.053975
  13 C :   -1.421618    0.019411
  14 C :    0.689014    0.039659
  15 C :   -0.366087   -0.493416
  16 C :    0.503949   -0.007260
  17 C :    0.377865    0.029822
  18 H :    0.430477    0.030816
  19 H :    0.626064   -0.011034
  20 H :    0.373236    0.009970
  21 H :    0.246933    0.016129
  22 H :    0.358429    0.002936
  23 H :    0.383834    0.005052
  24 H :    0.286779    0.040730
  25 H :    0.355119   -0.030284
  26 H :    0.007144   -0.003566
  27 H :    0.092551   -0.000489
  28 H :    0.037608   -0.003477
  29 H :    0.051918    0.002627
Sum of atomic charges       :    0.0000000

LOEWDIN ATOMIC CHARGES AND SPIN DENSITIES
-----------------------------------------
   0 O :    0.087399    0.114180
   1 O :    0.095324   -0.110170
   2 O :    0.091915    0.000142
   3 O :    0.078606   -0.004894
   4 N :    0.294167   -0.003109
   5 N :    0.287741   -0.018648
   6 N :    0.327490    0.022521
   7 N :    0.316317   -0.011409
   8 C :   -0.015240    0.426966
   9 C :    0.029986   -0.433939
  10 C :   -0.119786    0.043472
  11 C :   -0.126428   -0.023985
  12 C :    0.199253    0.062782
  13 C :    0.203411   -0.070604
  14 C :   -0.392370    0.068346
  15 C :   -0.411983   -0.070903
  16 C :   -0.476024   -0.000119
  17 C :   -0.498220   -0.001128
  18 H :    0.071869    0.015898
  19 H :    0.033596    0.001138
  20 H :   -0.005069    0.004087
  21 H :   -0.015615    0.020355
  22 H :    0.005428    0.006995
  23 H :    0.026404   -0.024391
  24 H :   -0.027227   -0.012113
  25 H :    0.003296    0.000073
  26 H :   -0.035590   -0.000317
  27 H :   -0.026963   -0.002096
  28 H :   -0.006105    0.001934
  29 H :    0.004418   -0.001064

  Mayer bond orders larger than 0.100000
B(  0-O ,  8-C ) :   0.1181 B(  0-O , 12-C ) :   0.1047 B(  0-O , 14-C ) :   1.2330
B(  1-O , 15-C ) :   1.4172 B(  2-O , 16-C ) :   1.5643 B(  3-O , 17-C ) :   1.5832
B(  4-N , 10-C ) :   0.6478 B(  4-N , 16-C ) :   1.0671 B(  4-N , 26-H ) :   1.1359
B(  5-N ,  9-C ) :   0.2007 B(  5-N , 10-C ) :   0.1502 B(  5-N , 17-C ) :   1.2103
B(  5-N , 27-H ) :   1.0510 B(  6-N , 14-C ) :   1.0151 B(  6-N , 16-C ) :   0.9182
B(  6-N , 28-H ) :   1.1206 B(  7-N , 15-C ) :   0.9889 B(  7-N , 17-C ) :   0.9878
B(  7-N , 29-H ) :   1.0869 B(  8-C , 10-C ) :   0.3626 B(  8-C , 11-C ) :   0.4507
B(  8-C , 12-C ) :   0.1552 B(  8-C , 14-C ) :   0.7929 B(  8-C , 18-H ) :  -0.1707
B(  8-C , 22-H ) :  -0.1322 B(  9-C , 10-C ) :   0.1412 B(  9-C , 11-C ) :   0.1799
B(  9-C , 13-C ) :   0.4185 B(  9-C , 25-H ) :  -0.1073 B( 10-C , 11-C ) :   0.5406
B( 10-C , 12-C ) :  -0.2388 B( 10-C , 14-C ) :   0.1156 B( 10-C , 18-H ) :   0.9717
B( 11-C , 12-C ) :   0.1141 B( 11-C , 13-C ) :  -0.1699 B( 11-C , 15-C ) :   0.1978
B( 11-C , 17-C ) :  -0.2243 B( 11-C , 19-H ) :   0.7285 B( 12-C , 14-C ) :  -0.1620
B( 12-C , 20-H ) :   0.9612 B( 12-C , 21-H ) :   0.9125 B( 12-C , 22-H ) :   1.0187
B( 13-C , 23-H ) :   0.8341 B( 13-C , 24-H ) :   0.9943 B( 13-C , 25-H ) :   0.9749
B( 15-C , 17-C ) :  -0.1015

Dispersion correction           -0.057472420
FINAL SINGLE POINT ENERGY      -908.800147815670

DIPOLE MOMENT
-------------

Method             : TDA/CIS
Type of density    : Electron Density
Level              : Relaxed density
State              :   2
Multiplicity       :   3
Irrep              :   0
Energy             :     0.0000000000000000 Eh
Relativity type    :
Basis              : AO
                                X                 Y                 Z
Electronic contribution:     -1.871323943      -9.801869257      -6.519012553
Nuclear contribution   :      1.792536404      11.336157010       8.921297750
                        -----------------------------------------
Total Dipole Moment    :     -0.078787540       1.534287752       2.402285197
                        -----------------------------------------
Magnitude (a.u.)       :      2.851529511
Magnitude (Debye)      :      7.248012008

Rotational constants in cm-1:             0.020204             0.012430             0.010738
Rotational constants in MHz :           605.693760           372.645621           321.915237

                             ****ORCA TERMINATED NORMALLY****
TOTAL RUN TIME: 0 days 0 hours 4 minutes 23 seconds 530 msec
