                         Program Version 6.0.0  -   RELEASE  -
|  1> ! EnGrad wB97M-D3BJ def2-TZVPPD
|  2> %pal nprocs 8 end%pal nprocs 16 end
|  3> %tddft
|  4>  sf true
|  5>  nroots 2 Iroot 2 end
|  6> *xyz 0 3
|  7> O   0.25939086350514 0.96086401838209 -0.0017663470977
|  8> C   0.6440497782294 -0.32559049635272 -0.00039050738788
|  9> C   -0.73551947866016 -0.66750335970742 0.0004003732688
| 10> H   1.20143388348376 -0.64149468423836 0.88934178620129
| 11> H   1.201893153826 -0.64300188112358 -0.88923205307078
| 12> H   -1.28514594059196 -0.70233619618206 -0.92661513976643
| 13> H   -1.28390225979219 -0.69933740077794 0.92826188785271
| 14> *
| 15>
| 16>                          ****END OF INPUT****

CARTESIAN COORDINATES (ANGSTROEM)
---------------------------------
  O      0.259391    0.960864   -0.001766
  C      0.644050   -0.325590   -0.000391
  C     -0.735519   -0.667503    0.000400
  H      1.201434   -0.641495    0.889342
  H      1.201893   -0.643002   -0.889232
  H     -1.285146   -0.702336   -0.926615
  H     -1.283902   -0.699337    0.928262

 Total Charge           Charge          ....    0
 Multiplicity           Mult            ....    3
 Number of Electrons    NEL             ....   24
 Basis Dimension        Dim             ....  182

ORBITAL ENERGIES
----------------
                 SPIN UP ORBITALS
  NO   OCC          E(Eh)            E(eV)
   0   1.0000     -19.411663      -528.2182
   1   1.0000     -10.407247      -283.1956
   2   1.0000     -10.337352      -281.2936
   3   1.0000      -1.218693       -33.1623
   4   1.0000      -0.865169       -23.5424
   5   1.0000      -0.742221       -20.1969
   6   1.0000      -0.647319       -17.6145
   7   1.0000      -0.610328       -16.6079
   8   1.0000      -0.550285       -14.9740
   9   1.0000      -0.505006       -13.7419
  10   1.0000      -0.455534       -12.3957
  11   1.0000      -0.441147       -12.0042
  12   1.0000      -0.262854        -7.1526
  13   0.0000       0.040765         1.1093
  14   0.0000       0.063719         1.7339
  15   0.0000       0.072664         1.9773
  16   0.0000       0.085788         2.3344
  17   0.0000       0.116376         3.1667

                 SPIN DOWN ORBITALS
  NO   OCC          E(Eh)            E(eV)
   0   1.0000     -19.382720      -527.4306
   1   1.0000     -10.408377      -283.2263
   2   1.0000     -10.324818      -280.9526
   3   1.0000      -1.157549       -31.4985
   4   1.0000      -0.830837       -22.6082
   5   1.0000      -0.721216       -19.6253
   6   1.0000      -0.603562       -16.4238
   7   1.0000      -0.573670       -15.6103
   8   1.0000      -0.525821       -14.3083
   9   1.0000      -0.472738       -12.8639
  10   1.0000      -0.392554       -10.6819
  11   0.0000      -0.077519        -2.1094
  12   0.0000       0.036352         0.9892
  13   0.0000       0.039329         1.0702
  14   0.0000       0.063975         1.7408
  15   0.0000       0.071138         1.9358

----------------------------------------------------------------------------------------------------
          SPIN FLIP ABSORPTION SPECTRUM VIA TRANSITION ELECTRIC DIPOLE MOMENTS
----------------------------------------------------------------------------------------------------
     Transition      Energy     Energy  Wavelength fosc(D2)      D2        DX        DY        DZ
                      (eV)      (cm-1)    (nm)                 (au**2)    (au)      (au)      (au)
----------------------------------------------------------------------------------------------------
  1-3A  ->  2-3A    2.768751   22331.5   447.8   0.000985564   0.01453  -0.00045  -0.00068  -0.12053

Dispersion correction             ... done (  0.0 sec)

MULLIKEN ATOMIC CHARGES AND SPIN DENSITIES
------------------------------------------
   0 O :   -0.298782    0.715226
   1 C :    0.115964    0.232365
   2 C :   -0.460436   -0.732599
   3 H :    0.207665    0.023159
   4 H :    0.207841    0.023566
   5 H :    0.113620   -0.131011
   6 H :    0.114127   -0.130706
Sum of atomic charges       :    0.0000000

LOEWDIN ATOMIC CHARGES AND SPIN DENSITIES
-----------------------------------------
   0 O :    0.109207    0.657777
   1 C :   -0.232274    0.047659
   2 C :    0.181259   -0.583424
   3 H :    0.040006    0.027840
   4 H :    0.040167    0.028130
   5 H :   -0.069192   -0.089033
   6 H :   -0.069173   -0.088949

  Mayer bond orders larger than 0.100000
B(  0-O ,  1-C ) :   0.8400 B(  0-O ,  2-C ) :   0.2776 B(  1-C ,  2-C ) :   0.6093
B(  1-C ,  3-H ) :   0.9845 B(  1-C ,  4-H ) :   0.9839 B(  2-C ,  5-H ) :   1.1232
B(  2-C ,  6-H ) :   1.1229

Dispersion correction           -0.005604112
FINAL SINGLE POINT ENERGY      -153.712990771468

DIPOLE MOMENT
-------------

Method             : TDA/CIS
Type of density    : Electron Density
Level              : Relaxed density
State              :   2
Multiplicity       :   3
Irrep              :   0
Energy             :     0.0000000000000000 Eh
Relativity type    :
Basis              : AO
                                X                 Y                 Z
Electronic contribution:      0.878745645       2.417480238      -0.004399532
Nuclear contribution   :     -0.398310630      -2.568933747       0.003877043
                        -----------------------------------------
Total Dipole Moment    :      0.480435014      -0.151453509      -0.000522489
                        -----------------------------------------
Magnitude (a.u.)       :      0.503742237
Magnitude (Debye)      :      1.280411011

Rotational constants in cm-1:             1.033220             0.524314             0.403190
Rotational constants in MHz :         30975.167921         15718.534284         12087.319117

                             ****ORCA TERMINATED NORMALLY****
TOTAL RUN TIME: 0 days 0 hours 0 minutes 17 seconds 321 msec
