                         Program Version 6.0.0  -   RELEASE  -
|  1> ! Engrad def2-TZVPPD wB97M-D3BJ
|  2> %pal nprocs 8 end%pal nprocs 64 end
|  3> %tddft Nroots 2 Iroot 2
|  4> sf true
|  5> end
|  6> *xyz 0 3
|  7> O   2.84952755 1.2733945 -0.50976771
|  8> O   -0.49568932 0.50470147 -1.97391336
|  9> O   1.32975735 -2.85782167 -1.64693912
| 10> O   -3.03924665 -1.4839419 1.19518817
| 11> N   0.664516 -1.94713451 0.33577357
| 12> N   -2.2176472 0.6101595 1.60259529
| 13> N   2.08852874 -0.79828745 -1.04552129
| 14> N   -1.86545525 -0.39578975 -0.43540546
| 15> C   1.28578669 0.29621352 0.95061328
| 16> C   -0.7445628 1.681624 0.06428895
| 17> C   0.65192256 -0.93315239 1.23759639
| 18> C   -1.46824914 1.68073026 1.20568461
| 19> C   1.47103143 1.30665793 2.01531849
| 20> C   -0.00073091 2.87640974 -0.42538751
| 21> C   2.10979411 0.33849249 -0.22422665
| 22> C   -0.98267876 0.58240468 -0.8772766
| 23> C   1.35648682 -1.93811947 -0.85464067
| 24> C   -2.41455505 -0.50659855 0.8220397
| 25> H   0.12636219 -1.07475126 2.15455468
| 26> H   -1.44392512 2.51259763 1.87960754
| 27> H   1.36522156 2.32095677 1.65115948
| 28> H   0.7714527 1.15717912 2.83570289
| 29> H   2.49367755 1.24572848 2.40418041
| 30> H   -0.44186748 3.20335385 -1.35626147
| 31> H   -0.05636311 3.67843013 0.30005352
| 32> H   1.0477951 2.6629155 -0.63011503
| 33> H   0.12640949 -2.77816445 0.52035181
| 34> H   -2.69935501 0.5964853 2.49209679
| 35> H   2.60582531 -0.72627038 -1.90573659
| 36> H   -2.00560799 -1.19030286 -1.03993253
| 37> *
| 38>
| 39>                          ****END OF INPUT****

CARTESIAN COORDINATES (ANGSTROEM)
---------------------------------
  O      2.849528    1.273394   -0.509768
  O     -0.495689    0.504701   -1.973913
  O      1.329757   -2.857822   -1.646939
  O     -3.039247   -1.483942    1.195188
  N      0.664516   -1.947135    0.335774
  N     -2.217647    0.610159    1.602595
  N      2.088529   -0.798287   -1.045521
  N     -1.865455   -0.395790   -0.435405
  C      1.285787    0.296214    0.950613
  C     -0.744563    1.681624    0.064289
  C      0.651923   -0.933152    1.237596
  C     -1.468249    1.680730    1.205685
  C      1.471031    1.306658    2.015318
  C     -0.000731    2.876410   -0.425388
  C      2.109794    0.338492   -0.224227
  C     -0.982679    0.582405   -0.877277
  C      1.356487   -1.938119   -0.854641
  C     -2.414555   -0.506599    0.822040
  H      0.126362   -1.074751    2.154555
  H     -1.443925    2.512598    1.879608
  H      1.365222    2.320957    1.651159
  H      0.771453    1.157179    2.835703
  H      2.493678    1.245728    2.404180
  H     -0.441867    3.203354   -1.356261
  H     -0.056363    3.678430    0.300054
  H      1.047795    2.662915   -0.630115
  H      0.126409   -2.778164    0.520352
  H     -2.699355    0.596485    2.492097
  H      2.605825   -0.726270   -1.905737
  H     -2.005608   -1.190303   -1.039933

 Total Charge           Charge          ....    0
 Multiplicity           Mult            ....    3
 Number of Electrons    NEL             ....  132
 Basis Dimension        Dim             ....  882

ORBITAL ENERGIES
----------------
                 SPIN UP ORBITALS
  NO   OCC          E(Eh)            E(eV)
   0   1.0000     -19.332873      -526.0742
   1   1.0000     -19.326575      -525.9028
   2   1.0000     -19.322592      -525.7945
   3   1.0000     -19.319973      -525.7232
   4   1.0000     -14.591929      -397.0666
   5   1.0000     -14.585492      -396.8914
   6   1.0000     -14.573392      -396.5622
   7   1.0000     -14.547047      -395.8453
   8   1.0000     -10.519150      -286.2406
   9   1.0000     -10.502648      -285.7916
  10   1.0000     -10.481611      -285.2191
  11   1.0000     -10.459464      -284.6165
  12   1.0000     -10.438885      -284.0565
  13   1.0000     -10.407984      -283.2156
  14   1.0000     -10.397539      -282.9314
  15   1.0000     -10.389112      -282.7021
  16   1.0000     -10.367462      -282.1130
  17   1.0000     -10.351724      -281.6847
  18   1.0000      -1.231071       -33.4991
  19   1.0000      -1.217744       -33.1365
  20   1.0000      -1.201681       -32.6994
  21   1.0000      -1.183614       -32.2078
  22   1.0000      -1.130595       -30.7651
  23   1.0000      -1.119788       -30.4710
  24   1.0000      -1.076423       -29.2910
  25   1.0000      -1.056828       -28.7577
  26   1.0000      -0.975092       -26.5336
  27   1.0000      -0.956198       -26.0195
  28   1.0000      -0.855212       -23.2715
  29   1.0000      -0.853807       -23.2333
  30   1.0000      -0.817761       -22.2524
  31   1.0000      -0.812720       -22.1152
  32   1.0000      -0.798402       -21.7256
  33   1.0000      -0.783722       -21.3261
  34   1.0000      -0.703140       -19.1334
  35   1.0000      -0.699775       -19.0419
  36   1.0000      -0.693143       -18.8614
  37   1.0000      -0.690651       -18.7936
  38   1.0000      -0.650244       -17.6941
  39   1.0000      -0.644874       -17.5479
  40   1.0000      -0.632155       -17.2018
  41   1.0000      -0.603883       -16.4325
  42   1.0000      -0.601884       -16.3781
  43   1.0000      -0.589721       -16.0471
  44   1.0000      -0.579498       -15.7689
  45   1.0000      -0.570389       -15.5211
  46   1.0000      -0.562204       -15.2984
  47   1.0000      -0.556778       -15.1507
  48   1.0000      -0.552809       -15.0427
  49   1.0000      -0.541060       -14.7230
  50   1.0000      -0.531991       -14.4762
  51   1.0000      -0.526109       -14.3162
  52   1.0000      -0.521934       -14.2025
  53   1.0000      -0.514953       -14.0126
  54   1.0000      -0.508557       -13.8385
  55   1.0000      -0.501909       -13.6576
  56   1.0000      -0.485056       -13.1991
  57   1.0000      -0.483180       -13.1480
  58   1.0000      -0.424057       -11.5392
  59   1.0000      -0.413611       -11.2549
  60   1.0000      -0.409472       -11.1423
  61   1.0000      -0.394478       -10.7343
  62   1.0000      -0.393334       -10.7031
  63   1.0000      -0.387044       -10.5320
  64   1.0000      -0.380458       -10.3528
  65   1.0000      -0.341075        -9.2811
  66   1.0000      -0.218641        -5.9495
  67   0.0000       0.008237         0.2241
  68   0.0000       0.016917         0.4603
  69   0.0000       0.029694         0.8080
  70   0.0000       0.036906         1.0043
  71   0.0000       0.040548         1.1034

                 SPIN DOWN ORBITALS
  NO   OCC          E(Eh)            E(eV)
   0   1.0000     -19.332599      -526.0668
   1   1.0000     -19.326852      -525.9104
   2   1.0000     -19.320597      -525.7402
   3   1.0000     -19.314124      -525.5640
   4   1.0000     -14.591194      -397.0466
   5   1.0000     -14.581119      -396.7724
   6   1.0000     -14.573424      -396.5630
   7   1.0000     -14.546241      -395.8233
   8   1.0000     -10.519152      -286.2407
   9   1.0000     -10.502943      -285.7996
  10   1.0000     -10.481483      -285.2156
  11   1.0000     -10.459384      -284.6143
  12   1.0000     -10.436952      -284.0039
  13   1.0000     -10.398566      -282.9594
  14   1.0000     -10.389554      -282.7141
  15   1.0000     -10.386992      -282.6444
  16   1.0000     -10.367924      -282.1255
  17   1.0000     -10.351655      -281.6829
  18   1.0000      -1.230571       -33.4856
  19   1.0000      -1.213416       -33.0187
  20   1.0000      -1.201770       -32.7018
  21   1.0000      -1.175021       -31.9739
  22   1.0000      -1.129175       -30.7264
  23   1.0000      -1.109808       -30.1994
  24   1.0000      -1.076013       -29.2798
  25   1.0000      -1.051914       -28.6240
  26   1.0000      -0.966968       -26.3125
  27   1.0000      -0.942149       -25.6372
  28   1.0000      -0.852688       -23.2028
  29   1.0000      -0.843580       -22.9550
  30   1.0000      -0.815903       -22.2019
  31   1.0000      -0.802936       -21.8490
  32   1.0000      -0.797108       -21.6904
  33   1.0000      -0.777462       -21.1558
  34   1.0000      -0.701927       -19.1004
  35   1.0000      -0.698339       -19.0028
  36   1.0000      -0.685858       -18.6632
  37   1.0000      -0.680334       -18.5128
  38   1.0000      -0.648756       -17.6536
  39   1.0000      -0.634873       -17.2758
  40   1.0000      -0.624901       -17.0044
  41   1.0000      -0.601523       -16.3683
  42   1.0000      -0.593046       -16.1376
  43   1.0000      -0.581382       -15.8202
  44   1.0000      -0.570787       -15.5319
  45   1.0000      -0.566688       -15.4204
  46   1.0000      -0.556826       -15.1520
  47   1.0000      -0.555108       -15.1053
  48   1.0000      -0.546165       -14.8619
  49   1.0000      -0.537695       -14.6314
  50   1.0000      -0.526187       -14.3183
  51   1.0000      -0.520759       -14.1706
  52   1.0000      -0.514401       -13.9976
  53   1.0000      -0.508079       -13.8255
  54   1.0000      -0.498330       -13.5603
  55   1.0000      -0.495168       -13.4742
  56   1.0000      -0.478437       -13.0189
  57   1.0000      -0.445463       -12.1217
  58   1.0000      -0.423428       -11.5221
  59   1.0000      -0.409025       -11.1301
  60   1.0000      -0.404647       -11.0110
  61   1.0000      -0.391686       -10.6583
  62   1.0000      -0.378206       -10.2915
  63   1.0000      -0.373743       -10.1701
  64   1.0000      -0.348305        -9.4779
  65   0.0000      -0.096661        -2.6303
  66   0.0000       0.008046         0.2189
  67   0.0000       0.022277         0.6062
  68   0.0000       0.026625         0.7245
  69   0.0000       0.033107         0.9009

----------------------------------------------------------------------------------------------------
          SPIN FLIP ABSORPTION SPECTRUM VIA TRANSITION ELECTRIC DIPOLE MOMENTS
----------------------------------------------------------------------------------------------------
     Transition      Energy     Energy  Wavelength fosc(D2)      D2        DX        DY        DZ
                      (eV)      (cm-1)    (nm)                 (au**2)    (au)      (au)      (au)
----------------------------------------------------------------------------------------------------
  1-3A  ->  2-3A    3.449242   27820.0   359.5   0.000506745   0.00600   0.02866   0.03761  -0.06132

Dispersion correction             ... done (  0.1 sec)

MULLIKEN ATOMIC CHARGES AND SPIN DENSITIES
------------------------------------------
   0 O :   -0.718023    0.006294
   1 O :   -0.641263   -0.001127
   2 O :   -0.648298    0.000307
   3 O :   -0.667881    0.000508
   4 N :    0.050766    0.021229
   5 N :    0.002026   -0.002136
   6 N :   -0.015017   -0.003207
   7 N :   -0.018492    0.000347
   8 C :    1.253455   -0.012425
   9 C :    0.428233    0.023898
  10 C :   -0.612466    0.100777
  11 C :    0.222599   -0.006810
  12 C :   -1.443892   -0.024579
  13 C :   -1.507323    0.009753
  14 C :    0.194114   -0.078440
  15 C :    0.507577   -0.032177
  16 C :    0.532831    0.001757
  17 C :    0.459877   -0.001977
  18 H :    0.288602   -0.002400
  19 H :    0.219116   -0.003755
  20 H :    0.259450    0.000515
  21 H :    0.328693   -0.000952
  22 H :    0.417159    0.009968
  23 H :    0.385748   -0.000274
  24 H :    0.350659   -0.000464
  25 H :    0.232284   -0.000670
  26 H :    0.038780   -0.001960
  27 H :    0.039170   -0.000652
  28 H :    0.020513    0.000653
  29 H :    0.041000   -0.002000
Sum of atomic charges       :    0.0000000

LOEWDIN ATOMIC CHARGES AND SPIN DENSITIES
-----------------------------------------
   0 O :    0.064251    0.005713
   1 O :    0.120221   -0.001378
   2 O :    0.100305   -0.000124
   3 O :    0.077787    0.000254
   4 N :    0.295580    0.012459
   5 N :    0.280396   -0.001332
   6 N :    0.325516   -0.002743
   7 N :    0.336883   -0.000750
   8 C :   -0.120225    0.000566
   9 C :   -0.148759   -0.000433
  10 C :    0.021715   -0.001739
  11 C :    0.056175   -0.001410
  12 C :    0.183369   -0.000581
  13 C :    0.190956   -0.000022
  14 C :   -0.421536   -0.003316
  15 C :   -0.410688   -0.000827
  16 C :   -0.470828   -0.001885
  17 C :   -0.481120   -0.000067
  18 H :   -0.006704   -0.003070
  19 H :    0.036491   -0.000383
  20 H :   -0.011840    0.000273
  21 H :   -0.001884   -0.000285
  22 H :    0.023631    0.000303
  23 H :    0.004439    0.000021
  24 H :   -0.003711   -0.000054
  25 H :   -0.018807   -0.000016
  26 H :   -0.003268    0.001273
  27 H :   -0.006721   -0.000075
  28 H :   -0.009457   -0.000304
  29 H :   -0.002168   -0.000068

  Mayer bond orders larger than 0.100000
B(  0-O , 14-C ) :   1.2420 B(  1-O , 15-C ) :   1.4426 B(  2-O , 16-C ) :   1.5590
B(  3-O , 17-C ) :   1.5443 B(  4-N , 10-C ) :   0.8490 B(  4-N , 16-C ) :   0.9741
B(  4-N , 26-H ) :   1.1210 B(  5-N , 11-C ) :   0.9973 B(  5-N , 17-C ) :   1.0411
B(  5-N , 27-H ) :   1.1206 B(  6-N , 14-C ) :   1.0067 B(  6-N , 16-C ) :   0.9800
B(  6-N , 28-H ) :   1.1101 B(  7-N , 15-C ) :   1.0076 B(  7-N , 17-C ) :   0.9688
B(  7-N , 29-H ) :   1.0859 B(  8-C ,  9-C ) :   0.1586 B(  8-C , 10-C ) :   0.2655
B(  8-C , 12-C ) :   0.2293 B(  8-C , 14-C ) :   0.7738 B(  8-C , 18-H ) :  -0.1419
B(  8-C , 20-H ) :  -0.1380 B(  8-C , 21-H ) :  -0.1196 B(  9-C , 11-C ) :   0.8983
B(  9-C , 13-C ) :   0.5444 B(  9-C , 15-C ) :   0.6815 B(  9-C , 24-H ) :  -0.1200
B(  9-C , 25-H ) :  -0.1050 B( 10-C , 15-C ) :   0.1135 B( 10-C , 16-C ) :  -0.1039
B( 10-C , 18-H ) :   1.1196 B( 11-C , 13-C ) :  -0.2443 B( 11-C , 19-H ) :   1.0866
B( 12-C , 20-H ) :   1.0472 B( 12-C , 21-H ) :   1.0533 B( 12-C , 22-H ) :   0.7785
B( 13-C , 23-H ) :   0.8202 B( 13-C , 24-H ) :   1.0557 B( 13-C , 25-H ) :   0.9737

Dispersion correction           -0.061688948
FINAL SINGLE POINT ENERGY      -908.775007597903

DIPOLE MOMENT
-------------

Method             : TDA/CIS
Type of density    : Electron Density
Level              : Relaxed density
State              :   2
Multiplicity       :   3
Irrep              :   0
Energy             :     0.0000000000000000 Eh
Relativity type    :
Basis              : AO
                                X                 Y                 Z
Electronic contribution:     -2.500568596      -9.649440624      -5.746651238
Nuclear contribution   :      1.380812818      10.842799836       7.977590511
                        -----------------------------------------
Total Dipole Moment    :     -1.119755778       1.193359212       2.230939273
                        -----------------------------------------
Magnitude (a.u.)       :      2.766775967
Magnitude (Debye)      :      7.032585619

Rotational constants in cm-1:             0.019624             0.015249             0.011888
Rotational constants in MHz :           588.322293           457.138622           356.381529

                             ****ORCA TERMINATED NORMALLY****
TOTAL RUN TIME: 0 days 0 hours 5 minutes 22 seconds 177 msec
