                         Program Version 6.0.0  -   RELEASE  -
|  1> ! EnGrad wB97M-D3BJ def2-TZVPPD
|  2> %pal nprocs 8 end%pal nprocs 16 end
|  3> %tddft
|  4>  sf true
|  5>  nroots 2 Iroot 1 end
|  6> *xyz 0 3
|  7> O   0.06205695334 0.82226519326207 -7.404145095e-05
|  8> C   0.69977469551352 -0.40402021671564 6.603111605e-05
|  9> C   -0.72779949401635 -0.49983786865896 -8.395884284e-05
| 10> H   1.24457486183211 -0.65405708273903 0.90712469771802
| 11> H   1.24442991002247 -0.65417302396337 -0.90706987711121
| 12> H   -1.2605229611099 -0.66447878185161 -0.92329446981153
| 13> H   -1.26031396558184 -0.66409821933346 0.92333161838246
| 14> *
| 15>
| 16>                          ****END OF INPUT****

CARTESIAN COORDINATES (ANGSTROEM)
---------------------------------
  O      0.062057    0.822265   -0.000074
  C      0.699775   -0.404020    0.000066
  C     -0.727799   -0.499838   -0.000084
  H      1.244575   -0.654057    0.907125
  H      1.244430   -0.654173   -0.907070
  H     -1.260523   -0.664479   -0.923294
  H     -1.260314   -0.664098    0.923332

 Total Charge           Charge          ....    0
 Multiplicity           Mult            ....    3
 Number of Electrons    NEL             ....   24
 Basis Dimension        Dim             ....  182

ORBITAL ENERGIES
----------------
                 SPIN UP ORBITALS
  NO   OCC          E(Eh)            E(eV)
   0   1.0000     -19.471012      -529.8332
   1   1.0000     -10.424527      -283.6658
   2   1.0000     -10.368216      -282.1335
   3   1.0000      -1.295844       -35.2617
   4   1.0000      -0.865249       -23.5446
   5   1.0000      -0.780916       -21.2498
   6   1.0000      -0.688950       -18.7473
   7   1.0000      -0.651631       -17.7318
   8   1.0000      -0.573707       -15.6114
   9   1.0000      -0.508513       -13.8373
  10   1.0000      -0.500022       -13.6063
  11   1.0000      -0.474130       -12.9017
  12   1.0000      -0.146673        -3.9912
  13   0.0000       0.036477         0.9926
  14   0.0000       0.060734         1.6527
  15   0.0000       0.070296         1.9129
  16   0.0000       0.087266         2.3746
  17   0.0000       0.109220         2.9720

                 SPIN DOWN ORBITALS
  NO   OCC          E(Eh)            E(eV)
   0   1.0000     -19.438242      -528.9415
   1   1.0000     -10.424675      -283.6698
   2   1.0000     -10.360004      -281.9100
   3   1.0000      -1.229284       -33.4505
   4   1.0000      -0.831726       -22.6324
   5   1.0000      -0.762485       -20.7483
   6   1.0000      -0.633272       -17.2322
   7   1.0000      -0.619580       -16.8596
   8   1.0000      -0.535176       -14.5629
   9   1.0000      -0.485358       -13.2073
  10   1.0000      -0.443555       -12.0697
  11   0.0000      -0.118395        -3.2217
  12   0.0000       0.032993         0.8978
  13   0.0000       0.056773         1.5449
  14   0.0000       0.064392         1.7522
  15   0.0000       0.064470         1.7543

----------------------------------------------------------------------------------------------------
          SPIN FLIP ABSORPTION SPECTRUM VIA TRANSITION ELECTRIC DIPOLE MOMENTS
----------------------------------------------------------------------------------------------------
     Transition      Energy     Energy  Wavelength fosc(D2)      D2        DX        DY        DZ
                      (eV)      (cm-1)    (nm)                 (au**2)    (au)      (au)      (au)
----------------------------------------------------------------------------------------------------
  1-3A  ->  2-3A    6.398978   51611.2   193.8   0.007662587   0.04888  -0.00013  -0.00008   0.22108

Dispersion correction             ... done (  0.0 sec)

MULLIKEN ATOMIC CHARGES AND SPIN DENSITIES
------------------------------------------
   0 O :   -0.372066    0.067539
   1 C :   -0.100748   -0.111874
   2 C :   -0.475663    0.043881
   3 H :    0.188306    0.020029
   4 H :    0.188234    0.020070
   5 H :    0.286002   -0.019832
   6 H :    0.285936   -0.019812
Sum of atomic charges       :   -0.0000000

LOEWDIN ATOMIC CHARGES AND SPIN DENSITIES
-----------------------------------------
   0 O :   -0.070743    0.042063
   1 C :   -0.111949   -0.009050
   2 C :    0.112526   -0.023584
   3 H :    0.021211    0.003544
   4 H :    0.021212    0.003546
   5 H :    0.013879   -0.008261
   6 H :    0.013864   -0.008258

  Mayer bond orders larger than 0.100000
B(  0-O ,  1-C ) :   0.8196 B(  0-O ,  2-C ) :   0.8807 B(  1-C ,  2-C ) :   0.6911
B(  1-C ,  3-H ) :   1.0224 B(  1-C ,  4-H ) :   1.0224 B(  2-C ,  5-H ) :   0.9228
B(  2-C ,  6-H ) :   0.9229

Dispersion correction           -0.005236423
FINAL SINGLE POINT ENERGY      -153.868244444423

DIPOLE MOMENT
-------------

Method             : TDA/CIS
Type of density    : Electron Density
Level              : Relaxed density
State              :   1
Multiplicity       :   3
Irrep              :   0
Energy             :     0.0000000000000000 Eh
Relativity type    :
Basis              : AO
                                X                 Y                 Z
Electronic contribution:     -0.095913199       1.138904009      -0.000161198
Nuclear contribution   :     -0.082325432      -2.430951096       0.000196984
                        -----------------------------------------
Total Dipole Moment    :     -0.178238632      -1.292047087       0.000035786
                        -----------------------------------------
Magnitude (a.u.)       :      1.304283207
Magnitude (Debye)      :      3.315224448

Rotational constants in cm-1:             0.863129             0.721226             0.466331
Rotational constants in MHz :         25875.954413         21621.826273         13980.264709

                             ****ORCA TERMINATED NORMALLY****
TOTAL RUN TIME: 0 days 0 hours 0 minutes 20 seconds 297 msec
