                         Program Version 6.0.0  -   RELEASE  -
|  1> ! Engrad def2-TZVPPD wB97M-D3BJ
|  2> %pal nprocs 8 end%pal nprocs 64 end
|  3> %tddft
|  4>  Iroot 1 Nroots 3
|  5> sf true
|  6> end
|  7> *xyz 0 3
|  8> O   3.16215721 -1.44657954 -1.83601188
|  9> O   -2.31487107 1.32848073 -1.643529
| 10> O   -1.19481722 -2.29331251 -1.06780524
| 11> O   -2.62457375 0.92767798 2.87554847
| 12> N   0.09292715 -1.48520166 0.62182234
| 13> N   -0.62957493 1.03868603 2.02425181
| 14> N   0.83140627 -1.62989091 -1.57878919
| 15> N   -2.50496714 0.98995885 0.58257834
| 16> C   2.20113785 -0.56971552 -0.00483422
| 17> C   -0.35367951 1.18437252 -0.3778699
| 18> C   1.04579466 -0.39821095 0.93039722
| 19> C   0.3605634 1.02858857 0.93808909
| 20> C   3.48741968 -0.01402465 0.34617024
| 21> C   0.42013654 1.62618285 -1.54151633
| 22> C   2.1363634 -1.3013132 -1.21363526
| 23> C   -1.7936386 1.13526498 -0.56591654
| 24> C   -0.16258686 -1.81479882 -0.68985678
| 25> C   -1.97678347 0.93431535 1.85618793
| 26> H   1.52509209 -0.63844377 1.88040192
| 27> H   1.16193737 1.73730019 1.0941712
| 28> H   3.84592896 -0.52112421 1.30365312
| 29> H   4.29455003 -0.09908251 -0.39346968
| 30> H   3.49900518 1.07739696 0.53371779
| 31> H   -0.01399406 2.57341487 -1.76354715
| 32> H   1.5314865 1.70057623 -1.4150007
| 33> H   0.18642154 1.04017054 -2.52578512
| 34> H   -0.85872724 -1.33588493 1.02107272
| 35> H   -0.41140368 0.95315132 3.03855717
| 36> H   0.79869624 -2.08980875 -2.49090581
| 37> H   -3.48874392 0.80680654 0.47680598
| 38> *
| 39>
| 40>                          ****END OF INPUT****

CARTESIAN COORDINATES (ANGSTROEM)
---------------------------------
  O      3.162157   -1.446580   -1.836012
  O     -2.314871    1.328481   -1.643529
  O     -1.194817   -2.293313   -1.067805
  O     -2.624574    0.927678    2.875548
  N      0.092927   -1.485202    0.621822
  N     -0.629575    1.038686    2.024252
  N      0.831406   -1.629891   -1.578789
  N     -2.504967    0.989959    0.582578
  C      2.201138   -0.569716   -0.004834
  C     -0.353680    1.184373   -0.377870
  C      1.045795   -0.398211    0.930397
  C      0.360563    1.028589    0.938089
  C      3.487420   -0.014025    0.346170
  C      0.420137    1.626183   -1.541516
  C      2.136363   -1.301313   -1.213635
  C     -1.793639    1.135265   -0.565917
  C     -0.162587   -1.814799   -0.689857
  C     -1.976783    0.934315    1.856188
  H      1.525092   -0.638444    1.880402
  H      1.161937    1.737300    1.094171
  H      3.845929   -0.521124    1.303653
  H      4.294550   -0.099083   -0.393470
  H      3.499005    1.077397    0.533718
  H     -0.013994    2.573415   -1.763547
  H      1.531486    1.700576   -1.415001
  H      0.186422    1.040171   -2.525785
  H     -0.858727   -1.335885    1.021073
  H     -0.411404    0.953151    3.038557
  H      0.798696   -2.089809   -2.490906
  H     -3.488744    0.806807    0.476806

 Total Charge           Charge          ....    0
 Multiplicity           Mult            ....    3
 Number of Electrons    NEL             ....  132
 Basis Dimension        Dim             ....  882

ORBITAL ENERGIES
----------------
                 SPIN UP ORBITALS
  NO   OCC          E(Eh)            E(eV)
   0   1.0000     -19.339219      -526.2469
   1   1.0000     -19.334581      -526.1207
   2   1.0000     -19.318022      -525.6701
   3   1.0000     -19.317264      -525.6495
   4   1.0000     -14.572905      -396.5489
   5   1.0000     -14.566281      -396.3687
   6   1.0000     -14.565744      -396.3541
   7   1.0000     -14.560683      -396.2163
   8   1.0000     -10.508212      -285.9430
   9   1.0000     -10.499697      -285.7113
  10   1.0000     -10.482961      -285.2559
  11   1.0000     -10.476899      -285.0909
  12   1.0000     -10.455076      -284.4971
  13   1.0000     -10.442822      -284.1636
  14   1.0000     -10.420458      -283.5551
  15   1.0000     -10.409248      -283.2500
  16   1.0000     -10.377836      -282.3953
  17   1.0000     -10.374867      -282.3145
  18   1.0000      -1.231167       -33.5018
  19   1.0000      -1.227708       -33.4076
  20   1.0000      -1.207331       -32.8532
  21   1.0000      -1.203669       -32.7535
  22   1.0000      -1.117929       -30.4204
  23   1.0000      -1.103328       -30.0231
  24   1.0000      -1.079683       -29.3797
  25   1.0000      -1.061202       -28.8768
  26   1.0000      -0.982266       -26.7288
  27   1.0000      -0.962488       -26.1906
  28   1.0000      -0.891038       -24.2464
  29   1.0000      -0.840235       -22.8640
  30   1.0000      -0.827625       -22.5208
  31   1.0000      -0.807177       -21.9644
  32   1.0000      -0.792442       -21.5634
  33   1.0000      -0.786048       -21.3895
  34   1.0000      -0.702772       -19.1234
  35   1.0000      -0.695088       -18.9143
  36   1.0000      -0.691441       -18.8151
  37   1.0000      -0.681282       -18.5386
  38   1.0000      -0.657650       -17.8956
  39   1.0000      -0.637932       -17.3590
  40   1.0000      -0.624269       -16.9872
  41   1.0000      -0.606679       -16.5086
  42   1.0000      -0.600319       -16.3355
  43   1.0000      -0.593482       -16.1495
  44   1.0000      -0.579455       -15.7678
  45   1.0000      -0.572366       -15.5749
  46   1.0000      -0.568988       -15.4830
  47   1.0000      -0.568397       -15.4669
  48   1.0000      -0.559931       -15.2365
  49   1.0000      -0.559396       -15.2219
  50   1.0000      -0.557626       -15.1738
  51   1.0000      -0.530964       -14.4483
  52   1.0000      -0.528339       -14.3768
  53   1.0000      -0.523184       -14.2366
  54   1.0000      -0.516499       -14.0546
  55   1.0000      -0.498650       -13.5690
  56   1.0000      -0.488586       -13.2951
  57   1.0000      -0.424993       -11.5647
  58   1.0000      -0.419470       -11.4143
  59   1.0000      -0.417226       -11.3533
  60   1.0000      -0.412081       -11.2133
  61   1.0000      -0.402076       -10.9410
  62   1.0000      -0.396218       -10.7816
  63   1.0000      -0.393948       -10.7199
  64   1.0000      -0.385566       -10.4918
  65   1.0000      -0.349335        -9.5059
  66   1.0000      -0.324113        -8.8196
  67   0.0000       0.011181         0.3043
  68   0.0000       0.030753         0.8368
  69   0.0000       0.033079         0.9001
  70   0.0000       0.034496         0.9387
  71   0.0000       0.053886         1.4663

                 SPIN DOWN ORBITALS
  NO   OCC          E(Eh)            E(eV)
   0   1.0000     -19.334277      -526.1124
   1   1.0000     -19.330927      -526.0213
   2   1.0000     -19.317894      -525.6666
   3   1.0000     -19.317050      -525.6437
   4   1.0000     -14.572230      -396.5305
   5   1.0000     -14.565634      -396.3510
   6   1.0000     -14.565607      -396.3503
   7   1.0000     -14.560585      -396.2137
   8   1.0000     -10.508262      -285.9443
   9   1.0000     -10.499753      -285.7128
  10   1.0000     -10.483830      -285.2795
  11   1.0000     -10.477886      -285.1178
  12   1.0000     -10.454917      -284.4928
  13   1.0000     -10.442355      -284.1509
  14   1.0000     -10.409085      -283.2456
  15   1.0000     -10.398253      -282.9508
  16   1.0000     -10.378225      -282.4059
  17   1.0000     -10.375530      -282.3325
  18   1.0000      -1.229272       -33.4502
  19   1.0000      -1.226094       -33.3637
  20   1.0000      -1.201375       -32.6911
  21   1.0000      -1.199521       -32.6406
  22   1.0000      -1.115084       -30.3430
  23   1.0000      -1.100974       -29.9590
  24   1.0000      -1.077768       -29.3276
  25   1.0000      -1.060029       -28.8448
  26   1.0000      -0.969620       -26.3847
  27   1.0000      -0.945253       -25.7216
  28   1.0000      -0.885132       -24.0857
  29   1.0000      -0.835120       -22.7248
  30   1.0000      -0.819741       -22.3063
  31   1.0000      -0.801728       -21.8161
  32   1.0000      -0.790401       -21.5079
  33   1.0000      -0.784429       -21.3454
  34   1.0000      -0.698509       -19.0074
  35   1.0000      -0.690223       -18.7819
  36   1.0000      -0.683250       -18.5922
  37   1.0000      -0.674816       -18.3627
  38   1.0000      -0.646149       -17.5826
  39   1.0000      -0.633341       -17.2341
  40   1.0000      -0.619054       -16.8453
  41   1.0000      -0.600936       -16.3523
  42   1.0000      -0.595018       -16.1913
  43   1.0000      -0.588303       -16.0085
  44   1.0000      -0.571908       -15.5624
  45   1.0000      -0.566373       -15.4118
  46   1.0000      -0.562863       -15.3163
  47   1.0000      -0.560078       -15.2405
  48   1.0000      -0.553221       -15.0539
  49   1.0000      -0.550963       -14.9925
  50   1.0000      -0.546144       -14.8613
  51   1.0000      -0.523666       -14.2497
  52   1.0000      -0.521294       -14.1851
  53   1.0000      -0.514339       -13.9959
  54   1.0000      -0.506059       -13.7706
  55   1.0000      -0.492198       -13.3934
  56   1.0000      -0.484836       -13.1931
  57   1.0000      -0.421277       -11.4635
  58   1.0000      -0.413419       -11.2497
  59   1.0000      -0.407808       -11.0970
  60   1.0000      -0.399167       -10.8619
  61   1.0000      -0.395197       -10.7538
  62   1.0000      -0.392204       -10.6724
  63   1.0000      -0.389838       -10.6080
  64   1.0000      -0.380445       -10.3524
  65   0.0000      -0.066573        -1.8116
  66   0.0000      -0.046896        -1.2761
  67   0.0000       0.010765         0.2929
  68   0.0000       0.030431         0.8281
  69   0.0000       0.033013         0.8983

----------------------------------------------------------------------------------------------------
          SPIN FLIP ABSORPTION SPECTRUM VIA TRANSITION ELECTRIC DIPOLE MOMENTS
----------------------------------------------------------------------------------------------------
     Transition      Energy     Energy  Wavelength fosc(D2)      D2        DX        DY        DZ
                      (eV)      (cm-1)    (nm)                 (au**2)    (au)      (au)      (au)
----------------------------------------------------------------------------------------------------
  1-3A  ->  2-3A    0.113725     917.3  10902.1   0.000032534   0.01168  -0.08832   0.03555   0.05112
  1-3A  ->  3-3A    2.321478   18724.0   534.1   0.000293548   0.00516   0.06684   0.00170  -0.02627

Dispersion correction             ... done (  0.1 sec)

MULLIKEN ATOMIC CHARGES AND SPIN DENSITIES
------------------------------------------
   0 O :   -0.648530    0.003351
   1 O :   -0.672621   -0.004415
   2 O :   -0.652346   -0.001393
   3 O :   -0.665227   -0.000279
   4 N :   -0.402690   -0.015481
   5 N :   -0.277508   -0.002446
   6 N :    0.063965   -0.003067
   7 N :    0.014260   -0.004601
   8 C :    0.311962    0.325714
   9 C :    0.622153    0.332407
  10 C :    0.367433   -0.159257
  11 C :    0.035210   -0.236729
  12 C :   -1.486696    0.024672
  13 C :   -1.660991    0.013641
  14 C :    0.240504   -0.170366
  15 C :    0.416693   -0.167036
  16 C :    0.360855    0.018038
  17 C :    0.474699    0.015258
  18 H :    0.583354   -0.005116
  19 H :    0.576804   -0.000745
  20 H :    0.386396    0.009015
  21 H :    0.264566   -0.000976
  22 H :    0.298883    0.008829
  23 H :    0.473109    0.009637
  24 H :    0.306612    0.001523
  25 H :    0.266763    0.001785
  26 H :    0.197134    0.001649
  27 H :    0.098649    0.001281
  28 H :    0.076674    0.002960
  29 H :    0.029929    0.002148
Sum of atomic charges       :   -0.0000000

LOEWDIN ATOMIC CHARGES AND SPIN DENSITIES
-----------------------------------------
   0 O :    0.096197    0.004068
   1 O :    0.103727   -0.002866
   2 O :    0.106976   -0.000964
   3 O :    0.079894   -0.000312
   4 N :    0.277576   -0.000725
   5 N :    0.257957   -0.000783
   6 N :    0.330758   -0.000732
   7 N :    0.340169   -0.002629
   8 C :   -0.078510    0.019257
   9 C :   -0.030508   -0.004847
  10 C :   -0.091887   -0.002215
  11 C :   -0.069875   -0.003509
  12 C :    0.157805    0.002613
  13 C :    0.176088   -0.001083
  14 C :   -0.421592   -0.001044
  15 C :   -0.436748   -0.005144
  16 C :   -0.541153   -0.000346
  17 C :   -0.505191   -0.000445
  18 H :    0.051049   -0.000152
  19 H :    0.045522   -0.000596
  20 H :    0.046575    0.001428
  21 H :    0.002974    0.000041
  22 H :    0.009786    0.000913
  23 H :   -0.013835    0.000005
  24 H :    0.024006    0.000033
  25 H :    0.069988    0.000285
  26 H :   -0.014930   -0.000018
  27 H :    0.013099   -0.000030
  28 H :    0.015097   -0.000000
  29 H :   -0.001012   -0.000205

  Mayer bond orders larger than 0.100000
B(  0-O , 14-C ) :   1.3487 B(  1-O , 13-C ) :   0.1110 B(  1-O , 15-C ) :   1.2836
B(  2-O , 16-C ) :   1.4945 B(  3-O , 17-C ) :   1.5797 B(  4-N ,  8-C ) :   0.3210
B(  4-N , 10-C ) :   0.2052 B(  4-N , 16-C ) :   1.0607 B(  4-N , 18-H ) :  -0.2224
B(  4-N , 26-H ) :   0.8136 B(  5-N ,  9-C ) :   0.1116 B(  5-N , 10-C ) :   0.1126
B(  5-N , 11-C ) :   0.5208 B(  5-N , 17-C ) :   1.1163 B(  5-N , 27-H ) :   1.0558
B(  6-N ,  8-C ) :  -0.1454 B(  6-N , 14-C ) :   1.1133 B(  6-N , 16-C ) :   0.9448
B(  6-N , 28-H ) :   1.0685 B(  7-N , 15-C ) :   1.0076 B(  7-N , 17-C ) :   0.9363
B(  7-N , 29-H ) :   1.1248 B(  8-C ,  9-C ) :   0.2102 B(  8-C , 10-C ) :   0.5178
B(  8-C , 12-C ) :   0.4655 B(  8-C , 13-C ) :   0.1660 B(  8-C , 14-C ) :   0.7877
B(  8-C , 16-C ) :   0.1039 B(  8-C , 18-H ) :  -0.1274 B(  9-C , 10-C ) :   0.1405
B(  9-C , 11-C ) :   0.9844 B(  9-C , 13-C ) :   0.1405 B(  9-C , 15-C ) :   0.6122
B(  9-C , 19-H ) :  -0.1952 B(  9-C , 24-H ) :  -0.1310 B(  9-C , 25-H ) :  -0.1412
B( 10-C , 11-C ) :   0.6518 B( 10-C , 12-C ) :  -0.1285 B( 10-C , 16-C ) :  -0.1532
B( 10-C , 18-H ) :   0.7660 B( 11-C , 13-C ) :  -0.2740 B( 11-C , 17-C ) :  -0.1620
B( 11-C , 19-H ) :   0.7994 B( 12-C , 14-C ) :  -0.1731 B( 12-C , 20-H ) :   0.8487
B( 12-C , 21-H ) :   1.0908 B( 12-C , 22-H ) :   0.9304 B( 13-C , 23-H ) :   0.6928
B( 13-C , 24-H ) :   1.1101 B( 13-C , 25-H ) :   1.0778

Dispersion correction           -0.059314349
FINAL SINGLE POINT ENERGY      -908.773152334834

DIPOLE MOMENT
-------------

Method             : TDA/CIS
Type of density    : Electron Density
Level              : Relaxed density
State              :   1
Multiplicity       :   3
Irrep              :   0
Energy             :     0.0000000000000000 Eh
Relativity type    :
Basis              : AO
                                X                 Y                 Z
Electronic contribution:     -9.532310561      -4.351470643      -0.029436869
Nuclear contribution   :     11.353607980       5.392560613       1.000460939
                        -----------------------------------------
Total Dipole Moment    :      1.821297419       1.041089971       0.971024069
                        -----------------------------------------
Magnitude (a.u.)       :      2.311683447
Magnitude (Debye)      :      5.875832361

Rotational constants in cm-1:             0.024082             0.011771             0.010752
Rotational constants in MHz :           721.953792           352.878576           322.323196

                             ****ORCA TERMINATED NORMALLY****
TOTAL RUN TIME: 0 days 0 hours 5 minutes 9 seconds 68 msec
