                         Program Version 6.0.0  -   RELEASE  -
|  1> ! Engrad def2-TZVPPD wB97M-D3BJ
|  2> %pal nprocs 8 end%pal nprocs 32 end
|  3> %tddft Nroots 2 Iroot 1
|  4> sf true
|  5> end
|  6> *xyz 0 3
|  7> O   0.41151252 1.05536827 -0.00577382
|  8> C   0.61463716 -0.27430975 0.00031121
|  9> C   -0.74795491 -0.73929734 0.00187055
| 10> H   1.17728321 -0.6051027 0.88491853
| 11> H   1.19014234 -0.60411554 -0.86805547
| 12> H   -1.30932222 -0.74569045 -0.91568145
| 13> H   -1.30164604 -0.74100676 0.93135773
| 14> *
| 15>
| 16>                          ****END OF INPUT****

CARTESIAN COORDINATES (ANGSTROEM)
---------------------------------
  O      0.411513    1.055368   -0.005774
  C      0.614637   -0.274310    0.000311
  C     -0.747955   -0.739297    0.001871
  H      1.177283   -0.605103    0.884919
  H      1.190142   -0.604116   -0.868055
  H     -1.309322   -0.745690   -0.915681
  H     -1.301646   -0.741007    0.931358

 Total Charge           Charge          ....    0
 Multiplicity           Mult            ....    3
 Number of Electrons    NEL             ....   24
 Basis Dimension        Dim             ....  182

ORBITAL ENERGIES
----------------
                 SPIN UP ORBITALS
  NO   OCC          E(Eh)            E(eV)
   0   1.0000     -19.395889      -527.7890
   1   1.0000     -10.406314      -283.1702
   2   1.0000     -10.350295      -281.6458
   3   1.0000      -1.192551       -32.4510
   4   1.0000      -0.873637       -23.7729
   5   1.0000      -0.738048       -20.0833
   6   1.0000      -0.635387       -17.2898
   7   1.0000      -0.594156       -16.1678
   8   1.0000      -0.553396       -15.0587
   9   1.0000      -0.515096       -14.0165
  10   1.0000      -0.440743       -11.9932
  11   1.0000      -0.426469       -11.6048
  12   1.0000      -0.307222        -8.3599
  13   0.0000       0.041319         1.1243
  14   0.0000       0.063338         1.7235
  15   0.0000       0.074064         2.0154
  16   0.0000       0.087048         2.3687
  17   0.0000       0.117300         3.1919

                 SPIN DOWN ORBITALS
  NO   OCC          E(Eh)            E(eV)
   0   1.0000     -19.369668      -527.0755
   1   1.0000     -10.407563      -283.2042
   2   1.0000     -10.337485      -281.2973
   3   1.0000      -1.135566       -30.9003
   4   1.0000      -0.839683       -22.8489
   5   1.0000      -0.714890       -19.4532
   6   1.0000      -0.596750       -16.2384
   7   1.0000      -0.560784       -15.2597
   8   1.0000      -0.531000       -14.4492
   9   1.0000      -0.479202       -13.0397
  10   1.0000      -0.385327       -10.4853
  11   0.0000      -0.064583        -1.7574
  12   0.0000       0.011928         0.3246
  13   0.0000       0.040187         1.0936
  14   0.0000       0.064091         1.7440
  15   0.0000       0.073552         2.0015

----------------------------------------------------------------------------------------------------
          SPIN FLIP ABSORPTION SPECTRUM VIA TRANSITION ELECTRIC DIPOLE MOMENTS
----------------------------------------------------------------------------------------------------
     Transition      Energy     Energy  Wavelength fosc(D2)      D2        DX        DY        DZ
                      (eV)      (cm-1)    (nm)                 (au**2)    (au)      (au)      (au)
----------------------------------------------------------------------------------------------------
  1-3A  ->  2-3A    1.175410    9480.3  1054.8   0.000204188   0.00709   0.00440   0.00369   0.08401

Dispersion correction             ... done (  0.1 sec)

MULLIKEN ATOMIC CHARGES AND SPIN DENSITIES
------------------------------------------
   0 O :   -0.522944   -0.357201
   1 C :   -0.109437   -0.043908
   2 C :   -0.316532    0.255017
   3 H :    0.226718    0.041120
   4 H :    0.227310    0.035734
   5 H :    0.249733    0.034847
   6 H :    0.245152    0.034390
Sum of atomic charges       :    0.0000000

LOEWDIN ATOMIC CHARGES AND SPIN DENSITIES
-----------------------------------------
   0 O :   -0.053506   -0.366410
   1 C :   -0.377253    0.018331
   2 C :    0.396202    0.273346
   3 H :    0.028024    0.008348
   4 H :    0.022326    0.005653
   5 H :   -0.010589    0.030724
   6 H :   -0.005204    0.030008

  Mayer bond orders larger than 0.100000
B(  0-O ,  1-C ) :   0.7700 B(  0-O ,  2-C ) :   0.7463 B(  1-C ,  2-C ) :   0.7559
B(  1-C ,  3-H ) :   1.0163 B(  1-C ,  4-H ) :   1.0222 B(  2-C ,  5-H ) :   0.9400
B(  2-C ,  6-H ) :   0.9451

Dispersion correction           -0.005653458
FINAL SINGLE POINT ENERGY      -153.783390496945

DIPOLE MOMENT
-------------

Method             : TDA/CIS
Type of density    : Electron Density
Level              : Relaxed density
State              :   1
Multiplicity       :   3
Irrep              :   0
Energy             :     0.0000000000000000 Eh
Relativity type    :
Basis              : AO
                                X                 Y                 Z
Electronic contribution:      0.057653391       1.223919226      -0.023690136
Nuclear contribution   :     -0.627518708      -2.684074337       0.033296164
                        -----------------------------------------
Total Dipole Moment    :     -0.569865317      -1.460155111       0.009606028
                        -----------------------------------------
Magnitude (a.u.)       :      1.567447512
Magnitude (Debye)      :      3.984134952

Rotational constants in cm-1:             1.184312             0.431476             0.360458
Rotational constants in MHz :         35504.769072         12935.333727         10806.249812

                             ****ORCA TERMINATED NORMALLY****
TOTAL RUN TIME: 0 days 0 hours 0 minutes 16 seconds 400 msec
