                         Program Version 6.0.0  -   RELEASE  -
|  1> ! Engrad def2-TZVPPD wB97M-D3BJ
|  2> %pal nprocs 8 end%pal nprocs 32 end
|  3> %tddft Nroots 2 Iroot 2
|  4> sf true
|  5> end
|  6> *xyz 0 3
|  7> O   0.55950332 0.50209878 -0.79654125
|  8> C   0.3203041 0.08978806 0.42709204
|  9> C   -0.90885642 -0.62869041 0.40927493
| 10> H   0.37233744 0.82610823 1.21183098
| 11> H   1.24391078 -0.62100061 0.67092585
| 12> H   -1.56189373 -0.71838621 -0.48708423
| 13> H   -1.08387445 -1.11989442 1.33890846
| 14> *
| 15>
| 16>                          ****END OF INPUT****

CARTESIAN COORDINATES (ANGSTROEM)
---------------------------------
  O      0.559503    0.502099   -0.796541
  C      0.320304    0.089788    0.427092
  C     -0.908856   -0.628690    0.409275
  H      0.372337    0.826108    1.211831
  H      1.243911   -0.621001    0.670926
  H     -1.561894   -0.718386   -0.487084
  H     -1.083874   -1.119894    1.338908

 Total Charge           Charge          ....    0
 Multiplicity           Mult            ....    3
 Number of Electrons    NEL             ....   24
 Basis Dimension        Dim             ....  182

ORBITAL ENERGIES
----------------
                 SPIN UP ORBITALS
  NO   OCC          E(Eh)            E(eV)
   0   1.0000     -19.380380      -527.3669
   1   1.0000     -10.410359      -283.2803
   2   1.0000     -10.364518      -282.0329
   3   1.0000      -1.190522       -32.3957
   4   1.0000      -0.884881       -24.0788
   5   1.0000      -0.729165       -19.8416
   6   1.0000      -0.615597       -16.7512
   7   1.0000      -0.606643       -16.5076
   8   1.0000      -0.561256       -15.2725
   9   1.0000      -0.518041       -14.0966
  10   1.0000      -0.440466       -11.9857
  11   1.0000      -0.404201       -10.9989
  12   1.0000      -0.314198        -8.5498
  13   0.0000       0.039934         1.0867
  14   0.0000       0.060543         1.6475
  15   0.0000       0.079934         2.1751
  16   0.0000       0.081332         2.2132
  17   0.0000       0.111542         3.0352

                 SPIN DOWN ORBITALS
  NO   OCC          E(Eh)            E(eV)
   0   1.0000     -19.358208      -526.7636
   1   1.0000     -10.411947      -283.3235
   2   1.0000     -10.350530      -281.6522
   3   1.0000      -1.142682       -31.0940
   4   1.0000      -0.850170       -23.1343
   5   1.0000      -0.701850       -19.0983
   6   1.0000      -0.586105       -15.9487
   7   1.0000      -0.562427       -15.3044
   8   1.0000      -0.535332       -14.5671
   9   1.0000      -0.499990       -13.6054
  10   1.0000      -0.375497       -10.2178
  11   0.0000      -0.054857        -1.4927
  12   0.0000       0.005939         0.1616
  13   0.0000       0.040591         1.1045
  14   0.0000       0.060235         1.6391
  15   0.0000       0.079959         2.1758

----------------------------------------------------------------------------------------------------
          SPIN FLIP ABSORPTION SPECTRUM VIA TRANSITION ELECTRIC DIPOLE MOMENTS
----------------------------------------------------------------------------------------------------
     Transition      Energy     Energy  Wavelength fosc(D2)      D2        DX        DY        DZ
                      (eV)      (cm-1)    (nm)                 (au**2)    (au)      (au)      (au)
----------------------------------------------------------------------------------------------------
  1-3A  ->  2-3A    0.324243    2615.2  3823.8   0.000235161   0.02960   0.05254  -0.08158  -0.14208

Dispersion correction             ... done (  0.1 sec)

MULLIKEN ATOMIC CHARGES AND SPIN DENSITIES
------------------------------------------
   0 O :   -0.351251   -0.435411
   1 C :    0.057283   -0.042360
   2 C :   -0.567847    0.458838
   3 H :    0.215773   -0.032516
   4 H :    0.200141    0.067240
   5 H :    0.220798   -0.006067
   6 H :    0.225103   -0.009724
Sum of atomic charges       :   -0.0000000

LOEWDIN ATOMIC CHARGES AND SPIN DENSITIES
-----------------------------------------
   0 O :    0.057316   -0.420426
   1 C :   -0.338796    0.015843
   2 C :    0.244891    0.318612
   3 H :    0.027983   -0.020244
   4 H :    0.088833    0.039945
   5 H :   -0.013422    0.033694
   6 H :   -0.066805    0.032576

  Mayer bond orders larger than 0.100000
B(  0-O ,  1-C ) :   0.8982 B(  1-C ,  2-C ) :   0.7760 B(  1-C ,  3-H ) :   0.9308
B(  1-C ,  4-H ) :   0.9294 B(  2-C ,  5-H ) :   0.9578 B(  2-C ,  6-H ) :   1.0037

Dispersion correction           -0.005626744
FINAL SINGLE POINT ENERGY      -153.737542951915

DIPOLE MOMENT
-------------

Method             : TDA/CIS
Type of density    : Electron Density
Level              : Relaxed density
State              :   2
Multiplicity       :   3
Irrep              :   0
Energy             :     0.0000000000000000 Eh
Relativity type    :
Basis              : AO
                                X                 Y                 Z
Electronic contribution:      0.905519351       1.293924723      -1.786115930
Nuclear contribution   :     -1.029831500      -1.517431004       2.548761978
                        -----------------------------------------
Total Dipole Moment    :     -0.124312149      -0.223506282       0.762646048
                        -----------------------------------------
Magnitude (a.u.)       :      0.804386451
Magnitude (Debye)      :      2.044587873

Rotational constants in cm-1:             1.382643             0.411342             0.337509
Rotational constants in MHz :         41450.605276         12331.721898         10118.254360

                             ****ORCA TERMINATED NORMALLY****
TOTAL RUN TIME: 0 days 0 hours 0 minutes 17 seconds 944 msec
