                         Program Version 6.0.0  -   RELEASE  -
|  1> ! Opt wB97M-D3BJ def2-TZVPPD
|  2> %pal nprocs 8 end %pal nprocs 64 end
|  3> %geom
|  4> Constraints
|  5>     {A 2 1 0 101.18644067796609 C }
|  6> end
|  7> MaxIter 200
|  8> end
|  9> *xyz 0 1
| 10> O   1.0279610991157941 0.9999153253419663 0.0
| 11> C   0.7509 -0.4065 0.0
| 12> C   -0.7502 -0.4076 0.0
| 13> H   1.2625 -0.6786 0.9136
| 14> H   1.2625 -0.6787 -0.9136
| 15> H   -1.2614 -0.6806 -0.9136
| 16> H   -1.2614 -0.6805 0.9136
| 17> *
| 18>
| 19>                          ****END OF INPUT****
 Total Charge           Charge          ....    0
 Multiplicity           Mult            ....    1
 Number of Electrons    NEL             ....   24
Dispersion correction           -0.005498117
FINAL SINGLE POINT ENERGY      -153.754114623463
Dispersion correction             ... done (  0.1 sec)
Dispersion correction           -0.005578019
FINAL SINGLE POINT ENERGY      -153.773389755494
Dispersion correction             ... done (  0.1 sec)
Dispersion correction           -0.005631879
FINAL SINGLE POINT ENERGY      -153.784282540810
Dispersion correction             ... done (  0.1 sec)
FINAL SINGLE POINT ENERGY      -153.792989818819
FINAL SINGLE POINT ENERGY      -153.794957303960
FINAL SINGLE POINT ENERGY      -153.795036480253
Dispersion correction             ... done (  0.1 sec)
Dispersion correction           -0.005649728
FINAL SINGLE POINT ENERGY      -153.795043876420
Dispersion correction             ... done (  0.1 sec)
Dispersion correction           -0.005648807
FINAL SINGLE POINT ENERGY      -153.795045333285
Dispersion correction             ... done (  0.0 sec)
                    ***********************HURRAY********************

CARTESIAN COORDINATES (ANGSTROEM)
---------------------------------
  O      0.783139    1.008388   -0.000020
  C      0.772079   -0.330375   -0.000078
  C     -0.642871   -0.598068    0.000021
  H      1.263093   -0.771599    0.880969
  H      1.262933   -0.771532   -0.881292
  H     -1.204096   -0.535259   -0.922994
  H     -1.203417   -0.534140    0.923394

 Multiplicity           Mult            ....    1
 Number of Electrons    NEL             ....   24
 Basis Dimension        Dim             ....  182

ORBITAL ENERGIES
----------------

  NO   OCC          E(Eh)            E(eV)
   0   2.0000     -19.328594      -525.9578
   1   2.0000     -10.447143      -284.2812
   2   2.0000     -10.397170      -282.9214
   3   2.0000      -1.126638       -30.6574
   4   2.0000      -0.884183       -24.0599
   5   2.0000      -0.733600       -19.9623
   6   2.0000      -0.624966       -17.0062
   7   2.0000      -0.573444       -15.6042
   8   2.0000      -0.517865       -14.0918
   9   2.0000      -0.512123       -13.9356
  10   2.0000      -0.367695       -10.0055
  11   2.0000      -0.353028        -9.6064
  12   0.0000      -0.061420        -1.6713
  13   0.0000       0.036158         0.9839
  14   0.0000       0.061250         1.6667
  15   0.0000       0.076304         2.0763
  16   0.0000       0.098378         2.6770

MULLIKEN ATOMIC CHARGES
-----------------------
   0 O :   -0.511229
   1 C :   -0.111736
   2 C :   -0.236868
   3 H :    0.213309
   4 H :    0.213338
   5 H :    0.216515
   6 H :    0.216673
Sum of atomic charges:    0.0000000

LOEWDIN ATOMIC CHARGES
----------------------
   0 O :   -0.018087
   1 C :   -0.404948
   2 C :    0.395601
   3 H :    0.021989
   4 H :    0.022012
   5 H :   -0.008279
   6 H :   -0.008288

  Mayer bond orders larger than 0.100000
B(  0-O ,  1-C ) :   0.7391 B(  0-O ,  2-C ) :   0.8887 B(  1-C ,  2-C ) :   0.7851
B(  1-C ,  3-H ) :   1.0417 B(  1-C ,  4-H ) :   1.0416 B(  2-C ,  5-H ) :   0.9679
B(  2-C ,  6-H ) :   0.9679

Dispersion correction           -0.005648820
FINAL SINGLE POINT ENERGY      -153.795045681208

DIPOLE MOMENT
-------------

Method             : SCF
Type of density    : Electron Density
Multiplicity       :   1
Irrep              :   0
Energy             :  -153.7893968615225617 Eh
Relativity type    :
Basis              : AO
                                X                 Y                 Z
Electronic contribution:      0.311384608       1.383411279      -0.000181119
Nuclear contribution   :     -1.091712231      -2.636927650       0.000151411
                        -----------------------------------------
Total Dipole Moment    :     -0.780327623      -1.253516371      -0.000029707
                        -----------------------------------------
Magnitude (a.u.)       :      1.476554940
Magnitude (Debye)      :      3.753104394

Rotational constants in cm-1:             1.201559             0.426133             0.358502
Rotational constants in MHz :         36021.839320         12775.160582         10747.605551

                             ****ORCA TERMINATED NORMALLY****
TOTAL RUN TIME: 0 days 0 hours 1 minutes 58 seconds 980 msec
