                         Program Version 6.0.0  -   RELEASE  -
|  1> ! Engrad def2-TZVPPD wB97M-D3BJ
|  2> %pal nprocs 8 end%pal nprocs 64 end
|  3> %tddft Nroots 2 Iroot 2
|  4> sf true
|  5> end
|  6> *xyz 0 3
|  7> O   3.11789204 0.53801556 -0.85813864
|  8> O   -0.44090619 1.34317574 -2.31400634
|  9> O   0.42613279 -3.06703736 -0.54608588
| 10> O   -3.14861769 -1.59576755 -0.24639961
| 11> N   0.28505229 -1.51818513 1.10255696
| 12> N   -2.12939861 -0.02855266 1.04689857
| 13> N   1.58871736 -1.14207 -0.79158641
| 14> N   -1.50706556 -0.30776928 -1.17481764
| 15> C   1.58950977 0.51818984 0.94873876
| 16> C   -0.63765601 1.56472146 0.05014897
| 17> C   0.37719205 -0.1494989 1.57765866
| 18> C   -0.91654252 0.72453344 1.27256637
| 19> C   2.31205304 1.58881436 1.69172058
| 20> C   -0.59522729 3.04547847 0.11200719
| 21> C   2.17091513 0.01393673 -0.28221379
| 22> C   -0.8229558 0.91066278 -1.23727108
| 23> C   0.73141331 -1.98181759 -0.1071222
| 24> C   -2.31642168 -0.72301589 -0.12936803
| 25> H   0.50258817 -0.1781469 2.65956213
| 26> H   -1.078416 1.37944944 2.13451243
| 27> H   3.00709359 2.11852681 1.04920893
| 28> H   1.62302128 2.31257774 2.16454427
| 29> H   2.86923065 1.14755673 2.52771075
| 30> H   -1.5757267 3.43324586 0.37882797
| 31> H   0.0581592 3.40260104 0.90603201
| 32> H   -0.2886923 3.43076832 -0.85846958
| 33> H   -0.37700404 -2.1350027 1.54640788
| 34> H   -2.67575548 -0.36187753 1.82663835
| 35> H   1.99505966 -1.50807372 -1.65405494
| 36> H   -1.66063818 -0.78700275 -2.0574769
| 37> *
| 38>
| 39>                          ****END OF INPUT****

CARTESIAN COORDINATES (ANGSTROEM)
---------------------------------
  O      3.117892    0.538016   -0.858139
  O     -0.440906    1.343176   -2.314006
  O      0.426133   -3.067037   -0.546086
  O     -3.148618   -1.595768   -0.246400
  N      0.285052   -1.518185    1.102557
  N     -2.129399   -0.028553    1.046899
  N      1.588717   -1.142070   -0.791586
  N     -1.507066   -0.307769   -1.174818
  C      1.589510    0.518190    0.948739
  C     -0.637656    1.564721    0.050149
  C      0.377192   -0.149499    1.577659
  C     -0.916543    0.724533    1.272566
  C      2.312053    1.588814    1.691721
  C     -0.595227    3.045478    0.112007
  C      2.170915    0.013937   -0.282214
  C     -0.822956    0.910663   -1.237271
  C      0.731413   -1.981818   -0.107122
  C     -2.316422   -0.723016   -0.129368
  H      0.502588   -0.178147    2.659562
  H     -1.078416    1.379449    2.134512
  H      3.007094    2.118527    1.049209
  H      1.623021    2.312578    2.164544
  H      2.869231    1.147557    2.527711
  H     -1.575727    3.433246    0.378828
  H      0.058159    3.402601    0.906032
  H     -0.288692    3.430768   -0.858470
  H     -0.377004   -2.135003    1.546408
  H     -2.675755   -0.361878    1.826638
  H      1.995060   -1.508074   -1.654055
  H     -1.660638   -0.787003   -2.057477

 Total Charge           Charge          ....    0
 Multiplicity           Mult            ....    3
 Number of Electrons    NEL             ....  132
 Basis Dimension        Dim             ....  882

ORBITAL ENERGIES
----------------
                 SPIN UP ORBITALS
  NO   OCC          E(Eh)            E(eV)
   0   1.0000     -19.334254      -526.1118
   1   1.0000     -19.331135      -526.0269
   2   1.0000     -19.318688      -525.6882
   3   1.0000     -19.312899      -525.5307
   4   1.0000     -14.563669      -396.2976
   5   1.0000     -14.561351      -396.2345
   6   1.0000     -14.559654      -396.1883
   7   1.0000     -14.558051      -396.1447
   8   1.0000     -10.503851      -285.8243
   9   1.0000     -10.500310      -285.7280
  10   1.0000     -10.480859      -285.1987
  11   1.0000     -10.478820      -285.1432
  12   1.0000     -10.446048      -284.2514
  13   1.0000     -10.444840      -284.2185
  14   1.0000     -10.419764      -283.5362
  15   1.0000     -10.414922      -283.4044
  16   1.0000     -10.376804      -282.3672
  17   1.0000     -10.373585      -282.2796
  18   1.0000      -1.219063       -33.1724
  19   1.0000      -1.212956       -33.0062
  20   1.0000      -1.193891       -32.4874
  21   1.0000      -1.189935       -32.3798
  22   1.0000      -1.116891       -30.3921
  23   1.0000      -1.094269       -29.7766
  24   1.0000      -1.064071       -28.9548
  25   1.0000      -1.053137       -28.6573
  26   1.0000      -0.983598       -26.7651
  27   1.0000      -0.949706       -25.8428
  28   1.0000      -0.889139       -24.1947
  29   1.0000      -0.836974       -22.7752
  30   1.0000      -0.830476       -22.5984
  31   1.0000      -0.801188       -21.8014
  32   1.0000      -0.785083       -21.3632
  33   1.0000      -0.778232       -21.1768
  34   1.0000      -0.698801       -19.0154
  35   1.0000      -0.694771       -18.9057
  36   1.0000      -0.688180       -18.7263
  37   1.0000      -0.665273       -18.1030
  38   1.0000      -0.654301       -17.8044
  39   1.0000      -0.647384       -17.6162
  40   1.0000      -0.616663       -16.7803
  41   1.0000      -0.602527       -16.3956
  42   1.0000      -0.587865       -15.9966
  43   1.0000      -0.581533       -15.8243
  44   1.0000      -0.580194       -15.7879
  45   1.0000      -0.573790       -15.6136
  46   1.0000      -0.566071       -15.4036
  47   1.0000      -0.559028       -15.2119
  48   1.0000      -0.555779       -15.1235
  49   1.0000      -0.550065       -14.9680
  50   1.0000      -0.546643       -14.8749
  51   1.0000      -0.540902       -14.7187
  52   1.0000      -0.528772       -14.3886
  53   1.0000      -0.524419       -14.2702
  54   1.0000      -0.512076       -13.9343
  55   1.0000      -0.507917       -13.8211
  56   1.0000      -0.490540       -13.3483
  57   1.0000      -0.418793       -11.3959
  58   1.0000      -0.415143       -11.2966
  59   1.0000      -0.408490       -11.1156
  60   1.0000      -0.404944       -11.0191
  61   1.0000      -0.396378       -10.7860
  62   1.0000      -0.391851       -10.6628
  63   1.0000      -0.386767       -10.5245
  64   1.0000      -0.384630       -10.4663
  65   1.0000      -0.356142        -9.6911
  66   1.0000      -0.314587        -8.5603
  67   0.0000       0.004795         0.1305
  68   0.0000       0.027721         0.7543
  69   0.0000       0.030296         0.8244
  70   0.0000       0.038702         1.0531
  71   0.0000       0.055497         1.5101

                 SPIN DOWN ORBITALS
  NO   OCC          E(Eh)            E(eV)
   0   1.0000     -19.329989      -525.9957
   1   1.0000     -19.326414      -525.8985
   2   1.0000     -19.318431      -525.6812
   3   1.0000     -19.312792      -525.5278
   4   1.0000     -14.563023      -396.2800
   5   1.0000     -14.561033      -396.2258
   6   1.0000     -14.559225      -396.1767
   7   1.0000     -14.557830      -396.1387
   8   1.0000     -10.503865      -285.8247
   9   1.0000     -10.500332      -285.7286
  10   1.0000     -10.481830      -285.2251
  11   1.0000     -10.479857      -285.1714
  12   1.0000     -10.445959      -284.2490
  13   1.0000     -10.444392      -284.2064
  14   1.0000     -10.408120      -283.2193
  15   1.0000     -10.402976      -283.0794
  16   1.0000     -10.377387      -282.3831
  17   1.0000     -10.374110      -282.2939
  18   1.0000      -1.217317       -33.1249
  19   1.0000      -1.211317       -32.9616
  20   1.0000      -1.188822       -32.3495
  21   1.0000      -1.184383       -32.2287
  22   1.0000      -1.114123       -30.3168
  23   1.0000      -1.092049       -29.7162
  24   1.0000      -1.062259       -28.9055
  25   1.0000      -1.051637       -28.6165
  26   1.0000      -0.969050       -26.3692
  27   1.0000      -0.932898       -25.3855
  28   1.0000      -0.883962       -24.0538
  29   1.0000      -0.832040       -22.6410
  30   1.0000      -0.821640       -22.3580
  31   1.0000      -0.795769       -21.6540
  32   1.0000      -0.783556       -21.3216
  33   1.0000      -0.776602       -21.1324
  34   1.0000      -0.693397       -18.8683
  35   1.0000      -0.687378       -18.7045
  36   1.0000      -0.681271       -18.5383
  37   1.0000      -0.656763       -17.8714
  38   1.0000      -0.644950       -17.5500
  39   1.0000      -0.643258       -17.5039
  40   1.0000      -0.613732       -16.7005
  41   1.0000      -0.598563       -16.2877
  42   1.0000      -0.581651       -15.8275
  43   1.0000      -0.574601       -15.6357
  44   1.0000      -0.571941       -15.5633
  45   1.0000      -0.564101       -15.3500
  46   1.0000      -0.559661       -15.2292
  47   1.0000      -0.553285       -15.0556
  48   1.0000      -0.552028       -15.0215
  49   1.0000      -0.541854       -14.7446
  50   1.0000      -0.539244       -14.6736
  51   1.0000      -0.532393       -14.4872
  52   1.0000      -0.522062       -14.2060
  53   1.0000      -0.515549       -14.0288
  54   1.0000      -0.504603       -13.7310
  55   1.0000      -0.498161       -13.5557
  56   1.0000      -0.484817       -13.1925
  57   1.0000      -0.414909       -11.2902
  58   1.0000      -0.411636       -11.2012
  59   1.0000      -0.402793       -10.9605
  60   1.0000      -0.391010       -10.6399
  61   1.0000      -0.386936       -10.5291
  62   1.0000      -0.384050       -10.4505
  63   1.0000      -0.382318       -10.4034
  64   1.0000      -0.375527       -10.2186
  65   0.0000      -0.076864        -2.0916
  66   0.0000      -0.027357        -0.7444
  67   0.0000       0.004510         0.1227
  68   0.0000       0.027896         0.7591
  69   0.0000       0.030130         0.8199

----------------------------------------------------------------------------------------------------
          SPIN FLIP ABSORPTION SPECTRUM VIA TRANSITION ELECTRIC DIPOLE MOMENTS
----------------------------------------------------------------------------------------------------
     Transition      Energy     Energy  Wavelength fosc(D2)      D2        DX        DY        DZ
                      (eV)      (cm-1)    (nm)                 (au**2)    (au)      (au)      (au)
----------------------------------------------------------------------------------------------------
  1-3A  ->  2-3A    0.622951    5024.4  1990.3   0.000049151   0.00322  -0.03989   0.03075  -0.02615

Dispersion correction             ... done (  0.1 sec)

MULLIKEN ATOMIC CHARGES AND SPIN DENSITIES
------------------------------------------
   0 O :   -0.700277    0.004267
   1 O :   -0.681978   -0.007637
   2 O :   -0.663006   -0.000183
   3 O :   -0.650294   -0.000340
   4 N :   -0.281936    0.003562
   5 N :   -0.308469   -0.000627
   6 N :    0.054367   -0.003367
   7 N :    0.057198    0.003943
   8 C :    0.673594    0.476569
   9 C :    0.845335    0.365189
  10 C :   -0.206696   -0.249839
  11 C :    0.436342   -0.174611
  12 C :   -1.321214    0.054477
  13 C :   -1.355872    0.011878
  14 C :    0.252057   -0.309407
  15 C :   -0.218784   -0.268330
  16 C :    0.448145    0.018154
  17 C :    0.352455    0.013963
  18 H :    0.611656    0.013271
  19 H :    0.466344    0.000371
  20 H :    0.294888   -0.006375
  21 H :    0.326116    0.012812
  22 H :    0.371158    0.012844
  23 H :    0.350302    0.006797
  24 H :    0.254728    0.018280
  25 H :    0.347038   -0.003705
  26 H :    0.056730    0.001342
  27 H :    0.091141    0.001162
  28 H :    0.047446    0.004225
  29 H :    0.051488    0.001315
Sum of atomic charges       :   -0.0000000

LOEWDIN ATOMIC CHARGES AND SPIN DENSITIES
-----------------------------------------
   0 O :    0.082347    0.004777
   1 O :    0.090690   -0.009241
   2 O :    0.089675    0.000257
   3 O :    0.090680    0.000252
   4 N :    0.279413   -0.000606
   5 N :    0.276262   -0.000822
   6 N :    0.321770   -0.001858
   7 N :    0.322638   -0.001734
   8 C :   -0.022270    0.034392
   9 C :   -0.030605   -0.010241
  10 C :   -0.081215   -0.001820
  11 C :   -0.102306   -0.003252
  12 C :    0.189336    0.003128
  13 C :    0.204542   -0.003789
  14 C :   -0.402230   -0.000783
  15 C :   -0.405355   -0.007551
  16 C :   -0.503387   -0.000249
  17 C :   -0.489654   -0.000170
  18 H :    0.050021   -0.000760
  19 H :    0.056815   -0.000177
  20 H :   -0.001885    0.000061
  21 H :    0.000090    0.000556
  22 H :    0.014792    0.001635
  23 H :    0.011743   -0.000986
  24 H :   -0.012014   -0.000639
  25 H :    0.006163    0.000066
  26 H :   -0.024693   -0.000042
  27 H :   -0.025847   -0.000103
  28 H :    0.009875   -0.000159
  29 H :    0.004611   -0.000140

  Mayer bond orders larger than 0.100000
B(  0-O , 14-C ) :   1.2362 B(  1-O , 15-C ) :   1.3913 B(  2-O , 16-C ) :   1.5224
B(  3-O , 17-C ) :   1.5371 B(  4-N ,  8-C ) :   0.2636 B(  4-N , 10-C ) :   0.3922
B(  4-N , 16-C ) :   1.0434 B(  4-N , 26-H ) :   1.0993 B(  5-N ,  9-C ) :   0.2872
B(  5-N , 17-C ) :   1.1653 B(  5-N , 27-H ) :   1.0439 B(  6-N , 10-C ) :   0.1116
B(  6-N , 14-C ) :   1.0445 B(  6-N , 16-C ) :   0.9623 B(  6-N , 28-H ) :   1.0910
B(  7-N , 11-C ) :   0.1304 B(  7-N , 15-C ) :   0.9489 B(  7-N , 17-C ) :   0.9851
B(  7-N , 29-H ) :   1.0742 B(  8-C ,  9-C ) :   0.1974 B(  8-C , 10-C ) :   0.2981
B(  8-C , 12-C ) :   0.4745 B(  8-C , 14-C ) :   0.7324 B(  8-C , 18-H ) :  -0.1090
B(  8-C , 20-H ) :  -0.1174 B(  9-C , 10-C ) :   0.1298 B(  9-C , 11-C ) :   0.3992
B(  9-C , 13-C ) :   0.4681 B(  9-C , 15-C ) :   0.4753 B( 10-C , 11-C ) :   0.6352
B( 10-C , 16-C ) :  -0.1216 B( 10-C , 18-H ) :   0.6283 B( 11-C , 13-C ) :  -0.1738
B( 11-C , 17-C ) :  -0.2084 B( 11-C , 19-H ) :   0.9095 B( 12-C , 20-H ) :   1.0586
B( 12-C , 21-H ) :   0.8676 B( 12-C , 22-H ) :   0.8526 B( 13-C , 23-H ) :   0.8524
B( 13-C , 24-H ) :   0.9880 B( 13-C , 25-H ) :   0.9524 B( 15-C , 17-C ) :  -0.1402

Dispersion correction           -0.059958864
FINAL SINGLE POINT ENERGY      -908.795569476444

DIPOLE MOMENT
-------------

Method             : TDA/CIS
Type of density    : Electron Density
Level              : Relaxed density
State              :   2
Multiplicity       :   3
Irrep              :   0
Energy             :     0.0000000000000000 Eh
Relativity type    :
Basis              : AO
                                X                 Y                 Z
Electronic contribution:     -2.465579302     -10.166341162      -7.161271339
Nuclear contribution   :      2.252445860      11.795355011      10.059750775
                        -----------------------------------------
Total Dipole Moment    :     -0.213133442       1.629013849       2.898479436
                        -----------------------------------------
Magnitude (a.u.)       :      3.331710525
Magnitude (Debye)      :      8.468535149

Rotational constants in cm-1:             0.019427             0.015620             0.012745
Rotational constants in MHz :           582.420139           468.274265           382.081435

                             ****ORCA TERMINATED NORMALLY****
TOTAL RUN TIME: 0 days 0 hours 4 minutes 35 seconds 488 msec
