                         Program Version 6.0.0  -   RELEASE  -
|  1> ! Engrad wB97M-D3BJ def2-TZVPPD
|  2> %pal nprocs 8 end%pal nprocs 16 end
|  3> %tddft nroots 2 Iroot 2
|  4>  sf true
|  5> end
|  6> *xyz 0 3
|  7> O   1.41341493109207 1.03735599797304 -0.08494232267931
|  8> C   0.93702648350109 -0.00929146737313 0.25966412121483
|  9> C   -0.31354731892484 -0.67334190189729 -0.22805747800944
| 10> H   1.45915340682676 -0.59853384402645 1.04247326141783
| 11> H   -0.05554387684619 -1.6585074703009 -0.61770061636135
| 12> H   -0.81366774565388 -0.08611426361129 -0.99296091490376
| 13> H   -0.97869757833856 -0.83033228867601 0.62152394932121
| 14> *
| 15>
| 16>                          ****END OF INPUT****

CARTESIAN COORDINATES (ANGSTROEM)
---------------------------------
  O      1.413415    1.037356   -0.084942
  C      0.937026   -0.009291    0.259664
  C     -0.313547   -0.673342   -0.228057
  H      1.459153   -0.598534    1.042473
  H     -0.055544   -1.658507   -0.617701
  H     -0.813668   -0.086114   -0.992961
  H     -0.978698   -0.830332    0.621524

 Total Charge           Charge          ....    0
 Multiplicity           Mult            ....    3
 Number of Electrons    NEL             ....   24
 Basis Dimension        Dim             ....  182

ORBITAL ENERGIES
----------------
                 SPIN UP ORBITALS
  NO   OCC          E(Eh)            E(eV)
   0   1.0000     -19.408697      -528.1375
   1   1.0000     -10.379484      -282.4401
   2   1.0000     -10.367757      -282.1210
   3   1.0000      -1.245380       -33.8885
   4   1.0000      -0.884232       -24.0612
   5   1.0000      -0.717305       -19.5189
   6   1.0000      -0.633531       -17.2393
   7   1.0000      -0.588034       -16.0012
   8   1.0000      -0.581636       -15.8271
   9   1.0000      -0.515646       -14.0314
  10   1.0000      -0.514609       -14.0032
  11   1.0000      -0.431463       -11.7407
  12   1.0000      -0.219395        -5.9700
  13   0.0000       0.040167         1.0930
  14   0.0000       0.060135         1.6364
  15   0.0000       0.078220         2.1285
  16   0.0000       0.087793         2.3890
  17   0.0000       0.107420         2.9230

                 SPIN DOWN ORBITALS
  NO   OCC          E(Eh)            E(eV)
   0   1.0000     -19.381212      -527.3896
   1   1.0000     -10.369229      -282.1611
   2   1.0000     -10.365656      -282.0638
   3   1.0000      -1.188104       -32.3300
   4   1.0000      -0.865111       -23.5409
   5   1.0000      -0.672220       -18.2920
   6   1.0000      -0.585842       -15.9416
   7   1.0000      -0.541101       -14.7241
   8   1.0000      -0.535641       -14.5755
   9   1.0000      -0.498906       -13.5759
  10   1.0000      -0.471488       -12.8299
  11   0.0000      -0.083270        -2.2659
  12   0.0000       0.040739         1.1086
  13   0.0000       0.059801         1.6273
  14   0.0000       0.077998         2.1224
  15   0.0000       0.084431         2.2975

----------------------------------------------------------------------------------------------------
          SPIN FLIP ABSORPTION SPECTRUM VIA TRANSITION ELECTRIC DIPOLE MOMENTS
----------------------------------------------------------------------------------------------------
     Transition      Energy     Energy  Wavelength fosc(D2)      D2        DX        DY        DZ
                      (eV)      (cm-1)    (nm)                 (au**2)    (au)      (au)      (au)
----------------------------------------------------------------------------------------------------
  1-3A  ->  2-3A    4.609127   37175.1   269.0   0.000149986   0.00133   0.01919  -0.01720  -0.02578

Dispersion correction             ... done (  0.0 sec)

MULLIKEN ATOMIC CHARGES AND SPIN DENSITIES
------------------------------------------
   0 O :   -0.262617    0.581212
   1 C :    0.223898   -0.614626
   2 C :   -0.710669    0.119000
   3 H :    0.096460    0.010101
   4 H :    0.201895   -0.047136
   5 H :    0.248320   -0.002993
   6 H :    0.202714   -0.045559
Sum of atomic charges       :    0.0000000

LOEWDIN ATOMIC CHARGES AND SPIN DENSITIES
-----------------------------------------
   0 O :    0.159374    0.392308
   1 C :   -0.258391   -0.343854
   2 C :    0.134731   -0.015107
   3 H :    0.011340    0.002590
   4 H :   -0.019354   -0.020919
   5 H :   -0.008333    0.005886
   6 H :   -0.019366   -0.020904

  Mayer bond orders larger than 0.100000
B(  0-O ,  1-C ) :   1.2823 B(  1-C ,  2-C ) :   0.6297 B(  1-C ,  3-H ) :   1.0059
B(  2-C ,  4-H ) :   1.0126 B(  2-C ,  5-H ) :   0.9317 B(  2-C ,  6-H ) :   1.0114

Dispersion correction           -0.005526630
FINAL SINGLE POINT ENERGY      -153.754903400800

DIPOLE MOMENT
-------------

Method             : TDA/CIS
Type of density    : Electron Density
Level              : Relaxed density
State              :   2
Multiplicity       :   3
Irrep              :   0
Energy             :     0.0000000000000000 Eh
Relativity type    :
Basis              : AO
                                X                 Y                 Z
Electronic contribution:      2.503111728       2.906842045      -0.078710732
Nuclear contribution   :     -2.884670131      -3.406549984       0.127941293
                        -----------------------------------------
Total Dipole Moment    :     -0.381558403      -0.499707940       0.049230562
                        -----------------------------------------
Magnitude (a.u.)       :      0.630649259
Magnitude (Debye)      :      1.602983026

Rotational constants in cm-1:             2.031525             0.330770             0.300147
Rotational constants in MHz :         60903.589987          9916.223768          8998.188095

                             ****ORCA TERMINATED NORMALLY****
TOTAL RUN TIME: 0 days 0 hours 0 minutes 16 seconds 80 msec
