                         Program Version 6.0.0  -   RELEASE  -
|  1> ! opt def2-TZVPPD wB97M-D3BJ
|  2> %pal nprocs 8 end%pal nprocs 64 end
|  3> %geom Constraints
|  4> {B 9 8 3.5 C}
|  5> {A 8 9 11 79.71428571428571 C}
|  6> end
|  7> MaxIter 300
|  8> end
|  9> *xyz 0 1
| 10> O   2.98579685529314 0.88758230159078 -0.86184571092411
| 11> O   -0.03983205397054 0.68929041702508 -2.10362336723772
| 12> O   0.93431434349854 -3.13274393337945 -0.68767288184107
| 13> O   -3.75829998830163 -0.84727300865116 -0.0472717177755
| 14> N   0.21184538946282 -1.54604804365365 0.7617588924445
| 15> N   -2.13631993928911 0.03188773433438 1.27350571071531
| 16> N   2.02598672506387 -1.14318467211666 -0.64531219127023
| 17> N   -1.91814233924584 0.03137116037665 -1.04498946748291
| 18> C   1.18097737274226 0.71693507080484 0.70173889017321
| 19> C   -0.20686880480777 1.27024627933494 0.21345042231937
| 20> C   0.41441080275909 -0.34173258966541 1.52336266615173
| 21> C   -0.82922175114212 0.58960593673968 1.44434972027296
| 22> C   1.92822011286806 1.69488653817281 1.5963734975385
| 23> C   -0.37809776891576 2.77134929626422 0.04819649358288
| 24> C   2.1403947470937 0.1972384729179 -0.35038567829864
| 25> C   -0.67361678962426 0.6214190571346 -1.0793014500539
| 26> C   1.04142578622994 -2.02697492875068 -0.21027082435993
| 27> C   -2.68467002550422 -0.30396816036989 0.07167054343891
| 28> H   0.80817443950001 -0.54572267081061 2.51895215321335
| 29> H   -0.83785272399001 1.27240685039143 2.28901317073582
| 30> H   2.31167340578204 2.52284411740894 1.00913016264629
| 31> H   1.28982602448342 2.08257620823614 2.38710022492991
| 32> H   2.77390820759972 1.19140411795486 2.06045858523949
| 33> H   -1.41857211141493 3.00964947214868 -0.16882755561625
| 34> H   -0.09065531563179 3.29799318042223 0.95389844358819
| 35> H   0.23426221611057 3.12492645074476 -0.77764887675592
| 36> H   -0.46772570547622 -2.21560145172536 1.0787081584806
| 37> H   -2.71769301149571 -0.17090724573546 2.06627440900372
| 38> H   2.60065167263658 -1.49057255715425 -1.3966820077142
| 39> H   -2.27169977231386 -0.32388339999036 -1.91951041514436
| 40> *
| 41>
| 42>                          ****END OF INPUT****
 Total Charge           Charge          ....    0
 Multiplicity           Mult            ....    1
 Number of Electrons    NEL             ....  132
Dispersion correction           -0.051125832
FINAL SINGLE POINT ENERGY      -908.561417612045
Dispersion correction             ... done (  0.1 sec)
Dispersion correction           -0.051770889
FINAL SINGLE POINT ENERGY      -908.624131727356
Dispersion correction             ... done (  0.1 sec)
Dispersion correction           -0.052393631
FINAL SINGLE POINT ENERGY      -908.679700680012
Dispersion correction             ... done (  0.1 sec)
FINAL SINGLE POINT ENERGY      -908.749964001435
FINAL SINGLE POINT ENERGY      -908.813529724603
FINAL SINGLE POINT ENERGY      -908.851626742747
FINAL SINGLE POINT ENERGY      -908.874029813565
FINAL SINGLE POINT ENERGY      -908.898112524840
FINAL SINGLE POINT ENERGY      -908.912589630698
FINAL SINGLE POINT ENERGY      -908.919522966757
FINAL SINGLE POINT ENERGY      -908.935332289946
FINAL SINGLE POINT ENERGY      -908.935570163883
FINAL SINGLE POINT ENERGY      -908.935760051191
FINAL SINGLE POINT ENERGY      -908.935915754937
FINAL SINGLE POINT ENERGY      -908.936009372964
FINAL SINGLE POINT ENERGY      -908.936045290492
FINAL SINGLE POINT ENERGY      -908.936057557878
Dispersion correction             ... done (  0.1 sec)
Dispersion correction           -0.058591148
FINAL SINGLE POINT ENERGY      -908.936062726375
Dispersion correction             ... done (  0.1 sec)
Dispersion correction           -0.058612014
FINAL SINGLE POINT ENERGY      -908.936065871892
Dispersion correction             ... done (  0.1 sec)
                    ***********************HURRAY********************

CARTESIAN COORDINATES (ANGSTROEM)
---------------------------------
  O      2.528969    1.204455   -0.489260
  O     -0.644318    0.839588   -2.291671
  O      0.552625   -2.740495   -1.557639
  O     -2.421158   -1.606979    1.099915
  N      0.664089   -2.139573    0.635021
  N     -2.017311    0.607799    1.438782
  N      1.658992   -0.830071   -0.979783
  N     -1.603334   -0.338831   -0.613732
  C      1.538924   -0.018941    1.284185
  C     -0.939695    1.948028   -0.211636
  C      0.914572   -1.167397    1.574257
  C     -1.461798    1.794078    1.009730
  C      1.818164    1.056371    2.282884
  C     -0.283047    3.200858   -0.692897
  C      1.965931    0.203922   -0.097509
  C     -1.031732    0.822688   -1.144985
  C      0.932543   -1.968241   -0.705696
  C     -2.047587   -0.533828    0.672481
  H      0.560963   -1.394910    2.568566
  H     -1.455911    2.588212    1.740829
  H      1.368911    1.995314    1.962779
  H      1.424078    0.788908    3.260953
  H      2.887897    1.235399    2.372627
  H     -0.768160    3.565866   -1.595711
  H     -0.323999    3.975246    0.069858
  H      0.758631    3.002695   -0.938979
  H      0.028516   -2.889144    0.848714
  H     -2.349994    0.503554    2.379825
  H      1.816954   -0.641922   -1.958237
  H     -1.620114   -1.147650   -1.219074

 Multiplicity           Mult            ....    1
 Number of Electrons    NEL             ....  132
 Basis Dimension        Dim             ....  882

ORBITAL ENERGIES
----------------

  NO   OCC          E(Eh)            E(eV)
   0   2.0000     -19.328982      -525.9683
   1   2.0000     -19.323405      -525.8166
   2   2.0000     -19.319780      -525.7179
   3   2.0000     -19.319254      -525.7036
   4   2.0000     -14.585440      -396.8900
   5   2.0000     -14.574518      -396.5928
   6   2.0000     -14.570965      -396.4961
   7   2.0000     -14.563017      -396.2798
   8   2.0000     -10.515494      -286.1411
   9   2.0000     -10.505766      -285.8764
  10   2.0000     -10.478928      -285.1461
  11   2.0000     -10.474978      -285.0387
  12   2.0000     -10.431594      -283.8581
  13   2.0000     -10.428629      -283.7774
  14   2.0000     -10.380002      -282.4542
  15   2.0000     -10.378125      -282.4031
  16   2.0000     -10.359954      -281.9087
  17   2.0000     -10.348966      -281.6097
  18   2.0000      -1.228162       -33.4200
  19   2.0000      -1.219059       -33.1723
  20   2.0000      -1.194301       -32.4986
  21   2.0000      -1.188748       -32.3475
  22   2.0000      -1.123705       -30.5776
  23   2.0000      -1.116101       -30.3707
  24   2.0000      -1.070547       -29.1311
  25   2.0000      -1.063494       -28.9391
  26   2.0000      -0.956968       -26.0404
  27   2.0000      -0.953879       -25.9564
  28   2.0000      -0.847364       -23.0579
  29   2.0000      -0.845533       -23.0081
  30   2.0000      -0.810192       -22.0465
  31   2.0000      -0.806485       -21.9456
  32   2.0000      -0.794928       -21.6311
  33   2.0000      -0.787116       -21.4185
  34   2.0000      -0.695512       -18.9258
  35   2.0000      -0.692150       -18.8344
  36   2.0000      -0.690297       -18.7839
  37   2.0000      -0.686711       -18.6864
  38   2.0000      -0.643283       -17.5046
  39   2.0000      -0.636363       -17.3163
  40   2.0000      -0.633536       -17.2394
  41   2.0000      -0.597934       -16.2706
  42   2.0000      -0.596263       -16.2251
  43   2.0000      -0.591297       -16.0900
  44   2.0000      -0.568597       -15.4723
  45   2.0000      -0.561252       -15.2724
  46   2.0000      -0.559289       -15.2190
  47   2.0000      -0.550302       -14.9745
  48   2.0000      -0.548628       -14.9289
  49   2.0000      -0.545329       -14.8392
  50   2.0000      -0.518279       -14.1031
  51   2.0000      -0.517159       -14.0726
  52   2.0000      -0.513931       -13.9848
  53   2.0000      -0.513221       -13.9655
  54   2.0000      -0.503519       -13.7015
  55   2.0000      -0.496771       -13.5178
  56   2.0000      -0.480263       -13.0686
  57   2.0000      -0.470025       -12.7900
  58   2.0000      -0.421018       -11.4565
  59   2.0000      -0.412404       -11.2221
  60   2.0000      -0.405052       -11.0220
  61   2.0000      -0.395857       -10.7718
  62   2.0000      -0.387544       -10.5456
  63   2.0000      -0.383015       -10.4224
  64   2.0000      -0.347348        -9.4518
  65   2.0000      -0.343267        -9.3408
  66   0.0000       0.011125         0.3027
  67   0.0000       0.019223         0.5231
  68   0.0000       0.024330         0.6621
  69   0.0000       0.034463         0.9378
  70   0.0000       0.041289         1.1235

MULLIKEN ATOMIC CHARGES
-----------------------
   0 O :   -0.676516
   1 O :   -0.657335
   2 O :   -0.641334
   3 O :   -0.669124
   4 N :   -0.043155
   5 N :    0.001708
   6 N :    0.031525
   7 N :    0.045696
   8 C :    0.748265
   9 C :    0.645100
  10 C :    0.103003
  11 C :   -0.032004
  12 C :   -1.437533
  13 C :   -1.413372
  14 C :    0.387872
  15 C :    0.550569
  16 C :    0.333838
  17 C :    0.444073
  18 H :    0.143940
  19 H :    0.140428
  20 H :    0.223687
  21 H :    0.338979
  22 H :    0.355386
  23 H :    0.355757
  24 H :    0.332633
  25 H :    0.218121
  26 H :    0.064081
  27 H :    0.018597
  28 H :    0.045450
  29 H :    0.041665
Sum of atomic charges:    0.0000000

LOEWDIN ATOMIC CHARGES
----------------------
   0 O :    0.089589
   1 O :    0.102383
   2 O :    0.085364
   3 O :    0.071310
   4 N :    0.278100
   5 N :    0.282371
   6 N :    0.342628
   7 N :    0.345294
   8 C :   -0.138090
   9 C :   -0.135375
  10 C :    0.047411
  11 C :    0.050120
  12 C :    0.175900
  13 C :    0.183608
  14 C :   -0.397711
  15 C :   -0.392378
  16 C :   -0.487900
  17 C :   -0.488159
  18 H :    0.040514
  19 H :    0.037055
  20 H :   -0.012763
  21 H :   -0.006437
  22 H :    0.001615
  23 H :    0.000922
  24 H :   -0.005709
  25 H :   -0.012983
  26 H :   -0.020916
  27 H :   -0.020800
  28 H :   -0.003797
  29 H :   -0.011166

  Mayer bond orders larger than 0.100000
B(  0-O , 14-C ) :   1.4720 B(  1-O , 15-C ) :   1.4418 B(  2-O , 16-C ) :   1.5769
B(  3-O , 17-C ) :   1.5322 B(  4-N , 10-C ) :   0.8738 B(  4-N , 16-C ) :   1.0023
B(  4-N , 26-H ) :   1.1092 B(  5-N , 11-C ) :   0.9580 B(  5-N , 17-C ) :   1.0408
B(  5-N , 27-H ) :   1.1335 B(  6-N , 14-C ) :   0.9991 B(  6-N , 16-C ) :   0.9111
B(  6-N , 28-H ) :   1.0969 B(  7-N , 15-C ) :   0.9933 B(  7-N , 16-C ) :   0.1047
B(  7-N , 17-C ) :   0.9405 B(  7-N , 29-H ) :   1.1156 B(  8-C , 10-C ) :   1.1332
B(  8-C , 12-C ) :   0.3420 B(  8-C , 14-C ) :   0.7798 B(  9-C , 11-C ) :   1.2222
B(  9-C , 13-C ) :   0.3663 B(  9-C , 15-C ) :   0.8000 B(  9-C , 25-H ) :  -0.1050
B( 10-C , 12-C ) :  -0.1221 B( 10-C , 18-H ) :   1.1246 B( 11-C , 13-C ) :  -0.1847
B( 11-C , 19-H ) :   1.1190 B( 12-C , 20-H ) :   1.0166 B( 12-C , 21-H ) :   0.9916
B( 12-C , 22-H ) :   0.9319 B( 13-C , 23-H ) :   0.9106 B( 13-C , 24-H ) :   1.0092
B( 13-C , 25-H ) :   1.0156

Dispersion correction           -0.058613092
FINAL SINGLE POINT ENERGY      -908.936066889712

DIPOLE MOMENT
-------------

Method             : SCF
Type of density    : Electron Density
Multiplicity       :   1
Irrep              :   0
Energy             :  -908.8774537978646322 Eh
Relativity type    :
Basis              : AO
                                X                 Y                 Z
Electronic contribution:     -2.663878160      -9.895460611      -5.807546321
Nuclear contribution   :      2.117608703      10.767055787       8.312776556
                        -----------------------------------------
Total Dipole Moment    :     -0.546269457       0.871595176       2.505230235
                        -----------------------------------------
Magnitude (a.u.)       :      2.708185186
Magnitude (Debye)      :      6.883659689

Rotational constants in cm-1:             0.017183             0.015846             0.013522
Rotational constants in MHz :           515.136613           475.063891           405.383749

                             ****ORCA TERMINATED NORMALLY****
TOTAL RUN TIME: 0 days 1 hours 6 minutes 36 seconds 742 msec
