                         Program Version 6.0.0  -   RELEASE  -
|  1> ! Engrad def2-TZVPPD wB97M-D3BJ
|  2> %pal nprocs 8 end%pal nprocs 64 end
|  3> %tddft
|  4>  Iroot 1 Nroots 3
|  5> sf true
|  6> end
|  7> *xyz 0 3
|  8> O   1.32091335 0.49253495 0.65384811
|  9> C   0.62652059 -0.10403273 -0.40482105
| 10> C   -0.84744078 -0.258953 -0.052951
| 11> H   1.10432446 -1.06614057 -0.63874204
| 12> H   0.56937725 0.68402416 -1.15984951
| 13> H   -1.5296856 -0.32765743 -0.98197032
| 14> H   -1.32243156 -0.19270116 0.872656
| 15> *
| 16>
| 17>                          ****END OF INPUT****

CARTESIAN COORDINATES (ANGSTROEM)
---------------------------------
  O      1.320913    0.492535    0.653848
  C      0.626521   -0.104033   -0.404821
  C     -0.847441   -0.258953   -0.052951
  H      1.104324   -1.066141   -0.638742
  H      0.569377    0.684024   -1.159850
  H     -1.529686   -0.327657   -0.981970
  H     -1.322432   -0.192701    0.872656

 Total Charge           Charge          ....    0
 Multiplicity           Mult            ....    3
 Number of Electrons    NEL             ....   24
 Basis Dimension        Dim             ....  182

ORBITAL ENERGIES
----------------
                 SPIN UP ORBITALS
  NO   OCC          E(Eh)            E(eV)
   0   1.0000     -19.384590      -527.4815
   1   1.0000     -10.416571      -283.4493
   2   1.0000     -10.383213      -282.5416
   3   1.0000      -1.155490       -31.4425
   4   1.0000      -0.875347       -23.8194
   5   1.0000      -0.734344       -19.9825
   6   1.0000      -0.610152       -16.6031
   7   1.0000      -0.579148       -15.7594
   8   1.0000      -0.565533       -15.3889
   9   1.0000      -0.504000       -13.7145
  10   1.0000      -0.443987       -12.0815
  11   1.0000      -0.411522       -11.1981
  12   1.0000      -0.325838        -8.8665
  13   0.0000       0.040137         1.0922
  14   0.0000       0.062067         1.6889
  15   0.0000       0.081297         2.2122
  16   0.0000       0.084907         2.3104
  17   0.0000       0.111482         3.0336

                 SPIN DOWN ORBITALS
  NO   OCC          E(Eh)            E(eV)
   0   1.0000     -19.361452      -526.8519
   1   1.0000     -10.417829      -283.4835
   2   1.0000     -10.367884      -282.1245
   3   1.0000      -1.102154       -29.9911
   4   1.0000      -0.839785       -22.8517
   5   1.0000      -0.706807       -19.2332
   6   1.0000      -0.590977       -16.0813
   7   1.0000      -0.551703       -15.0126
   8   1.0000      -0.520091       -14.1524
   9   1.0000      -0.484860       -13.1937
  10   1.0000      -0.382013       -10.3951
  11   0.0000      -0.054844        -1.4924
  12   0.0000       0.004759         0.1295
  13   0.0000       0.040743         1.1087
  14   0.0000       0.062868         1.7107
  15   0.0000       0.081614         2.2208

----------------------------------------------------------------------------------------------------
          SPIN FLIP ABSORPTION SPECTRUM VIA TRANSITION ELECTRIC DIPOLE MOMENTS
----------------------------------------------------------------------------------------------------
     Transition      Energy     Energy  Wavelength fosc(D2)      D2        DX        DY        DZ
                      (eV)      (cm-1)    (nm)                 (au**2)    (au)      (au)      (au)
----------------------------------------------------------------------------------------------------
  1-3A  ->  2-3A    0.250563    2020.9  4948.2   0.000172168   0.02805   0.16395  -0.03410   0.00159
  1-3A  ->  3-3A    0.850185    6857.2  1458.3   0.018254747   0.87640   0.83306   0.25508   0.34255

Dispersion correction             ... done (  0.1 sec)

MULLIKEN ATOMIC CHARGES AND SPIN DENSITIES
------------------------------------------
   0 O :   -0.432876    0.165384
   1 C :   -0.097346   -0.079052
   2 C :   -0.359789    0.023636
   3 H :    0.240232   -0.056174
   4 H :    0.234357   -0.049396
   5 H :    0.187390   -0.010590
   6 H :    0.228031    0.006193
Sum of atomic charges       :    0.0000000

LOEWDIN ATOMIC CHARGES AND SPIN DENSITIES
-----------------------------------------
   0 O :   -0.064322    0.135242
   1 C :   -0.236790   -0.053213
   2 C :    0.334540   -0.007637
   3 H :    0.044764   -0.018481
   4 H :    0.012437   -0.037969
   5 H :   -0.001198   -0.004746
   6 H :   -0.089432   -0.013196

  Mayer bond orders larger than 0.100000
B(  0-O ,  1-C ) :   1.0675 B(  0-O ,  2-C ) :   0.4147 B(  1-C ,  2-C ) :   0.9170
B(  1-C ,  3-H ) :   0.9206 B(  1-C ,  4-H ) :   0.9573 B(  2-C ,  5-H ) :   0.9998
B(  2-C ,  6-H ) :   0.9408

Dispersion correction           -0.005485885
FINAL SINGLE POINT ENERGY      -153.747574038045

DIPOLE MOMENT
-------------

Method             : TDA/CIS
Type of density    : Electron Density
Level              : Relaxed density
State              :   1
Multiplicity       :   3
Irrep              :   0
Energy             :     0.0000000000000000 Eh
Relativity type    :
Basis              : AO
                                X                 Y                 Z
Electronic contribution:      1.718984978       0.563442314       1.238681266
Nuclear contribution   :     -2.564868465      -1.062655657      -2.040221505
                        -----------------------------------------
Total Dipole Moment    :     -0.845883487      -0.499213342      -0.801540238
                        -----------------------------------------
Magnitude (a.u.)       :      1.267753757
Magnitude (Debye)      :      3.222373964

Rotational constants in cm-1:             1.397630             0.346557             0.297237
Rotational constants in MHz :         41899.879716         10389.510286          8910.943494

                             ****ORCA TERMINATED NORMALLY****
TOTAL RUN TIME: 0 days 0 hours 0 minutes 27 seconds 444 msec
