                         Program Version 6.0.0  -   RELEASE  -
|  1> ! Engrad def2-TZVPPD wB97M-D3BJ
|  2> %pal nprocs 8 end%pal nprocs 64 end
|  3> %tddft Nroots 2 Iroot 2
|  4> sf true
|  5> end
|  6> *xyz 0 3
|  7> O   2.55117445 1.19720223 -0.50198425
|  8> O   -0.63336136 0.84914634 -2.29095963
|  9> O   0.57668618 -2.75901851 -1.54130744
| 10> O   -2.45938491 -1.62172942 1.06099335
| 11> N   0.64267111 -2.11957749 0.63908658
| 12> N   -2.0183036 0.58275192 1.43567743
| 13> N   1.67845031 -0.84890032 -0.97570976
| 14> N   -1.60365279 -0.33830003 -0.63218875
| 15> C   1.50939888 0.02744645 1.25401954
| 16> C   -0.90240858 1.92793434 -0.19735187
| 17> C   0.86468156 -1.14178568 1.57819004
| 18> C   -1.4351723 1.76915851 1.03472896
| 19> C   1.76938445 1.09240998 2.25344259
| 20> C   -0.23192128 3.17032917 -0.64893324
| 21> C   1.9646194 0.20660582 -0.0978739
| 22> C   -1.01884561 0.81934972 -1.14012861
| 23> C   0.94213047 -1.97544271 -0.69934576
| 24> C   -2.06177013 -0.54544361 0.64905373
| 25> H   0.487747 -1.35998261 2.56218442
| 26> H   -1.40833823 2.54684981 1.76407251
| 27> H   1.37189973 2.05433178 1.89149008
| 28> H   1.31199006 0.84540709 3.21370524
| 29> H   2.85191084 1.23923959 2.36583004
| 30> H   -0.70684862 3.53556796 -1.57230703
| 31> H   -0.26098719 3.93677159 0.12072529
| 32> H   0.81774085 2.97411816 -0.89525624
| 33> H   0.00080183 -2.88129289 0.8474924
| 34> H   -2.34381059 0.46102475 2.37281754
| 35> H   1.85600762 -0.68154061 -1.96183031
| 36> H   -1.64386641 -1.12193415 -1.25160413
| 37> *
| 38>
| 39>                          ****END OF INPUT****

CARTESIAN COORDINATES (ANGSTROEM)
---------------------------------
  O      2.551174    1.197202   -0.501984
  O     -0.633361    0.849146   -2.290960
  O      0.576686   -2.759019   -1.541307
  O     -2.459385   -1.621729    1.060993
  N      0.642671   -2.119577    0.639087
  N     -2.018304    0.582752    1.435677
  N      1.678450   -0.848900   -0.975710
  N     -1.603653   -0.338300   -0.632189
  C      1.509399    0.027446    1.254020
  C     -0.902409    1.927934   -0.197352
  C      0.864682   -1.141786    1.578190
  C     -1.435172    1.769159    1.034729
  C      1.769384    1.092410    2.253443
  C     -0.231921    3.170329   -0.648933
  C      1.964619    0.206606   -0.097874
  C     -1.018846    0.819350   -1.140129
  C      0.942130   -1.975443   -0.699346
  C     -2.061770   -0.545444    0.649054
  H      0.487747   -1.359983    2.562184
  H     -1.408338    2.546850    1.764073
  H      1.371900    2.054332    1.891490
  H      1.311990    0.845407    3.213705
  H      2.851911    1.239240    2.365830
  H     -0.706849    3.535568   -1.572307
  H     -0.260987    3.936772    0.120725
  H      0.817741    2.974118   -0.895256
  H      0.000802   -2.881293    0.847492
  H     -2.343811    0.461025    2.372818
  H      1.856008   -0.681541   -1.961830
  H     -1.643866   -1.121934   -1.251604

 Total Charge           Charge          ....    0
 Multiplicity           Mult            ....    3
 Number of Electrons    NEL             ....  132
 Basis Dimension        Dim             ....  882

ORBITAL ENERGIES
----------------
                 SPIN UP ORBITALS
  NO   OCC          E(Eh)            E(eV)
   0   1.0000     -19.329692      -525.9877
   1   1.0000     -19.328384      -525.9521
   2   1.0000     -19.321913      -525.7760
   3   1.0000     -19.320434      -525.7357
   4   1.0000     -14.589164      -396.9913
   5   1.0000     -14.585523      -396.8923
   6   1.0000     -14.571440      -396.5090
   7   1.0000     -14.548411      -395.8824
   8   1.0000     -10.516317      -286.1635
   9   1.0000     -10.506215      -285.8886
  10   1.0000     -10.478224      -285.1270
  11   1.0000     -10.456917      -284.5472
  12   1.0000     -10.433765      -283.9172
  13   1.0000     -10.409850      -283.2664
  14   1.0000     -10.398193      -282.9492
  15   1.0000     -10.382067      -282.5104
  16   1.0000     -10.374495      -282.3044
  17   1.0000     -10.350620      -281.6547
  18   1.0000      -1.227389       -33.3990
  19   1.0000      -1.223222       -33.2856
  20   1.0000      -1.191953       -32.4347
  21   1.0000      -1.187309       -32.3083
  22   1.0000      -1.122522       -30.5454
  23   1.0000      -1.121468       -30.5167
  24   1.0000      -1.072382       -29.1810
  25   1.0000      -1.057164       -28.7669
  26   1.0000      -0.973182       -26.4816
  27   1.0000      -0.956765       -26.0349
  28   1.0000      -0.856026       -23.2937
  29   1.0000      -0.847150       -23.0521
  30   1.0000      -0.812843       -22.1186
  31   1.0000      -0.810623       -22.0582
  32   1.0000      -0.796091       -21.6627
  33   1.0000      -0.783874       -21.3303
  34   1.0000      -0.695121       -18.9152
  35   1.0000      -0.694506       -18.8985
  36   1.0000      -0.693103       -18.8603
  37   1.0000      -0.690967       -18.8022
  38   1.0000      -0.646961       -17.6047
  39   1.0000      -0.641248       -17.4492
  40   1.0000      -0.626583       -17.0502
  41   1.0000      -0.600051       -16.3282
  42   1.0000      -0.597945       -16.2709
  43   1.0000      -0.592550       -16.1241
  44   1.0000      -0.573372       -15.6022
  45   1.0000      -0.567816       -15.4511
  46   1.0000      -0.567745       -15.4491
  47   1.0000      -0.555086       -15.1047
  48   1.0000      -0.550033       -14.9672
  49   1.0000      -0.549000       -14.9390
  50   1.0000      -0.530486       -14.4353
  51   1.0000      -0.520515       -14.1639
  52   1.0000      -0.517495       -14.0817
  53   1.0000      -0.514876       -14.0105
  54   1.0000      -0.512609       -13.9488
  55   1.0000      -0.497414       -13.5353
  56   1.0000      -0.490833       -13.3562
  57   1.0000      -0.476112       -12.9557
  58   1.0000      -0.420781       -11.4500
  59   1.0000      -0.418725       -11.3941
  60   1.0000      -0.405276       -11.0281
  61   1.0000      -0.402278       -10.9465
  62   1.0000      -0.388008       -10.5582
  63   1.0000      -0.386299       -10.5117
  64   1.0000      -0.382584       -10.4106
  65   1.0000      -0.346460        -9.4277
  66   1.0000      -0.215142        -5.8543
  67   0.0000       0.011304         0.3076
  68   0.0000       0.017462         0.4752
  69   0.0000       0.033205         0.9036
  70   0.0000       0.038582         1.0499
  71   0.0000       0.042028         1.1436

                 SPIN DOWN ORBITALS
  NO   OCC          E(Eh)            E(eV)
   0   1.0000     -19.328366      -525.9516
   1   1.0000     -19.327801      -525.9362
   2   1.0000     -19.321957      -525.7772
   3   1.0000     -19.313769      -525.5544
   4   1.0000     -14.585290      -396.8859
   5   1.0000     -14.583982      -396.8503
   6   1.0000     -14.571439      -396.5090
   7   1.0000     -14.547507      -395.8578
   8   1.0000     -10.516325      -286.1638
   9   1.0000     -10.506588      -285.8988
  10   1.0000     -10.478213      -285.1267
  11   1.0000     -10.456615      -284.5390
  12   1.0000     -10.433579      -283.9121
  13   1.0000     -10.400460      -283.0109
  14   1.0000     -10.387867      -282.6682
  15   1.0000     -10.382097      -282.5112
  16   1.0000     -10.374978      -282.3175
  17   1.0000     -10.350586      -281.6538
  18   1.0000      -1.226294       -33.3691
  19   1.0000      -1.219995       -33.1977
  20   1.0000      -1.191868       -32.4324
  21   1.0000      -1.177481       -32.0409
  22   1.0000      -1.122233       -30.5375
  23   1.0000      -1.110556       -30.2198
  24   1.0000      -1.072264       -29.1778
  25   1.0000      -1.051455       -28.6115
  26   1.0000      -0.957338       -26.0505
  27   1.0000      -0.949642       -25.8411
  28   1.0000      -0.847296       -23.0561
  29   1.0000      -0.844038       -22.9675
  30   1.0000      -0.811872       -22.0922
  31   1.0000      -0.798936       -21.7402
  32   1.0000      -0.795860       -21.6564
  33   1.0000      -0.777676       -21.1616
  34   1.0000      -0.694782       -18.9060
  35   1.0000      -0.693485       -18.8707
  36   1.0000      -0.683427       -18.5970
  37   1.0000      -0.682137       -18.5619
  38   1.0000      -0.646367       -17.5885
  39   1.0000      -0.631556       -17.1855
  40   1.0000      -0.620256       -16.8780
  41   1.0000      -0.598453       -16.2847
  42   1.0000      -0.588781       -16.0215
  43   1.0000      -0.584279       -15.8990
  44   1.0000      -0.567704       -15.4480
  45   1.0000      -0.561763       -15.2863
  46   1.0000      -0.556734       -15.1495
  47   1.0000      -0.550016       -14.9667
  48   1.0000      -0.546589       -14.8734
  49   1.0000      -0.541965       -14.7476
  50   1.0000      -0.522378       -14.2146
  51   1.0000      -0.517354       -14.0779
  52   1.0000      -0.513292       -13.9674
  53   1.0000      -0.507315       -13.8047
  54   1.0000      -0.500836       -13.6285
  55   1.0000      -0.494523       -13.4567
  56   1.0000      -0.476247       -12.9593
  57   1.0000      -0.443110       -12.0576
  58   1.0000      -0.419769       -11.4225
  59   1.0000      -0.414203       -11.2710
  60   1.0000      -0.404315       -11.0020
  61   1.0000      -0.386876       -10.5274
  62   1.0000      -0.379050       -10.3145
  63   1.0000      -0.377358       -10.2684
  64   1.0000      -0.345198        -9.3933
  65   0.0000      -0.103150        -2.8069
  66   0.0000       0.010554         0.2872
  67   0.0000       0.018560         0.5050
  68   0.0000       0.030743         0.8366
  69   0.0000       0.036458         0.9921

----------------------------------------------------------------------------------------------------
          SPIN FLIP ABSORPTION SPECTRUM VIA TRANSITION ELECTRIC DIPOLE MOMENTS
----------------------------------------------------------------------------------------------------
     Transition      Energy     Energy  Wavelength fosc(D2)      D2        DX        DY        DZ
                      (eV)      (cm-1)    (nm)                 (au**2)    (au)      (au)      (au)
----------------------------------------------------------------------------------------------------
  1-3A  ->  2-3A    3.968437   32007.6   312.4   0.001155514   0.01188   0.04602   0.06796  -0.07175

Dispersion correction             ... done (  0.1 sec)

MULLIKEN ATOMIC CHARGES AND SPIN DENSITIES
------------------------------------------
   0 O :   -0.700373    0.009444
   1 O :   -0.666009   -0.000158
   2 O :   -0.613655    0.001969
   3 O :   -0.671806    0.000553
   4 N :    0.026879    0.029327
   5 N :    0.010762   -0.003102
   6 N :   -0.009043   -0.010947
   7 N :    0.057591   -0.001734
   8 C :    1.302242    0.090613
   9 C :    0.686636   -0.000157
  10 C :   -0.358082    0.011053
  11 C :   -0.086471   -0.000691
  12 C :   -1.340887   -0.013295
  13 C :   -1.407542    0.003294
  14 C :    0.094996   -0.112680
  15 C :    0.555930    0.002539
  16 C :    0.387527    0.002355
  17 C :    0.429761   -0.008676
  18 H :    0.118981   -0.014496
  19 H :    0.169647   -0.000575
  20 H :    0.235004    0.008313
  21 H :    0.334733   -0.000565
  22 H :    0.366775    0.007518
  23 H :    0.359304    0.000115
  24 H :    0.326712    0.000635
  25 H :    0.209321   -0.001748
  26 H :    0.095163   -0.001373
  27 H :    0.020944    0.001024
  28 H :    0.052146    0.002076
  29 H :    0.012814   -0.000632
Sum of atomic charges       :   -0.0000000

LOEWDIN ATOMIC CHARGES AND SPIN DENSITIES
-----------------------------------------
   0 O :    0.066853    0.007490
   1 O :    0.100686    0.000090
   2 O :    0.111104    0.001209
   3 O :    0.066085   -0.000168
   4 N :    0.298428    0.019740
   5 N :    0.282719   -0.001217
   6 N :    0.315176   -0.006345
   7 N :    0.350105   -0.000215
   8 C :   -0.104155    0.004815
   9 C :   -0.139874   -0.000067
  10 C :    0.016633   -0.012528
  11 C :    0.063360   -0.000648
  12 C :    0.198555    0.001273
  13 C :    0.173949    0.000097
  14 C :   -0.434272   -0.007108
  15 C :   -0.393912    0.000040
  16 C :   -0.489255   -0.002319
  17 C :   -0.480708   -0.000323
  18 H :   -0.000468   -0.005914
  19 H :    0.025583   -0.000145
  20 H :    0.005978    0.000736
  21 H :   -0.002051   -0.000394
  22 H :    0.021416    0.000872
  23 H :    0.011367    0.000023
  24 H :   -0.007196   -0.000015
  25 H :   -0.008442    0.000008
  26 H :    0.001366    0.001842
  27 H :   -0.026117   -0.000133
  28 H :   -0.002105   -0.000675
  29 H :   -0.020808   -0.000024

  Mayer bond orders larger than 0.100000
B(  0-O , 14-C ) :   1.2611 B(  1-O , 15-C ) :   1.4180 B(  2-O , 16-C ) :   1.5695
B(  3-O , 17-C ) :   1.5323 B(  4-N , 10-C ) :   0.8660 B(  4-N , 16-C ) :   0.9541
B(  4-N , 26-H ) :   1.0697 B(  5-N , 11-C ) :   0.9437 B(  5-N , 17-C ) :   1.0386
B(  5-N , 27-H ) :   1.1317 B(  6-N , 14-C ) :   0.8967 B(  6-N , 16-C ) :   0.9148
B(  6-N , 28-H ) :   1.0922 B(  7-N , 15-C ) :   1.0000 B(  7-N , 16-C ) :   0.1080
B(  7-N , 17-C ) :   0.9255 B(  7-N , 29-H ) :   1.1368 B(  8-C , 10-C ) :   0.4253
B(  8-C , 12-C ) :   0.3511 B(  8-C , 14-C ) :   0.8702 B(  8-C , 18-H ) :  -0.1374
B(  8-C , 21-H ) :  -0.1088 B(  9-C , 11-C ) :   1.1887 B(  9-C , 13-C ) :   0.3422
B(  9-C , 15-C ) :   0.8014 B(  9-C , 24-H ) :  -0.1033 B(  9-C , 25-H ) :  -0.1069
B( 10-C , 18-H ) :   1.2158 B( 11-C , 13-C ) :  -0.1759 B( 11-C , 19-H ) :   1.1137
B( 12-C , 20-H ) :   0.9918 B( 12-C , 21-H ) :   1.0043 B( 12-C , 22-H ) :   0.8768
B( 13-C , 23-H ) :   0.8869 B( 13-C , 24-H ) :   1.0351 B( 13-C , 25-H ) :   1.0169

Dispersion correction           -0.059134070
FINAL SINGLE POINT ENERGY      -908.779945230591

DIPOLE MOMENT
-------------

Method             : TDA/CIS
Type of density    : Electron Density
Level              : Relaxed density
State              :   2
Multiplicity       :   3
Irrep              :   0
Energy             :     0.0000000000000000 Eh
Relativity type    :
Basis              : AO
                                X                 Y                 Z
Electronic contribution:     -2.686428904      -9.875766888      -5.779514765
Nuclear contribution   :      2.115385864      10.766942521       8.306339545
                        -----------------------------------------
Total Dipole Moment    :     -0.571043040       0.891175633       2.526824780
                        -----------------------------------------
Magnitude (a.u.)       :      2.739548801
Magnitude (Debye)      :      6.963379662

Rotational constants in cm-1:             0.017188             0.016098             0.013547
Rotational constants in MHz :           515.273766           482.614588           406.121646

                             ****ORCA TERMINATED NORMALLY****
TOTAL RUN TIME: 0 days 0 hours 5 minutes 6 seconds 162 msec
