                         Program Version 6.0.0  -   RELEASE  -
|  1> ! Engrad wB97M-D3BJ def2-TZVPPD
|  2> %pal nprocs 8 end%pal nprocs 16 end
|  3> %tddft nroots 2 Iroot 2
|  4>  sf true
|  5> end
|  6> *xyz 0 3
|  7> O   1.63724074467084 0.95451622405092 -0.00258523433223
|  8> C   0.96627013341673 -0.01641844266494 0.2077828167422
|  9> C   -0.30491290522307 -0.67123147702617 -0.2431236511985
| 10> H   1.38187171359526 -0.69566394718515 0.99654241703791
| 11> H   -0.03436890229212 -1.66989258158508 -0.58359186007668
| 12> H   -0.85683882833815 -0.1461402077495 -1.02003705198459
| 13> H   -0.92453450505528 -0.7882958906001 0.64501256381188
| 14> *
| 15>
| 16>                          ****END OF INPUT****

CARTESIAN COORDINATES (ANGSTROEM)
---------------------------------
  O      1.637241    0.954516   -0.002585
  C      0.966270   -0.016418    0.207783
  C     -0.304913   -0.671231   -0.243124
  H      1.381872   -0.695664    0.996542
  H     -0.034369   -1.669893   -0.583592
  H     -0.856839   -0.146140   -1.020037
  H     -0.924535   -0.788296    0.645013

 Total Charge           Charge          ....    0
 Multiplicity           Mult            ....    3
 Number of Electrons    NEL             ....   24
 Basis Dimension        Dim             ....  182

ORBITAL ENERGIES
----------------
                 SPIN UP ORBITALS
  NO   OCC          E(Eh)            E(eV)
   0   1.0000     -19.404641      -528.0271
   1   1.0000     -10.381462      -282.4939
   2   1.0000     -10.371973      -282.2357
   3   1.0000      -1.241390       -33.7799
   4   1.0000      -0.890128       -24.2216
   5   1.0000      -0.714975       -19.4555
   6   1.0000      -0.627737       -17.0816
   7   1.0000      -0.589495       -16.0410
   8   1.0000      -0.580019       -15.7831
   9   1.0000      -0.517971       -14.0947
  10   1.0000      -0.517391       -14.0789
  11   1.0000      -0.421383       -11.4664
  12   1.0000      -0.216732        -5.8976
  13   0.0000       0.037141         1.0107
  14   0.0000       0.059626         1.6225
  15   0.0000       0.077429         2.1070
  16   0.0000       0.087302         2.3756
  17   0.0000       0.105804         2.8791

                 SPIN DOWN ORBITALS
  NO   OCC          E(Eh)            E(eV)
   0   1.0000     -19.377741      -527.2951
   1   1.0000     -10.371197      -282.2146
   2   1.0000     -10.370082      -282.1843
   3   1.0000      -1.185959       -32.2716
   4   1.0000      -0.871138       -23.7049
   5   1.0000      -0.668854       -18.2004
   6   1.0000      -0.584720       -15.9110
   7   1.0000      -0.542328       -14.7575
   8   1.0000      -0.535528       -14.5725
   9   1.0000      -0.496931       -13.5222
  10   1.0000      -0.471299       -12.8247
  11   0.0000      -0.080673        -2.1952
  12   0.0000       0.038417         1.0454
  13   0.0000       0.059293         1.6134
  14   0.0000       0.076956         2.0941
  15   0.0000       0.084950         2.3116

----------------------------------------------------------------------------------------------------
          SPIN FLIP ABSORPTION SPECTRUM VIA TRANSITION ELECTRIC DIPOLE MOMENTS
----------------------------------------------------------------------------------------------------
     Transition      Energy     Energy  Wavelength fosc(D2)      D2        DX        DY        DZ
                      (eV)      (cm-1)    (nm)                 (au**2)    (au)      (au)      (au)
----------------------------------------------------------------------------------------------------
  1-3A  ->  2-3A    4.595716   37067.0   269.8   0.000390538   0.00347  -0.02984   0.02959   0.04126

Dispersion correction             ... done (  0.0 sec)

MULLIKEN ATOMIC CHARGES AND SPIN DENSITIES
------------------------------------------
   0 O :   -0.280733    0.537710
   1 C :    0.241682   -0.596901
   2 C :   -0.703673    0.116055
   3 H :    0.073475    0.044796
   4 H :    0.211030   -0.052238
   5 H :    0.246815    0.000645
   6 H :    0.211405   -0.050066
Sum of atomic charges       :   -0.0000000

LOEWDIN ATOMIC CHARGES AND SPIN DENSITIES
-----------------------------------------
   0 O :    0.150992    0.354559
   1 C :   -0.257100   -0.326176
   2 C :    0.130766   -0.022755
   3 H :    0.024403    0.033555
   4 H :   -0.021861   -0.024885
   5 H :   -0.005340    0.010583
   6 H :   -0.021859   -0.024881

  Mayer bond orders larger than 0.100000
B(  0-O ,  1-C ) :   1.3149 B(  1-C ,  2-C ) :   0.5870 B(  1-C ,  3-H ) :   0.9826
B(  2-C ,  4-H ) :   1.0170 B(  2-C ,  5-H ) :   0.9287 B(  2-C ,  6-H ) :   1.0170

Dispersion correction           -0.005499314
FINAL SINGLE POINT ENERGY      -153.746249754509

DIPOLE MOMENT
-------------

Method             : TDA/CIS
Type of density    : Electron Density
Level              : Relaxed density
State              :   2
Multiplicity       :   3
Irrep              :   0
Energy             :     0.0000000000000000 Eh
Relativity type    :
Basis              : AO
                                X                 Y                 Z
Electronic contribution:      2.782168886       2.871370855      -0.044879076
Nuclear contribution   :     -3.264957678      -3.397053704       0.072113155
                        -----------------------------------------
Total Dipole Moment    :     -0.482788792      -0.525682849       0.027234079
                        -----------------------------------------
Magnitude (a.u.)       :      0.714261276
Magnitude (Debye)      :      1.815507882

Rotational constants in cm-1:             2.428321             0.305167             0.285340
Rotational constants in MHz :         72799.241637          9148.667957          8554.276565

                             ****ORCA TERMINATED NORMALLY****
TOTAL RUN TIME: 0 days 0 hours 0 minutes 16 seconds 318 msec
