                         Program Version 6.0.0  -   RELEASE  -
|  1> ! Engrad def2-TZVPPD wB97M-D3BJ
|  2> %pal nprocs 8 end%pal nprocs 64 end
|  3>  %tddft nroots 2 Iroot 2
|  4> sf true
|  5> end
|  6> *xyz 0 3
|  7> O   3.27949685560341 0.59076163316066 -0.60769132732372
|  8> O   -0.58677865186034 1.16359020883354 -2.42404679456158
|  9> O   0.47866779352844 -2.95469387753628 -0.83979456272304
| 10> O   -3.27471714643819 -1.46565013317132 0.0521036758428
| 11> N   0.26218253593071 -1.54986587317697 0.92717783929058
| 12> N   -2.07150665613349 0.12462036489875 1.15583843103209
| 13> N   1.76271793824386 -1.08351711372919 -0.78493249955353
| 14> N   -1.66742893134847 -0.3353186343681 -1.09729155632307
| 15> C   1.60491054346063 0.47426079858829 1.05014417236393
| 16> C   -0.60079046259127 1.5448855848863 -0.08062794773976
| 17> C   0.38292021675414 -0.24472142894334 1.53197645338186
| 18> C   -0.75775672991204 0.74288076172529 1.22978412701571
| 19> C   2.21982733758479 1.52568084239837 1.8840405272386
| 20> C   -0.59391730500379 3.01994845055248 -0.07804559140728
| 21> C   2.29908407196342 0.03054563299433 -0.15836500623188
| 22> C   -0.91088121002063 0.81226604586073 -1.31049164197781
| 23> C   0.7966674391269 -1.93485700766361 -0.27257413194179
| 24> C   -2.40403167490371 -0.62831044842847 0.05181611385571
| 25> H   0.43412212703963 -0.39191002482047 2.61510875972946
| 26> H   -0.77917035816316 1.46410392131261 2.04472469920259
| 27> H   2.97248283985465 2.06486738706896 1.31853528740094
| 28> H   1.47645172368334 2.22454104526514 2.27166167321517
| 29> H   2.70159229638981 1.06975954130132 2.75636557393646
| 30> H   -1.57497139909293 3.40352858333974 0.22661036748622
| 31> H   0.1357620029112 3.41032092109186 0.63283457737804
| 32> H   -0.37591932346679 3.39694777986858 -1.07302119747243
| 33> H   -0.46881719357859 -2.16109922267803 1.24764792017429
| 34> H   -2.57573539951972 -0.13827402905294 1.98564934403159
| 35> H   2.2004770428446 -1.3804269479486 -1.64122598804427
| 36> H   -1.9123403228864 -0.87986476162968 -1.90931129727587
| 37> *
| 38>
| 39>                          ****END OF INPUT****

CARTESIAN COORDINATES (ANGSTROEM)
---------------------------------
  O      3.279497    0.590762   -0.607691
  O     -0.586779    1.163590   -2.424047
  O      0.478668   -2.954694   -0.839795
  O     -3.274717   -1.465650    0.052104
  N      0.262183   -1.549866    0.927178
  N     -2.071507    0.124620    1.155838
  N      1.762718   -1.083517   -0.784932
  N     -1.667429   -0.335319   -1.097292
  C      1.604911    0.474261    1.050144
  C     -0.600790    1.544886   -0.080628
  C      0.382920   -0.244721    1.531976
  C     -0.757757    0.742881    1.229784
  C      2.219827    1.525681    1.884041
  C     -0.593917    3.019948   -0.078046
  C      2.299084    0.030546   -0.158365
  C     -0.910881    0.812266   -1.310492
  C      0.796667   -1.934857   -0.272574
  C     -2.404032   -0.628310    0.051816
  H      0.434122   -0.391910    2.615109
  H     -0.779170    1.464104    2.044725
  H      2.972483    2.064867    1.318535
  H      1.476452    2.224541    2.271662
  H      2.701592    1.069760    2.756366
  H     -1.574971    3.403529    0.226610
  H      0.135762    3.410321    0.632835
  H     -0.375919    3.396948   -1.073021
  H     -0.468817   -2.161099    1.247648
  H     -2.575735   -0.138274    1.985649
  H      2.200477   -1.380427   -1.641226
  H     -1.912340   -0.879865   -1.909311

 Total Charge           Charge          ....    0
 Multiplicity           Mult            ....    3
 Number of Electrons    NEL             ....  132
 Basis Dimension        Dim             ....  882

ORBITAL ENERGIES
----------------
                 SPIN UP ORBITALS
  NO   OCC          E(Eh)            E(eV)
   0   1.0000     -19.332930      -526.0758
   1   1.0000     -19.331330      -526.0322
   2   1.0000     -19.322633      -525.7956
   3   1.0000     -19.315474      -525.6008
   4   1.0000     -14.564090      -396.3090
   5   1.0000     -14.560352      -396.2073
   6   1.0000     -14.560189      -396.2029
   7   1.0000     -14.557536      -396.1307
   8   1.0000     -10.506103      -285.8856
   9   1.0000     -10.502257      -285.7809
  10   1.0000     -10.479750      -285.1685
  11   1.0000     -10.479632      -285.1653
  12   1.0000     -10.444568      -284.2111
  13   1.0000     -10.442511      -284.1552
  14   1.0000     -10.416330      -283.4428
  15   1.0000     -10.415714      -283.4260
  16   1.0000     -10.375433      -282.3299
  17   1.0000     -10.373930      -282.2890
  18   1.0000      -1.222096       -33.2549
  19   1.0000      -1.216321       -33.0978
  20   1.0000      -1.198129       -32.6028
  21   1.0000      -1.195255       -32.5245
  22   1.0000      -1.120307       -30.4851
  23   1.0000      -1.096932       -29.8491
  24   1.0000      -1.065671       -28.9984
  25   1.0000      -1.056182       -28.7402
  26   1.0000      -0.986557       -26.8456
  27   1.0000      -0.950609       -25.8674
  28   1.0000      -0.893322       -24.3085
  29   1.0000      -0.838366       -22.8131
  30   1.0000      -0.829015       -22.5586
  31   1.0000      -0.800970       -21.7955
  32   1.0000      -0.785031       -21.3618
  33   1.0000      -0.781511       -21.2660
  34   1.0000      -0.700522       -19.0622
  35   1.0000      -0.696810       -18.9612
  36   1.0000      -0.691437       -18.8150
  37   1.0000      -0.667820       -18.1723
  38   1.0000      -0.657469       -17.8906
  39   1.0000      -0.643841       -17.5198
  40   1.0000      -0.620165       -16.8756
  41   1.0000      -0.602161       -16.3856
  42   1.0000      -0.590668       -16.0729
  43   1.0000      -0.584735       -15.9114
  44   1.0000      -0.580677       -15.8010
  45   1.0000      -0.575227       -15.6527
  46   1.0000      -0.566756       -15.4222
  47   1.0000      -0.560840       -15.2612
  48   1.0000      -0.558093       -15.1865
  49   1.0000      -0.554016       -15.0755
  50   1.0000      -0.548574       -14.9275
  51   1.0000      -0.544950       -14.8289
  52   1.0000      -0.532990       -14.5034
  53   1.0000      -0.524753       -14.2792
  54   1.0000      -0.514087       -13.9890
  55   1.0000      -0.507987       -13.8230
  56   1.0000      -0.489839       -13.3292
  57   1.0000      -0.420057       -11.4303
  58   1.0000      -0.418834       -11.3971
  59   1.0000      -0.412023       -11.2117
  60   1.0000      -0.402201       -10.9444
  61   1.0000      -0.400054       -10.8860
  62   1.0000      -0.392727       -10.6866
  63   1.0000      -0.388972       -10.5845
  64   1.0000      -0.383405       -10.4330
  65   1.0000      -0.354230        -9.6391
  66   1.0000      -0.317234        -8.6324
  67   0.0000       0.005208         0.1417
  68   0.0000       0.028123         0.7653
  69   0.0000       0.031456         0.8560
  70   0.0000       0.037710         1.0261
  71   0.0000       0.055323         1.5054

                 SPIN DOWN ORBITALS
  NO   OCC          E(Eh)            E(eV)
   0   1.0000     -19.329163      -525.9733
   1   1.0000     -19.326981      -525.9139
   2   1.0000     -19.322348      -525.7878
   3   1.0000     -19.315420      -525.5993
   4   1.0000     -14.563246      -396.2861
   5   1.0000     -14.559903      -396.1951
   6   1.0000     -14.559821      -396.1929
   7   1.0000     -14.557415      -396.1274
   8   1.0000     -10.506110      -285.8858
   9   1.0000     -10.502290      -285.7818
  10   1.0000     -10.480722      -285.1949
  11   1.0000     -10.480599      -285.1916
  12   1.0000     -10.444008      -284.1959
  13   1.0000     -10.442718      -284.1608
  14   1.0000     -10.404641      -283.1247
  15   1.0000     -10.403473      -283.0929
  16   1.0000     -10.376023      -282.3459
  17   1.0000     -10.374506      -282.3047
  18   1.0000      -1.220468       -33.2106
  19   1.0000      -1.214498       -33.0482
  20   1.0000      -1.193479       -32.4762
  21   1.0000      -1.190497       -32.3951
  22   1.0000      -1.117561       -30.4104
  23   1.0000      -1.094786       -29.7906
  24   1.0000      -1.063928       -28.9510
  25   1.0000      -1.054692       -28.6996
  26   1.0000      -0.973048       -26.4780
  27   1.0000      -0.933673       -25.4065
  28   1.0000      -0.887745       -24.1568
  29   1.0000      -0.833121       -22.6704
  30   1.0000      -0.820185       -22.3184
  31   1.0000      -0.795841       -21.6559
  32   1.0000      -0.783563       -21.3218
  33   1.0000      -0.779836       -21.2204
  34   1.0000      -0.695745       -18.9322
  35   1.0000      -0.688218       -18.7274
  36   1.0000      -0.684562       -18.6279
  37   1.0000      -0.659350       -17.9418
  38   1.0000      -0.648258       -17.6400
  39   1.0000      -0.640190       -17.4205
  40   1.0000      -0.616470       -16.7750
  41   1.0000      -0.598120       -16.2757
  42   1.0000      -0.584091       -15.8939
  43   1.0000      -0.578379       -15.7385
  44   1.0000      -0.574468       -15.6321
  45   1.0000      -0.564631       -15.3644
  46   1.0000      -0.562103       -15.2956
  47   1.0000      -0.556579       -15.1453
  48   1.0000      -0.552716       -15.0402
  49   1.0000      -0.543529       -14.7902
  50   1.0000      -0.540839       -14.7170
  51   1.0000      -0.538030       -14.6406
  52   1.0000      -0.525954       -14.3119
  53   1.0000      -0.515589       -14.0299
  54   1.0000      -0.506593       -13.7851
  55   1.0000      -0.501536       -13.6475
  56   1.0000      -0.483726       -13.1629
  57   1.0000      -0.416851       -11.3431
  58   1.0000      -0.415265       -11.2999
  59   1.0000      -0.405855       -11.0439
  60   1.0000      -0.391299       -10.6478
  61   1.0000      -0.388620       -10.5749
  62   1.0000      -0.387818       -10.5531
  63   1.0000      -0.384177       -10.4540
  64   1.0000      -0.376119       -10.2347
  65   0.0000      -0.070568        -1.9202
  66   0.0000      -0.027676        -0.7531
  67   0.0000       0.004790         0.1303
  68   0.0000       0.028156         0.7662
  69   0.0000       0.031296         0.8516

----------------------------------------------------------------------------------------------------
          SPIN FLIP ABSORPTION SPECTRUM VIA TRANSITION ELECTRIC DIPOLE MOMENTS
----------------------------------------------------------------------------------------------------
     Transition      Energy     Energy  Wavelength fosc(D2)      D2        DX        DY        DZ
                      (eV)      (cm-1)    (nm)                 (au**2)    (au)      (au)      (au)
----------------------------------------------------------------------------------------------------
  1-3A  ->  2-3A    0.471525    3803.1  2629.4   0.000052651   0.00456   0.03535  -0.03828   0.04293

Dispersion correction             ... done (  0.1 sec)

MULLIKEN ATOMIC CHARGES AND SPIN DENSITIES
------------------------------------------
   0 O :   -0.687753    0.014883
   1 O :   -0.669000   -0.015729
   2 O :   -0.663253   -0.000088
   3 O :   -0.638981   -0.000489
   4 N :   -0.254055    0.007382
   5 N :   -0.337248   -0.001965
   6 N :    0.049820    0.000848
   7 N :    0.070181    0.002485
   8 C :    0.546808    0.511544
   9 C :    1.002311    0.355239
  10 C :    0.038053   -0.260528
  11 C :    0.268453   -0.206041
  12 C :   -1.368307    0.059685
  13 C :   -1.469716    0.021920
  14 C :    0.261358   -0.307354
  15 C :   -0.168717   -0.287120
  16 C :    0.468222    0.024602
  17 C :    0.320231    0.017454
  18 H :    0.528489    0.005897
  19 H :    0.488869    0.000087
  20 H :    0.283548   -0.005312
  21 H :    0.327961    0.015390
  22 H :    0.389778    0.015284
  23 H :    0.358027    0.006741
  24 H :    0.280245    0.025841
  25 H :    0.362812   -0.008105
  26 H :    0.049695    0.001215
  27 H :    0.107926    0.001198
  28 H :    0.017167    0.003988
  29 H :    0.037079    0.001046
Sum of atomic charges       :    0.0000000

LOEWDIN ATOMIC CHARGES AND SPIN DENSITIES
-----------------------------------------
   0 O :    0.090052    0.013710
   1 O :    0.098466   -0.017099
   2 O :    0.090791    0.000204
   3 O :    0.093379   -0.000126
   4 N :    0.286876   -0.000619
   5 N :    0.283139   -0.002750
   6 N :    0.335185   -0.000941
   7 N :    0.326821   -0.002455
   8 C :   -0.029344    0.071500
   9 C :   -0.002899   -0.049936
  10 C :   -0.115818    0.002591
  11 C :   -0.112546   -0.004459
  12 C :    0.192040    0.009019
  13 C :    0.194737   -0.010318
  14 C :   -0.399958    0.004762
  15 C :   -0.417841   -0.012663
  16 C :   -0.491948   -0.000232
  17 C :   -0.488238   -0.000204
  18 H :    0.062904    0.000307
  19 H :    0.047935    0.000068
  20 H :    0.000177    0.000036
  21 H :   -0.007445    0.001629
  22 H :    0.017786    0.003720
  23 H :    0.019448   -0.003484
  24 H :   -0.006396   -0.001499
  25 H :    0.003739   -0.000096
  26 H :   -0.028501   -0.000012
  27 H :   -0.029419   -0.000366
  28 H :   -0.007230   -0.000077
  29 H :   -0.005896   -0.000211

  Mayer bond orders larger than 0.100000
B(  0-O , 14-C ) :   1.2378 B(  1-O ,  9-C ) :  -0.1001 B(  1-O , 15-C ) :   1.4358
B(  2-O , 16-C ) :   1.5333 B(  3-O , 17-C ) :   1.5742 B(  4-N ,  8-C ) :   0.2258
B(  4-N , 10-C ) :   0.4173 B(  4-N , 16-C ) :   1.0462 B(  4-N , 26-H ) :   1.1007
B(  5-N ,  9-C ) :   0.2365 B(  5-N , 10-C ) :   0.1403 B(  5-N , 17-C ) :   1.2136
B(  5-N , 27-H ) :   1.0169 B(  6-N , 10-C ) :   0.1175 B(  6-N , 14-C ) :   1.0394
B(  6-N , 16-C ) :   0.9148 B(  6-N , 28-H ) :   1.1180 B(  7-N , 11-C ) :   0.1503
B(  7-N , 15-C ) :   0.9155 B(  7-N , 17-C ) :   0.9928 B(  7-N , 29-H ) :   1.0938
B(  8-C ,  9-C ) :   0.1214 B(  8-C , 10-C ) :   0.5160 B(  8-C , 11-C ) :   0.1367
B(  8-C , 12-C ) :   0.4024 B(  8-C , 14-C ) :   0.7251 B(  8-C , 18-H ) :  -0.1679
B(  8-C , 20-H ) :  -0.1264 B(  9-C , 11-C ) :   0.3480 B(  9-C , 13-C ) :   0.3754
B(  9-C , 15-C ) :   0.4286 B(  9-C , 24-H ) :  -0.1089 B( 10-C , 11-C ) :   0.6874
B( 10-C , 12-C ) :  -0.1098 B( 10-C , 16-C ) :  -0.1212 B( 10-C , 18-H ) :   0.8208
B( 11-C , 13-C ) :  -0.2046 B( 11-C , 17-C ) :  -0.2221 B( 11-C , 19-H ) :   0.9260
B( 12-C , 20-H ) :   1.0847 B( 12-C , 21-H ) :   0.9127 B( 12-C , 22-H ) :   0.8341
B( 13-C , 23-H ) :   0.8419 B( 13-C , 24-H ) :   1.0347 B( 13-C , 25-H ) :   0.9259
B( 15-C , 17-C ) :  -0.1206

Dispersion correction           -0.059677439
FINAL SINGLE POINT ENERGY      -908.797039406980

DIPOLE MOMENT
-------------

Method             : TDA/CIS
Type of density    : Electron Density
Level              : Relaxed density
State              :   2
Multiplicity       :   3
Irrep              :   0
Energy             :     0.0000000000000000 Eh
Relativity type    :
Basis              : AO
                                X                 Y                 Z
Electronic contribution:     -2.219634721     -10.004771748      -7.071814850
Nuclear contribution   :      2.037882543      11.556514721       9.840937194
                        -----------------------------------------
Total Dipole Moment    :     -0.181752179       1.551742973       2.769122344
                        -----------------------------------------
Magnitude (a.u.)       :      3.179462009
Magnitude (Debye)      :      8.081550175

Rotational constants in cm-1:             0.019641             0.014925             0.012566
Rotational constants in MHz :           588.821436           447.439938           376.705783

                             ****ORCA TERMINATED NORMALLY****
TOTAL RUN TIME: 0 days 0 hours 4 minutes 36 seconds 238 msec
