                         Program Version 6.0.0  -   RELEASE  -
|  1> ! Engrad def2-TZVPPD wB97M-D3BJ
|  2> %pal nprocs 8 end%pal nprocs 32 end
|  3>  %tddft nroots 2 Iroot 2
|  4> sf true
|  5> end
|  6> *xyz 0 3
|  7> O   4.00847098522455 -0.41712464029845 1.52031659368268
|  8> O   -2.27767161383726 1.77012498021712 -2.14672232606959
|  9> O   1.48319745597631 -2.72734007129849 -1.39886339234505
| 10> O   -3.56017731990104 -1.48462544024554 0.68188959810716
| 11> N   0.51349397615638 -0.9121302870041 -0.40015103199968
| 12> N   -1.90445654804864 -0.082738003297 1.36163765873171
| 13> N   2.55416092329132 -1.73402656387569 0.35378001065938
| 14> N   -2.64207322749711 -0.0514950689104 -0.83339716217222
| 15> C   1.77645530679905 0.34881954849047 1.19459788975843
| 16> C   -1.09182459104262 1.62492719498142 -0.11097469137501
| 17> C   0.46401411573899 -0.25408174617646 0.89641777521611
| 18> C   -0.71560056966838 0.71898372233984 1.01590992181359
| 19> C   2.04012827190161 1.74808863044578 1.45042052225761
| 20> C   -0.53043666054897 2.96999871771074 -0.18830515526292
| 21> C   2.88915122350038 -0.59546971729778 1.08391926236044
| 22> C   -2.02201241402171 1.16913232250589 -1.11891367223992
| 23> C   1.4909541817286 -1.8603084178843 -0.56101993795957
| 24> C   -2.75951305823254 -0.61030358472926 0.43782042468911
| 25> H   0.32293028530648 -1.04617524048577 1.65398854599096
| 26> H   -0.51266860448405 1.35030630027081 1.88186826634583
| 27> H   1.92709340348194 2.35155073152464 0.52086986285608
| 28> H   1.29779079335171 2.20033402848513 2.1205306184999
| 29> H   3.04718655922968 1.89075638916397 1.82925306338338
| 30> H   -0.56162172241781 3.47533494321339 0.78250778174038
| 31> H   0.55160660704774 2.94692637430183 -0.44369168114573
| 32> H   -1.03167287290892 3.56191350614451 -0.94678966134883
| 33> H   -0.35417498228207 -1.11685202909617 -0.87179863531147
| 34> H   -1.9148908409437 -0.57578418289585 2.2373441365159
| 35> H   3.3053454859436 -2.38845848668725 0.19580855951864
| 36> H   -3.34058454884355 -0.35528390961304 -1.49365314489735
| 37> *
| 38>
| 39>                          ****END OF INPUT****

CARTESIAN COORDINATES (ANGSTROEM)
---------------------------------
  O      4.008471   -0.417125    1.520317
  O     -2.277672    1.770125   -2.146722
  O      1.483197   -2.727340   -1.398863
  O     -3.560177   -1.484625    0.681890
  N      0.513494   -0.912130   -0.400151
  N     -1.904457   -0.082738    1.361638
  N      2.554161   -1.734027    0.353780
  N     -2.642073   -0.051495   -0.833397
  C      1.776455    0.348820    1.194598
  C     -1.091825    1.624927   -0.110975
  C      0.464014   -0.254082    0.896418
  C     -0.715601    0.718984    1.015910
  C      2.040128    1.748089    1.450421
  C     -0.530437    2.969999   -0.188305
  C      2.889151   -0.595470    1.083919
  C     -2.022012    1.169132   -1.118914
  C      1.490954   -1.860308   -0.561020
  C     -2.759513   -0.610304    0.437820
  H      0.322930   -1.046175    1.653989
  H     -0.512669    1.350306    1.881868
  H      1.927093    2.351551    0.520870
  H      1.297791    2.200334    2.120531
  H      3.047187    1.890756    1.829253
  H     -0.561622    3.475335    0.782508
  H      0.551607    2.946926   -0.443692
  H     -1.031673    3.561914   -0.946790
  H     -0.354175   -1.116852   -0.871799
  H     -1.914891   -0.575784    2.237344
  H      3.305345   -2.388458    0.195809
  H     -3.340585   -0.355284   -1.493653

 Total Charge           Charge          ....    0
 Multiplicity           Mult            ....    3
 Number of Electrons    NEL             ....  132
 Basis Dimension        Dim             ....  882

ORBITAL ENERGIES
----------------
                 SPIN UP ORBITALS
  NO   OCC          E(Eh)            E(eV)
   0   1.0000     -19.345148      -526.4082
   1   1.0000     -19.339389      -526.2515
   2   1.0000     -19.325100      -525.8627
   3   1.0000     -19.324219      -525.8387
   4   1.0000     -14.570215      -396.4757
   5   1.0000     -14.565474      -396.3467
   6   1.0000     -14.564615      -396.3233
   7   1.0000     -14.561972      -396.2514
   8   1.0000     -10.510519      -286.0058
   9   1.0000     -10.507174      -285.9147
  10   1.0000     -10.490226      -285.4536
  11   1.0000     -10.484082      -285.2864
  12   1.0000     -10.453133      -284.4442
  13   1.0000     -10.444462      -284.2083
  14   1.0000     -10.428805      -283.7822
  15   1.0000     -10.415719      -283.4261
  16   1.0000     -10.382098      -282.5113
  17   1.0000     -10.381337      -282.4905
  18   1.0000      -1.227107       -33.3913
  19   1.0000      -1.222754       -33.2728
  20   1.0000      -1.205208       -32.7954
  21   1.0000      -1.201535       -32.6954
  22   1.0000      -1.126571       -30.6555
  23   1.0000      -1.106121       -30.0991
  24   1.0000      -1.070890       -29.1404
  25   1.0000      -1.058795       -28.8113
  26   1.0000      -0.992082       -26.9959
  27   1.0000      -0.970035       -26.3960
  28   1.0000      -0.901091       -24.5199
  29   1.0000      -0.853415       -23.2226
  30   1.0000      -0.839832       -22.8530
  31   1.0000      -0.795818       -21.6553
  32   1.0000      -0.791401       -21.5351
  33   1.0000      -0.785027       -21.3617
  34   1.0000      -0.705631       -19.2012
  35   1.0000      -0.702609       -19.1190
  36   1.0000      -0.695508       -18.9257
  37   1.0000      -0.686752       -18.6875
  38   1.0000      -0.648932       -17.6583
  39   1.0000      -0.646009       -17.5788
  40   1.0000      -0.627229       -17.0678
  41   1.0000      -0.612018       -16.6539
  42   1.0000      -0.607380       -16.5277
  43   1.0000      -0.589785       -16.0489
  44   1.0000      -0.584986       -15.9183
  45   1.0000      -0.580013       -15.7829
  46   1.0000      -0.575188       -15.6517
  47   1.0000      -0.571446       -15.5498
  48   1.0000      -0.566929       -15.4269
  49   1.0000      -0.561683       -15.2842
  50   1.0000      -0.554678       -15.0936
  51   1.0000      -0.547381       -14.8950
  52   1.0000      -0.543086       -14.7781
  53   1.0000      -0.528546       -14.3825
  54   1.0000      -0.518270       -14.1028
  55   1.0000      -0.516488       -14.0544
  56   1.0000      -0.501909       -13.6576
  57   1.0000      -0.430479       -11.7139
  58   1.0000      -0.428991       -11.6734
  59   1.0000      -0.414108       -11.2685
  60   1.0000      -0.410732       -11.1766
  61   1.0000      -0.400448       -10.8967
  62   1.0000      -0.399265       -10.8646
  63   1.0000      -0.392367       -10.6769
  64   1.0000      -0.390438       -10.6244
  65   1.0000      -0.351793        -9.5728
  66   1.0000      -0.340492        -9.2653
  67   0.0000       0.007561         0.2058
  68   0.0000       0.027673         0.7530
  69   0.0000       0.031448         0.8558
  70   0.0000       0.033699         0.9170
  71   0.0000       0.052210         1.4207

                 SPIN DOWN ORBITALS
  NO   OCC          E(Eh)            E(eV)
   0   1.0000     -19.340459      -526.2806
   1   1.0000     -19.335326      -526.1410
   2   1.0000     -19.324943      -525.8584
   3   1.0000     -19.324089      -525.8352
   4   1.0000     -14.569829      -396.4652
   5   1.0000     -14.565114      -396.3369
   6   1.0000     -14.564333      -396.3157
   7   1.0000     -14.561017      -396.2254
   8   1.0000     -10.510549      -286.0066
   9   1.0000     -10.507209      -285.9157
  10   1.0000     -10.491314      -285.4832
  11   1.0000     -10.485058      -285.3129
  12   1.0000     -10.453859      -284.4640
  13   1.0000     -10.444234      -284.2021
  14   1.0000     -10.417479      -283.4740
  15   1.0000     -10.404204      -283.1128
  16   1.0000     -10.382703      -282.5277
  17   1.0000     -10.381919      -282.5064
  18   1.0000      -1.224910       -33.3315
  19   1.0000      -1.220896       -33.2223
  20   1.0000      -1.200232       -32.6600
  21   1.0000      -1.196899       -32.5693
  22   1.0000      -1.123686       -30.5770
  23   1.0000      -1.103653       -30.0319
  24   1.0000      -1.069271       -29.0964
  25   1.0000      -1.057181       -28.7674
  26   1.0000      -0.979640       -26.6574
  27   1.0000      -0.952090       -25.9077
  28   1.0000      -0.896573       -24.3970
  29   1.0000      -0.847942       -23.0737
  30   1.0000      -0.830237       -22.5919
  31   1.0000      -0.792549       -21.5664
  32   1.0000      -0.788589       -21.4586
  33   1.0000      -0.783142       -21.3104
  34   1.0000      -0.700870       -19.0716
  35   1.0000      -0.695562       -18.9272
  36   1.0000      -0.689781       -18.7699
  37   1.0000      -0.678305       -18.4576
  38   1.0000      -0.640847       -17.4383
  39   1.0000      -0.635436       -17.2911
  40   1.0000      -0.624879       -17.0038
  41   1.0000      -0.605575       -16.4785
  42   1.0000      -0.602742       -16.4014
  43   1.0000      -0.584169       -15.8961
  44   1.0000      -0.578246       -15.7349
  45   1.0000      -0.572678       -15.5833
  46   1.0000      -0.570858       -15.5338
  47   1.0000      -0.564626       -15.3642
  48   1.0000      -0.559378       -15.2214
  49   1.0000      -0.554961       -15.1013
  50   1.0000      -0.545678       -14.8486
  51   1.0000      -0.538330       -14.6487
  52   1.0000      -0.533514       -14.5176
  53   1.0000      -0.519802       -14.1445
  54   1.0000      -0.510855       -13.9011
  55   1.0000      -0.508270       -13.8307
  56   1.0000      -0.497261       -13.5312
  57   1.0000      -0.426924       -11.6172
  58   1.0000      -0.424330       -11.5466
  59   1.0000      -0.403677       -10.9846
  60   1.0000      -0.399005       -10.8575
  61   1.0000      -0.396359       -10.7855
  62   1.0000      -0.395394       -10.7592
  63   1.0000      -0.388369       -10.5681
  64   1.0000      -0.386293       -10.5116
  65   0.0000      -0.068551        -1.8654
  66   0.0000      -0.054712        -1.4888
  67   0.0000       0.006989         0.1902
  68   0.0000       0.027385         0.7452
  69   0.0000       0.031505         0.8573

----------------------------------------------------------------------------------------------------
          SPIN FLIP ABSORPTION SPECTRUM VIA TRANSITION ELECTRIC DIPOLE MOMENTS
----------------------------------------------------------------------------------------------------
     Transition      Energy     Energy  Wavelength fosc(D2)      D2        DX        DY        DZ
                      (eV)      (cm-1)    (nm)                 (au**2)    (au)      (au)      (au)
----------------------------------------------------------------------------------------------------
  1-3A  ->  2-3A    0.014616     117.9  84830.2   0.000000678   0.00189   0.03679  -0.01086   0.02054

Dispersion correction             ... done (  0.1 sec)

MULLIKEN ATOMIC CHARGES AND SPIN DENSITIES
------------------------------------------
   0 O :   -0.639712   -0.134458
   1 O :   -0.649499    0.152956
   2 O :   -0.625074   -0.001939
   3 O :   -0.645832    0.004588
   4 N :   -0.282554   -0.050219
   5 N :   -0.268628    0.020092
   6 N :   -0.035249   -0.018854
   7 N :   -0.035321    0.016958
   8 C :    1.180341    0.300684
   9 C :    0.228671    0.373022
  10 C :    0.473954   -0.348362
  11 C :    0.191565    0.059435
  12 C :   -1.421873   -0.090780
  13 C :   -1.397973    0.012615
  14 C :   -0.101350   -0.349500
  15 C :    0.428765    0.108133
  16 C :    0.293329    0.002008
  17 C :    0.425191   -0.001747
  18 H :    0.287767   -0.093281
  19 H :    0.537511   -0.002444
  20 H :    0.231450   -0.025994
  21 H :    0.298845    0.022037
  22 H :    0.302632   -0.020638
  23 H :    0.309644    0.009168
  24 H :    0.229268    0.029937
  25 H :    0.324818    0.013033
  26 H :    0.154495    0.011909
  27 H :    0.069987   -0.001372
  28 H :    0.085247    0.004101
  29 H :    0.049582   -0.001086
Sum of atomic charges       :    0.0000000

LOEWDIN ATOMIC CHARGES AND SPIN DENSITIES
-----------------------------------------
   0 O :    0.085629   -0.122355
   1 O :    0.104611    0.135719
   2 O :    0.100633   -0.004052
   3 O :    0.090764    0.004680
   4 N :    0.301143   -0.019834
   5 N :    0.279667    0.010492
   6 N :    0.320041   -0.010782
   7 N :    0.312111    0.013656
   8 C :    0.006015   -0.438479
   9 C :   -0.012631    0.450348
  10 C :   -0.135403   -0.041520
  11 C :   -0.099840    0.052642
  12 C :    0.183625   -0.080764
  13 C :    0.186099    0.072562
  14 C :   -0.414006   -0.075720
  15 C :   -0.393019    0.072914
  16 C :   -0.467980   -0.001704
  17 C :   -0.495224    0.000909
  18 H :    0.070462   -0.018047
  19 H :    0.039366    0.004431
  20 H :    0.007101   -0.028576
  21 H :    0.004153   -0.013895
  22 H :    0.008261   -0.000591
  23 H :    0.014554    0.014803
  24 H :   -0.000485    0.024410
  25 H :    0.001380    0.000039
  26 H :   -0.040085   -0.002131
  27 H :   -0.030224    0.000710
  28 H :   -0.014844   -0.001017
  29 H :   -0.011872    0.001151

  Mayer bond orders larger than 0.100000
B(  0-O , 14-C ) :   1.4064 B(  1-O , 15-C ) :   1.3528 B(  2-O , 16-C ) :   1.6137
B(  3-O , 17-C ) :   1.5752 B(  4-N ,  8-C ) :   0.3334 B(  4-N , 11-C ) :   0.2258
B(  4-N , 16-C ) :   1.2016 B(  4-N , 26-H ) :   1.0040 B(  5-N ,  9-C ) :   0.2081
B(  5-N , 10-C ) :   0.2904 B(  5-N , 11-C ) :  -0.1968 B(  5-N , 17-C ) :   1.1343
B(  5-N , 27-H ) :   1.0902 B(  6-N , 14-C ) :   0.9626 B(  6-N , 16-C ) :   0.9507
B(  6-N , 28-H ) :   1.0546 B(  7-N , 15-C ) :   1.0525 B(  7-N , 17-C ) :   0.9899
B(  7-N , 29-H ) :   1.0849 B(  8-C , 10-C ) :  -0.5160 B(  8-C , 11-C ) :   0.3865
B(  8-C , 14-C ) :   0.5585 B(  8-C , 21-H ) :  -0.1055 B(  8-C , 22-H ) :  -0.1162
B(  9-C , 10-C ) :   0.2438 B(  9-C , 11-C ) :  -0.3190 B(  9-C , 13-C ) :   0.2054
B(  9-C , 15-C ) :   0.8189 B(  9-C , 19-H ) :  -0.2593 B(  9-C , 25-H ) :  -0.1047
B( 10-C , 11-C ) :   0.2195 B( 10-C , 14-C ) :   0.1384 B( 10-C , 16-C ) :  -0.1485
B( 10-C , 18-H ) :   0.9496 B( 11-C , 13-C ) :  -0.2193 B( 11-C , 15-C ) :  -0.1246
B( 11-C , 17-C ) :  -0.1563 B( 11-C , 19-H ) :   0.9867 B( 12-C , 20-H ) :   0.8675
B( 12-C , 21-H ) :   0.9682 B( 12-C , 22-H ) :   1.0767 B( 13-C , 23-H ) :   1.0024
B( 13-C , 24-H ) :   0.9330 B( 13-C , 25-H ) :   0.9609 B( 18-H , 19-H ) :   0.1247

Dispersion correction           -0.057374857
FINAL SINGLE POINT ENERGY      -908.792653822674

DIPOLE MOMENT
-------------

Method             : TDA/CIS
Type of density    : Electron Density
Level              : Relaxed density
State              :   2
Multiplicity       :   3
Irrep              :   0
Energy             :     0.0000000000000000 Eh
Relativity type    :
Basis              : AO
                                X                 Y                 Z
Electronic contribution:     -2.810615002     -10.147378097      -3.659099229
Nuclear contribution   :      2.777885123      11.886759746       5.098089203
                        -----------------------------------------
Total Dipole Moment    :     -0.032729879       1.739381649       1.438989974
                        -----------------------------------------
Magnitude (a.u.)       :      2.257700580
Magnitude (Debye)      :      5.738618820

Rotational constants in cm-1:             0.021610             0.010577             0.009018
Rotational constants in MHz :           647.852182           317.084004           270.355296

                             ****ORCA TERMINATED NORMALLY****
TOTAL RUN TIME: 0 days 0 hours 5 minutes 18 seconds 242 msec
