                         Program Version 6.0.0  -   RELEASE  -
|  1> ! Engrad def2-TZVPPD wB97M-D3BJ
|  2> %pal nprocs 8 end%pal nprocs 64 end
|  3> %tddft Nroots 2 Iroot 1
|  4> sf true
|  5> end
|  6> *xyz 0 3
|  7> O   2.37105601 -0.35796004 -1.13388858
|  8> O   -0.16330571 2.85363706 -2.23266777
|  9> O   0.20145222 -3.80361003 0.81585353
| 10> O   -2.07426548 -1.05802526 -1.47202341
| 11> N   0.39866376 -1.89148499 2.02784484
| 12> N   -1.36675939 -0.21828796 0.5020259
| 13> N   1.08710035 -1.96637064 -0.19841607
| 14> N   -0.7569562 0.76782344 -1.59279107
| 15> C   1.41247631 0.11062934 0.9903215
| 16> C   -0.41280618 2.76212799 -0.07080462
| 17> C   0.5914143 -0.47957093 2.07058491
| 18> C   -0.38600337 0.38039762 1.31992318
| 19> C   2.30940436 1.30071764 1.23363329
| 20> C   -1.65044387 3.43345365 0.29695077
| 21> C   1.674638 -0.715913 -0.21063692
| 22> C   -0.43088122 2.09091325 -1.33312979
| 23> C   0.52733696 -2.64381301 0.88576388
| 24> C   -1.4571572 -0.21678226 -0.88007519
| 25> H   0.81664971 -0.15199021 3.06489582
| 26> H   -0.5229676 1.39265038 1.63214245
| 27> H   2.42644344 1.86719432 0.31625104
| 28> H   1.868287 1.9523069 1.9842601
| 29> H   3.28985113 0.98471933 1.58660032
| 30> H   -2.50530669 2.75414973 0.21001898
| 31> H   -1.64568705 3.88040869 1.28514489
| 32> H   -1.79650228 4.2417834 -0.42405307
| 33> H   -0.03576708 -2.35883504 2.79330998
| 34> H   -1.81273698 -1.03794623 0.87667536
| 35> H   1.23223799 -2.52574791 -1.02111707
| 36> H   -0.74595464 0.58752841 -2.58707061
| 37> *
| 38>
| 39>                          ****END OF INPUT****

CARTESIAN COORDINATES (ANGSTROEM)
---------------------------------
  O      2.371056   -0.357960   -1.133889
  O     -0.163306    2.853637   -2.232668
  O      0.201452   -3.803610    0.815854
  O     -2.074265   -1.058025   -1.472023
  N      0.398664   -1.891485    2.027845
  N     -1.366759   -0.218288    0.502026
  N      1.087100   -1.966371   -0.198416
  N     -0.756956    0.767823   -1.592791
  C      1.412476    0.110629    0.990321
  C     -0.412806    2.762128   -0.070805
  C      0.591414   -0.479571    2.070585
  C     -0.386003    0.380398    1.319923
  C      2.309404    1.300718    1.233633
  C     -1.650444    3.433454    0.296951
  C      1.674638   -0.715913   -0.210637
  C     -0.430881    2.090913   -1.333130
  C      0.527337   -2.643813    0.885764
  C     -1.457157   -0.216782   -0.880075
  H      0.816650   -0.151990    3.064896
  H     -0.522968    1.392650    1.632142
  H      2.426443    1.867194    0.316251
  H      1.868287    1.952307    1.984260
  H      3.289851    0.984719    1.586600
  H     -2.505307    2.754150    0.210019
  H     -1.645687    3.880409    1.285145
  H     -1.796502    4.241783   -0.424053
  H     -0.035767   -2.358835    2.793310
  H     -1.812737   -1.037946    0.876675
  H      1.232238   -2.525748   -1.021117
  H     -0.745955    0.587528   -2.587071

 Total Charge           Charge          ....    0
 Multiplicity           Mult            ....    3
 Number of Electrons    NEL             ....  132
 Basis Dimension        Dim             ....  882

ORBITAL ENERGIES
----------------
                 SPIN UP ORBITALS
  NO   OCC          E(Eh)            E(eV)
   0   1.0000     -19.337775      -526.2076
   1   1.0000     -19.329276      -525.9763
   2   1.0000     -19.328886      -525.9657
   3   1.0000     -19.322477      -525.7913
   4   1.0000     -14.569977      -396.4692
   5   1.0000     -14.567734      -396.4082
   6   1.0000     -14.564922      -396.3317
   7   1.0000     -14.564429      -396.3183
   8   1.0000     -10.514686      -286.1192
   9   1.0000     -10.509266      -285.9717
  10   1.0000     -10.485196      -285.3167
  11   1.0000     -10.484765      -285.3050
  12   1.0000     -10.443576      -284.1842
  13   1.0000     -10.441191      -284.1192
  14   1.0000     -10.415070      -283.4085
  15   1.0000     -10.402093      -283.0554
  16   1.0000     -10.374922      -282.3160
  17   1.0000     -10.366748      -282.0936
  18   1.0000      -1.229436       -33.4546
  19   1.0000      -1.221796       -33.2468
  20   1.0000      -1.211396       -32.9638
  21   1.0000      -1.197214       -32.5779
  22   1.0000      -1.124476       -30.5985
  23   1.0000      -1.092766       -29.7357
  24   1.0000      -1.070348       -29.1257
  25   1.0000      -1.062797       -28.9202
  26   1.0000      -0.988494       -26.8983
  27   1.0000      -0.943533       -25.6748
  28   1.0000      -0.879977       -23.9454
  29   1.0000      -0.824899       -22.4466
  30   1.0000      -0.814884       -22.1741
  31   1.0000      -0.806592       -21.9485
  32   1.0000      -0.790578       -21.5127
  33   1.0000      -0.779539       -21.2123
  34   1.0000      -0.720681       -19.6107
  35   1.0000      -0.697926       -18.9915
  36   1.0000      -0.691829       -18.8256
  37   1.0000      -0.662095       -18.0165
  38   1.0000      -0.640091       -17.4178
  39   1.0000      -0.633885       -17.2489
  40   1.0000      -0.615056       -16.7365
  41   1.0000      -0.605936       -16.4884
  42   1.0000      -0.602019       -16.3818
  43   1.0000      -0.592570       -16.1246
  44   1.0000      -0.579530       -15.7698
  45   1.0000      -0.570388       -15.5210
  46   1.0000      -0.567536       -15.4434
  47   1.0000      -0.561392       -15.2763
  48   1.0000      -0.557348       -15.1662
  49   1.0000      -0.553849       -15.0710
  50   1.0000      -0.550175       -14.9710
  51   1.0000      -0.545491       -14.8436
  52   1.0000      -0.531604       -14.4657
  53   1.0000      -0.514883       -14.0107
  54   1.0000      -0.511781       -13.9263
  55   1.0000      -0.495859       -13.4930
  56   1.0000      -0.442690       -12.0462
  57   1.0000      -0.427195       -11.6246
  58   1.0000      -0.417513       -11.3611
  59   1.0000      -0.409552       -11.1445
  60   1.0000      -0.404417       -11.0048
  61   1.0000      -0.397249       -10.8097
  62   1.0000      -0.394432       -10.7331
  63   1.0000      -0.388044       -10.5592
  64   1.0000      -0.382620       -10.4116
  65   1.0000      -0.358593        -9.7578
  66   1.0000      -0.306843        -8.3496
  67   0.0000       0.009042         0.2460
  68   0.0000       0.018751         0.5102
  69   0.0000       0.031538         0.8582
  70   0.0000       0.035347         0.9618
  71   0.0000       0.041305         1.1240

                 SPIN DOWN ORBITALS
  NO   OCC          E(Eh)            E(eV)
   0   1.0000     -19.332483      -526.0636
   1   1.0000     -19.329214      -525.9747
   2   1.0000     -19.328869      -525.9653
   3   1.0000     -19.322471      -525.7912
   4   1.0000     -14.570008      -396.4701
   5   1.0000     -14.567633      -396.4054
   6   1.0000     -14.564824      -396.3290
   7   1.0000     -14.564403      -396.3176
   8   1.0000     -10.514716      -286.1200
   9   1.0000     -10.509268      -285.9717
  10   1.0000     -10.485220      -285.3173
  11   1.0000     -10.485218      -285.3173
  12   1.0000     -10.443362      -284.1783
  13   1.0000     -10.440644      -284.1044
  14   1.0000     -10.414792      -283.4009
  15   1.0000     -10.375293      -282.3261
  16   1.0000     -10.374909      -282.3156
  17   1.0000     -10.366661      -282.0912
  18   1.0000      -1.228026       -33.4163
  19   1.0000      -1.221446       -33.2372
  20   1.0000      -1.203872       -32.7590
  21   1.0000      -1.197132       -32.5756
  22   1.0000      -1.124194       -30.5909
  23   1.0000      -1.092177       -29.7196
  24   1.0000      -1.069305       -29.0973
  25   1.0000      -1.062202       -28.9040
  26   1.0000      -0.987843       -26.8806
  27   1.0000      -0.914485       -24.8844
  28   1.0000      -0.879452       -23.9311
  29   1.0000      -0.823290       -22.4029
  30   1.0000      -0.810660       -22.0592
  31   1.0000      -0.801229       -21.8025
  32   1.0000      -0.787154       -21.4196
  33   1.0000      -0.774318       -21.0703
  34   1.0000      -0.714055       -19.4304
  35   1.0000      -0.695805       -18.9338
  36   1.0000      -0.687723       -18.7139
  37   1.0000      -0.659673       -17.9506
  38   1.0000      -0.636440       -17.3184
  39   1.0000      -0.627827       -17.0841
  40   1.0000      -0.611790       -16.6477
  41   1.0000      -0.601517       -16.3681
  42   1.0000      -0.589191       -16.0327
  43   1.0000      -0.585448       -15.9309
  44   1.0000      -0.574798       -15.6410
  45   1.0000      -0.563978       -15.3466
  46   1.0000      -0.558341       -15.1932
  47   1.0000      -0.555898       -15.1268
  48   1.0000      -0.553590       -15.0640
  49   1.0000      -0.550601       -14.9826
  50   1.0000      -0.540627       -14.7112
  51   1.0000      -0.536508       -14.5991
  52   1.0000      -0.531006       -14.4494
  53   1.0000      -0.511489       -13.9183
  54   1.0000      -0.503547       -13.7022
  55   1.0000      -0.495094       -13.4722
  56   1.0000      -0.430016       -11.7013
  57   1.0000      -0.425741       -11.5850
  58   1.0000      -0.417215       -11.3530
  59   1.0000      -0.402756       -10.9595
  60   1.0000      -0.394873       -10.7450
  61   1.0000      -0.393122       -10.6974
  62   1.0000      -0.386813       -10.5257
  63   1.0000      -0.383012       -10.4223
  64   1.0000      -0.355938        -9.6856
  65   0.0000      -0.058280        -1.5859
  66   0.0000       0.007271         0.1979
  67   0.0000       0.014889         0.4051
  68   0.0000       0.029516         0.8032
  69   0.0000       0.032804         0.8926

----------------------------------------------------------------------------------------------------
          SPIN FLIP ABSORPTION SPECTRUM VIA TRANSITION ELECTRIC DIPOLE MOMENTS
----------------------------------------------------------------------------------------------------
     Transition      Energy     Energy  Wavelength fosc(D2)      D2        DX        DY        DZ
                      (eV)      (cm-1)    (nm)                 (au**2)    (au)      (au)      (au)
----------------------------------------------------------------------------------------------------
  1-3A  ->  2-3A    1.876614   15135.9   660.7   0.000313522   0.00682   0.04629   0.04652  -0.05012

Dispersion correction             ... done (  0.1 sec)

MULLIKEN ATOMIC CHARGES AND SPIN DENSITIES
------------------------------------------
   0 O :   -0.667524    0.000002
   1 O :   -0.610507   -0.026274
   2 O :   -0.639263   -0.000031
   3 O :   -0.632350   -0.000143
   4 N :   -0.225681   -0.000636
   5 N :   -0.120847    0.004059
   6 N :    0.015053   -0.000542
   7 N :    0.019616   -0.018134
   8 C :    1.259726    0.015422
   9 C :   -0.132195    0.089238
  10 C :    0.305805   -0.010963
  11 C :   -0.903601   -0.109628
  12 C :   -1.608510    0.017783
  13 C :   -0.879564    0.221757
  14 C :    0.243154    0.005075
  15 C :    0.779233   -0.159966
  16 C :    0.430493    0.000762
  17 C :    0.490569    0.014370
  18 H :    0.312329    0.000168
  19 H :    0.487004    0.008937
  20 H :    0.290570   -0.005562
  21 H :    0.313886   -0.014957
  22 H :    0.403492   -0.006042
  23 H :    0.297589   -0.012263
  24 H :    0.256486   -0.002428
  25 H :    0.348237   -0.014852
  26 H :    0.027294   -0.000410
  27 H :    0.096757   -0.001725
  28 H :    0.026397    0.000021
  29 H :    0.016351    0.006962
Sum of atomic charges       :   -0.0000000

LOEWDIN ATOMIC CHARGES AND SPIN DENSITIES
-----------------------------------------
   0 O :    0.106281   -0.000183
   1 O :    0.110439   -0.029506
   2 O :    0.096443    0.000014
   3 O :    0.107586   -0.000759
   4 N :    0.291847   -0.000134
   5 N :    0.267353   -0.000001
   6 N :    0.339261   -0.000133
   7 N :    0.339169    0.000506
   8 C :   -0.102869   -0.001168
   9 C :    0.154662    0.051075
  10 C :   -0.124220   -0.000254
  11 C :    0.040349   -0.002250
  12 C :    0.186001   -0.005518
  13 C :    0.107189    0.002346
  14 C :   -0.395917   -0.000154
  15 C :   -0.526085   -0.008697
  16 C :   -0.473743   -0.000018
  17 C :   -0.472356   -0.000326
  18 H :    0.049966    0.000013
  19 H :   -0.019920   -0.001479
  20 H :   -0.009425   -0.002072
  21 H :   -0.005228   -0.001517
  22 H :    0.004089   -0.000702
  23 H :    0.007633    0.001671
  24 H :   -0.014131   -0.000228
  25 H :    0.021985   -0.000538
  26 H :   -0.035344   -0.000013
  27 H :   -0.033648   -0.000056
  28 H :   -0.008204   -0.000011
  29 H :   -0.009160    0.000094

  Mayer bond orders larger than 0.100000
B(  0-O ,  8-C ) :  -0.1082 B(  0-O , 14-C ) :   1.5304 B(  1-O ,  9-C ) :   0.2726
B(  1-O , 15-C ) :   1.1898 B(  2-O , 16-C ) :   1.5839 B(  3-O , 17-C ) :   1.5123
B(  4-N ,  8-C ) :   0.1695 B(  4-N , 10-C ) :   0.4604 B(  4-N , 16-C ) :   1.0991
B(  4-N , 26-H ) :   1.1235 B(  5-N , 11-C ) :   0.6836 B(  5-N , 17-C ) :   0.9674
B(  5-N , 19-H ) :  -0.1480 B(  5-N , 27-H ) :   1.0304 B(  6-N , 10-C ) :   0.1580
B(  6-N , 14-C ) :   1.0466 B(  6-N , 16-C ) :   0.9388 B(  6-N , 28-H ) :   1.1145
B(  7-N , 15-C ) :   0.9328 B(  7-N , 17-C ) :   0.9550 B(  7-N , 29-H ) :   1.1329
B(  8-C , 10-C ) :   0.5728 B(  8-C , 11-C ) :   0.4267 B(  8-C , 12-C ) :   0.2236
B(  8-C , 14-C ) :   0.5407 B(  8-C , 18-H ) :  -0.1214 B(  8-C , 19-H ) :  -0.1438
B(  8-C , 20-H ) :  -0.1167 B(  8-C , 21-H ) :  -0.1076 B(  9-C , 13-C ) :   0.4939
B(  9-C , 15-C ) :   0.6538 B( 10-C , 11-C ) :   0.8607 B( 10-C , 12-C ) :  -0.1495
B( 10-C , 14-C ) :  -0.1101 B( 10-C , 16-C ) :  -0.1139 B( 10-C , 18-H ) :   1.0689
B( 11-C , 14-C ) :   0.1530 B( 11-C , 17-C ) :  -0.1195 B( 11-C , 19-H ) :   0.9483
B( 12-C , 20-H ) :   1.0493 B( 12-C , 21-H ) :   1.0324 B( 12-C , 22-H ) :   0.7646
B( 13-C , 23-H ) :   0.9485 B( 13-C , 24-H ) :   1.0602 B( 13-C , 25-H ) :   0.8699

Dispersion correction           -0.056562675
FINAL SINGLE POINT ENERGY      -908.718926581803

DIPOLE MOMENT
-------------

Method             : TDA/CIS
Type of density    : Electron Density
Level              : Relaxed density
State              :   1
Multiplicity       :   3
Irrep              :   0
Energy             :     0.0000000000000000 Eh
Relativity type    :
Basis              : AO
                                X                 Y                 Z
Electronic contribution:     -0.202355992      -9.817788612      -6.264423820
Nuclear contribution   :     -0.506152563      10.824872189       8.725544721
                        -----------------------------------------
Total Dipole Moment    :     -0.708508555       1.007083577       2.461120901
                        -----------------------------------------
Magnitude (a.u.)       :      2.751966169
Magnitude (Debye)      :      6.994942104

Rotational constants in cm-1:             0.022621             0.012119             0.011089
Rotational constants in MHz :           678.165240           363.329246           332.428859

                             ****ORCA TERMINATED NORMALLY****
TOTAL RUN TIME: 0 days 0 hours 4 minutes 37 seconds 109 msec
