                         Program Version 6.0.0  -   RELEASE  -
|  1> ! EnGrad wB97M-D3BJ def2-TZVPPD
|  2> %pal nprocs 8 end%pal nprocs 16 end
|  3> %tddft
|  4>  sf true
|  5>  nroots 2 Iroot 1 end
|  6> *xyz 0 3
|  7> O   -0.03365194313818 0.76696468110619 -2.99917095e-05
|  8> C   0.75105332758543 -0.46124000095452 -5.1001832e-07
|  9> C   -0.73453590961023 -0.41012100611518 1.493199212e-05
| 10> H   1.27577641437743 -0.65396348809582 0.92401243436493
| 11> H   1.27574811731763 -0.6541505394175 -0.92399482153356
| 12> H   -1.26607805254104 -0.6529202357118 -0.91479980631883
| 13> H   -1.26611195399103 -0.65296941081136 0.91479776322315
| 14> *
| 15>
| 16>                          ****END OF INPUT****

CARTESIAN COORDINATES (ANGSTROEM)
---------------------------------
  O     -0.033652    0.766965   -0.000030
  C      0.751053   -0.461240   -0.000001
  C     -0.734536   -0.410121    0.000015
  H      1.275776   -0.653963    0.924012
  H      1.275748   -0.654151   -0.923995
  H     -1.266078   -0.652920   -0.914800
  H     -1.266112   -0.652969    0.914798

 Total Charge           Charge          ....    0
 Multiplicity           Mult            ....    3
 Number of Electrons    NEL             ....   24
 Basis Dimension        Dim             ....  182

ORBITAL ENERGIES
----------------
                 SPIN UP ORBITALS
  NO   OCC          E(Eh)            E(eV)
   0   1.0000     -19.503474      -530.7165
   1   1.0000     -10.439847      -284.0827
   2   1.0000     -10.405652      -283.1522
   3   1.0000      -1.338787       -36.4303
   4   1.0000      -0.866911       -23.5899
   5   1.0000      -0.812331       -22.1047
   6   1.0000      -0.715056       -19.4577
   7   1.0000      -0.673524       -18.3275
   8   1.0000      -0.605608       -16.4794
   9   1.0000      -0.527712       -14.3598
  10   1.0000      -0.516978       -14.0677
  11   1.0000      -0.472786       -12.8652
  12   1.0000      -0.119271        -3.2455
  13   0.0000       0.031419         0.8550
  14   0.0000       0.056365         1.5338
  15   0.0000       0.066851         1.8191
  16   0.0000       0.082581         2.2471
  17   0.0000       0.104000         2.8300

                 SPIN DOWN ORBITALS
  NO   OCC          E(Eh)            E(eV)
   0   1.0000     -19.472748      -529.8804
   1   1.0000     -10.439283      -284.0673
   2   1.0000     -10.400460      -283.0109
   3   1.0000      -1.277878       -34.7728
   4   1.0000      -0.835182       -22.7265
   5   1.0000      -0.793756       -21.5992
   6   1.0000      -0.653074       -17.7710
   7   1.0000      -0.645396       -17.5621
   8   1.0000      -0.569438       -15.4952
   9   1.0000      -0.507214       -13.8020
  10   1.0000      -0.450433       -12.2569
  11   0.0000      -0.144378        -3.9287
  12   0.0000       0.031497         0.8571
  13   0.0000       0.056602         1.5402
  14   0.0000       0.064432         1.7533
  15   0.0000       0.072200         1.9647

----------------------------------------------------------------------------------------------------
          SPIN FLIP ABSORPTION SPECTRUM VIA TRANSITION ELECTRIC DIPOLE MOMENTS
----------------------------------------------------------------------------------------------------
     Transition      Energy     Energy  Wavelength fosc(D2)      D2        DX        DY        DZ
                      (eV)      (cm-1)    (nm)                 (au**2)    (au)      (au)      (au)
----------------------------------------------------------------------------------------------------
  1-3A  ->  2-3A    6.941895   55990.2   178.6   0.006986394   0.04108   0.00002   0.00009   0.20268

Dispersion correction             ... done (  0.0 sec)

MULLIKEN ATOMIC CHARGES AND SPIN DENSITIES
------------------------------------------
   0 O :   -0.345388    0.071085
   1 C :   -0.377873   -0.104607
   2 C :   -0.135741   -0.031381
   3 H :    0.250133    0.023706
   4 H :    0.250165    0.023673
   5 H :    0.179359    0.008746
   6 H :    0.179345    0.008778
Sum of atomic charges       :    0.0000000

LOEWDIN ATOMIC CHARGES AND SPIN DENSITIES
-----------------------------------------
   0 O :   -0.106950    0.079175
   1 C :    0.084059   -0.041431
   2 C :   -0.050782   -0.008003
   3 H :    0.021417   -0.016169
   4 H :    0.021428   -0.016179
   5 H :    0.015410    0.001300
   6 H :    0.015418    0.001306

  Mayer bond orders larger than 0.100000
B(  0-O ,  1-C ) :   1.0471 B(  0-O ,  2-C ) :   0.9057 B(  1-C ,  2-C ) :   0.7104
B(  1-C ,  3-H ) :   1.0296 B(  1-C ,  4-H ) :   1.0296 B(  2-C ,  5-H ) :   1.0041
B(  2-C ,  6-H ) :   1.0041

Dispersion correction           -0.005212478
FINAL SINGLE POINT ENERGY      -153.876754838323

DIPOLE MOMENT
-------------

Method             : TDA/CIS
Type of density    : Electron Density
Level              : Relaxed density
State              :   1
Multiplicity       :   3
Irrep              :   0
Energy             :     0.0000000000000000 Eh
Relativity type    :
Basis              : AO
                                X                 Y                 Z
Electronic contribution:      0.117611821       0.601951144       0.000001810
Nuclear contribution   :      0.045052766      -2.370056481       0.000039044
                        -----------------------------------------
Total Dipole Moment    :      0.162664587      -1.768105337       0.000040854
                        -----------------------------------------
Magnitude (a.u.)       :      1.775572091
Magnitude (Debye)      :      4.513145591

Rotational constants in cm-1:             0.892888             0.719984             0.475169
Rotational constants in MHz :         26768.115890         21584.568995         14245.202252

                             ****ORCA TERMINATED NORMALLY****
TOTAL RUN TIME: 0 days 0 hours 0 minutes 22 seconds 183 msec
