                         Program Version 6.0.0  -   RELEASE  -
|  1> ! Engrad def2-TZVPPD wB97M-D3BJ
|  2> %pal nprocs 8 end%pal nprocs 32 end
|  3>  %tddft nroots 2 Iroot 2
|  4> sf true
|  5> end
|  6> *xyz 0 3
|  7> O   2.59980795728779 1.15629988572335 -0.51982013462935
|  8> O   -0.58990458599999 0.87192001350642 -2.27928570076462
|  9> O   0.64346730141803 -2.82301995692571 -1.5070252073153
| 10> O   -2.53266573633793 -1.63277093606818 0.97698725167763
| 11> N   0.59608945237792 -2.08986816896059 0.64846064755832
| 12> N   -2.00036094446451 0.53369576469785 1.4288777245561
| 13> N   1.7032931673844 -0.87592707356641 -0.96616041190361
| 14> N   -1.62216922346504 -0.33358491980152 -0.66509664917768
| 15> C   1.41527351282146 0.07481432845117 1.22665025349108
| 16> C   -0.83512866288229 1.88884670799066 -0.14629426254183
| 17> C   0.78132434652429 -1.06152137102841 1.5427613189081
| 18> C   -1.37953476268639 1.70610808450183 1.06097342150448
| 19> C   1.67085847014308 1.18466053478524 2.19344851997472
| 20> C   -0.13045782369733 3.13832327330259 -0.56494618891025
| 21> C   1.96680640247818 0.20068360046267 -0.12296664126596
| 22> C   -0.98277653120617 0.81933463505827 -1.13590137266027
| 23> C   0.95742137262029 -1.9983409969802 -0.67860954786614
| 24> C   -2.09197292460174 -0.56462060549144 0.60535184485381
| 25> H   0.36962107698591 -1.23585145272896 2.52534874145531
| 26> H   -1.34031017562376 2.46401839507801 1.82835800601665
| 27> H   1.36210045149045 2.13801454964415 1.77061250864555
| 28> H   1.13513093328884 1.01662215562435 3.12564142625813
| 29> H   2.73378856087097 1.26834391511655 2.41360523451764
| 30> H   -0.60051324514376 3.56402416524102 -1.44904705026035
| 31> H   -0.148938134179 3.87624134978822 0.23422312189622
| 32> H   0.90442566643578 2.91873739116503 -0.81973969332608
| 33> H   -0.04796259212423 -2.8315634867981 0.86471817994722
| 34> H   -2.36045778134673 0.40728063141728 2.35706141749424
| 35> H   1.95594015391543 -0.75613682900581 -1.93504091911969
| 36> H   -1.67959570228398 -1.10976358419934 -1.30854583901407
| 37> *
| 38>
| 39>                          ****END OF INPUT****

CARTESIAN COORDINATES (ANGSTROEM)
---------------------------------
  O      2.599808    1.156300   -0.519820
  O     -0.589905    0.871920   -2.279286
  O      0.643467   -2.823020   -1.507025
  O     -2.532666   -1.632771    0.976987
  N      0.596089   -2.089868    0.648461
  N     -2.000361    0.533696    1.428878
  N      1.703293   -0.875927   -0.966160
  N     -1.622169   -0.333585   -0.665097
  C      1.415274    0.074814    1.226650
  C     -0.835129    1.888847   -0.146294
  C      0.781324   -1.061521    1.542761
  C     -1.379535    1.706108    1.060973
  C      1.670858    1.184661    2.193449
  C     -0.130458    3.138323   -0.564946
  C      1.966806    0.200684   -0.122967
  C     -0.982777    0.819335   -1.135901
  C      0.957421   -1.998341   -0.678610
  C     -2.091973   -0.564621    0.605352
  H      0.369621   -1.235851    2.525349
  H     -1.340310    2.464018    1.828358
  H      1.362100    2.138015    1.770613
  H      1.135131    1.016622    3.125641
  H      2.733789    1.268344    2.413605
  H     -0.600513    3.564024   -1.449047
  H     -0.148938    3.876241    0.234223
  H      0.904426    2.918737   -0.819740
  H     -0.047963   -2.831563    0.864718
  H     -2.360458    0.407281    2.357061
  H      1.955940   -0.756137   -1.935041
  H     -1.679596   -1.109764   -1.308546

 Total Charge           Charge          ....    0
 Multiplicity           Mult            ....    3
 Number of Electrons    NEL             ....  132
 Basis Dimension        Dim             ....  882

ORBITAL ENERGIES
----------------
                 SPIN UP ORBITALS
  NO   OCC          E(Eh)            E(eV)
   0   1.0000     -19.340220      -526.2742
   1   1.0000     -19.320974      -525.7504
   2   1.0000     -19.320220      -525.7299
   3   1.0000     -19.318807      -525.6915
   4   1.0000     -14.599610      -397.2756
   5   1.0000     -14.575560      -396.6211
   6   1.0000     -14.562831      -396.2748
   7   1.0000     -14.556289      -396.0968
   8   1.0000     -10.517806      -286.2040
   9   1.0000     -10.505559      -285.8708
  10   1.0000     -10.475696      -285.0582
  11   1.0000     -10.459363      -284.6137
  12   1.0000     -10.430722      -283.8344
  13   1.0000     -10.409622      -283.2602
  14   1.0000     -10.403572      -283.0956
  15   1.0000     -10.379089      -282.4294
  16   1.0000     -10.362117      -281.9675
  17   1.0000     -10.361308      -281.9455
  18   1.0000      -1.233350       -33.5612
  19   1.0000      -1.219109       -33.1737
  20   1.0000      -1.193485       -32.4764
  21   1.0000      -1.189262       -32.3615
  22   1.0000      -1.131501       -30.7897
  23   1.0000      -1.116773       -30.3889
  24   1.0000      -1.066448       -29.0195
  25   1.0000      -1.063581       -28.9415
  26   1.0000      -0.978248       -26.6195
  27   1.0000      -0.956039       -26.0152
  28   1.0000      -0.857208       -23.3258
  29   1.0000      -0.848413       -23.0865
  30   1.0000      -0.813899       -22.1473
  31   1.0000      -0.807612       -21.9762
  32   1.0000      -0.795327       -21.6420
  33   1.0000      -0.787792       -21.4369
  34   1.0000      -0.706107       -19.2141
  35   1.0000      -0.695724       -18.9316
  36   1.0000      -0.691682       -18.8216
  37   1.0000      -0.687714       -18.7137
  38   1.0000      -0.645192       -17.5566
  39   1.0000      -0.636520       -17.3206
  40   1.0000      -0.634964       -17.2782
  41   1.0000      -0.600170       -16.3315
  42   1.0000      -0.599731       -16.3195
  43   1.0000      -0.592322       -16.1179
  44   1.0000      -0.577039       -15.7020
  45   1.0000      -0.575304       -15.6548
  46   1.0000      -0.560137       -15.2421
  47   1.0000      -0.551424       -15.0050
  48   1.0000      -0.550435       -14.9781
  49   1.0000      -0.548645       -14.9294
  50   1.0000      -0.529748       -14.4152
  51   1.0000      -0.525543       -14.3008
  52   1.0000      -0.519831       -14.1453
  53   1.0000      -0.516730       -14.0610
  54   1.0000      -0.506028       -13.7697
  55   1.0000      -0.504154       -13.7187
  56   1.0000      -0.498272       -13.5587
  57   1.0000      -0.472951       -12.8697
  58   1.0000      -0.427525       -11.6335
  59   1.0000      -0.412556       -11.2262
  60   1.0000      -0.410799       -11.1784
  61   1.0000      -0.395919       -10.7735
  62   1.0000      -0.392343       -10.6762
  63   1.0000      -0.388898       -10.5825
  64   1.0000      -0.383204       -10.4275
  65   1.0000      -0.344757        -9.3813
  66   1.0000      -0.212534        -5.7834
  67   0.0000       0.011488         0.3126
  68   0.0000       0.021675         0.5898
  69   0.0000       0.033638         0.9153
  70   0.0000       0.039299         1.0694
  71   0.0000       0.040845         1.1115

                 SPIN DOWN ORBITALS
  NO   OCC          E(Eh)            E(eV)
   0   1.0000     -19.338417      -526.2251
   1   1.0000     -19.320201      -525.7294
   2   1.0000     -19.318775      -525.6906
   3   1.0000     -19.314684      -525.5793
   4   1.0000     -14.594992      -397.1499
   5   1.0000     -14.575429      -396.6176
   6   1.0000     -14.562840      -396.2750
   7   1.0000     -14.555337      -396.0709
   8   1.0000     -10.518123      -286.2127
   9   1.0000     -10.505565      -285.8710
  10   1.0000     -10.475687      -285.0579
  11   1.0000     -10.458935      -284.6021
  12   1.0000     -10.430492      -283.8281
  13   1.0000     -10.400265      -283.0056
  14   1.0000     -10.393023      -282.8085
  15   1.0000     -10.379143      -282.4308
  16   1.0000     -10.362506      -281.9781
  17   1.0000     -10.361200      -281.9426
  18   1.0000      -1.229306       -33.4511
  19   1.0000      -1.218943       -33.1691
  20   1.0000      -1.189522       -32.3685
  21   1.0000      -1.183836       -32.2138
  22   1.0000      -1.121050       -30.5053
  23   1.0000      -1.116506       -30.3817
  24   1.0000      -1.063589       -28.9417
  25   1.0000      -1.060988       -28.8710
  26   1.0000      -0.958019       -26.0690
  27   1.0000      -0.951204       -25.8836
  28   1.0000      -0.848214       -23.0811
  29   1.0000      -0.845715       -23.0131
  30   1.0000      -0.808184       -21.9918
  31   1.0000      -0.803226       -21.8569
  32   1.0000      -0.788314       -21.4511
  33   1.0000      -0.787431       -21.4271
  34   1.0000      -0.694411       -18.8959
  35   1.0000      -0.691627       -18.8201
  36   1.0000      -0.687946       -18.7200
  37   1.0000      -0.687103       -18.6970
  38   1.0000      -0.637191       -17.3388
  39   1.0000      -0.632702       -17.2167
  40   1.0000      -0.628608       -17.1053
  41   1.0000      -0.593839       -16.1592
  42   1.0000      -0.591846       -16.1049
  43   1.0000      -0.589448       -16.0397
  44   1.0000      -0.569329       -15.4922
  45   1.0000      -0.562811       -15.3149
  46   1.0000      -0.558992       -15.2109
  47   1.0000      -0.549426       -14.9506
  48   1.0000      -0.544171       -14.8076
  49   1.0000      -0.536159       -14.5896
  50   1.0000      -0.520818       -14.1722
  51   1.0000      -0.519830       -14.1453
  52   1.0000      -0.515449       -14.0261
  53   1.0000      -0.505736       -13.7618
  54   1.0000      -0.504309       -13.7229
  55   1.0000      -0.500386       -13.6162
  56   1.0000      -0.471836       -12.8393
  57   1.0000      -0.455443       -12.3932
  58   1.0000      -0.423484       -11.5236
  59   1.0000      -0.411733       -11.2038
  60   1.0000      -0.396392       -10.7864
  61   1.0000      -0.386723       -10.5233
  62   1.0000      -0.383452       -10.4343
  63   1.0000      -0.380555       -10.3554
  64   1.0000      -0.343586        -9.3495
  65   0.0000      -0.109471        -2.9789
  66   0.0000       0.011137         0.3031
  67   0.0000       0.023737         0.6459
  68   0.0000       0.031745         0.8638
  69   0.0000       0.037410         1.0180

----------------------------------------------------------------------------------------------------
          SPIN FLIP ABSORPTION SPECTRUM VIA TRANSITION ELECTRIC DIPOLE MOMENTS
----------------------------------------------------------------------------------------------------
     Transition      Energy     Energy  Wavelength fosc(D2)      D2        DX        DY        DZ
                      (eV)      (cm-1)    (nm)                 (au**2)    (au)      (au)      (au)
----------------------------------------------------------------------------------------------------
  1-3A  ->  2-3A    4.232941   34141.0   292.9   0.001446036   0.01394   0.03780  -0.04285  -0.10334

Dispersion correction             ... done (  0.0 sec)

MULLIKEN ATOMIC CHARGES AND SPIN DENSITIES
------------------------------------------
   0 O :   -0.684670   -0.001881
   1 O :   -0.682465    0.008202
   2 O :   -0.647725   -0.000000
   3 O :   -0.645394    0.003290
   4 N :   -0.060594   -0.000369
   5 N :    0.093285    0.030152
   6 N :    0.042826   -0.003797
   7 N :    0.004429   -0.011163
   8 C :    0.812121   -0.038616
   9 C :    1.033965    0.050367
  10 C :    0.070879    0.003551
  11 C :   -0.327909    0.064274
  12 C :   -1.429933    0.014407
  13 C :   -1.383306   -0.019772
  14 C :    0.288830    0.021878
  15 C :    0.324964   -0.137426
  16 C :    0.378908    0.000966
  17 C :    0.459510   -0.006511
  18 H :    0.184948    0.000110
  19 H :    0.128662    0.000360
  20 H :    0.224317    0.002315
  21 H :    0.325822   -0.003323
  22 H :    0.372264   -0.002165
  23 H :    0.373001    0.008174
  24 H :    0.335520   -0.002264
  25 H :    0.253224    0.017333
  26 H :    0.065883    0.000465
  27 H :    0.032721   -0.000207
  28 H :    0.033047   -0.000349
  29 H :    0.022872    0.001999
Sum of atomic charges       :    0.0000000

LOEWDIN ATOMIC CHARGES AND SPIN DENSITIES
-----------------------------------------
   0 O :    0.086174   -0.000740
   1 O :    0.083427    0.006290
   2 O :    0.088207    0.000056
   3 O :    0.094055    0.002427
   4 N :    0.279067   -0.000318
   5 N :    0.312367    0.020417
   6 N :    0.345674   -0.000165
   7 N :    0.321111   -0.007254
   8 C :   -0.142028   -0.000438
   9 C :   -0.101138    0.007372
  10 C :    0.044321   -0.000376
  11 C :    0.002248   -0.013619
  12 C :    0.174620   -0.000781
  13 C :    0.217701    0.002235
  14 C :   -0.399083   -0.000214
  15 C :   -0.431956   -0.007925
  16 C :   -0.482771   -0.000056
  17 C :   -0.482997   -0.002988
  18 H :    0.041257    0.000034
  19 H :    0.005522   -0.006664
  20 H :   -0.017900   -0.000088
  21 H :   -0.004483   -0.000222
  22 H :    0.003406   -0.000160
  23 H :    0.014537    0.001028
  24 H :   -0.002568   -0.000332
  25 H :   -0.003508    0.001183
  26 H :   -0.021504   -0.000018
  27 H :   -0.008759    0.002215
  28 H :   -0.001977   -0.000062
  29 H :   -0.013022   -0.000836

  Mayer bond orders larger than 0.100000
B(  0-O , 14-C ) :   1.4482 B(  1-O , 15-C ) :   1.2329 B(  2-O , 16-C ) :   1.5617
B(  3-O , 17-C ) :   1.5376 B(  4-N , 10-C ) :   0.8356 B(  4-N , 16-C ) :   1.0072
B(  4-N , 26-H ) :   1.1101 B(  5-N , 11-C ) :   0.9278 B(  5-N , 17-C ) :   0.9888
B(  5-N , 27-H ) :   1.1045 B(  6-N , 14-C ) :   1.0387 B(  6-N , 16-C ) :   0.9143
B(  6-N , 28-H ) :   1.0987 B(  7-N , 15-C ) :   0.8465 B(  7-N , 17-C ) :   0.9420
B(  7-N , 29-H ) :   1.1301 B(  8-C , 10-C ) :   1.0580 B(  8-C , 12-C ) :   0.3887
B(  8-C , 14-C ) :   0.7147 B(  9-C , 11-C ) :   0.4843 B(  9-C , 13-C ) :   0.4017
B(  9-C , 15-C ) :   0.9023 B(  9-C , 19-H ) :  -0.1238 B(  9-C , 24-H ) :  -0.1160
B( 10-C , 12-C ) :  -0.1603 B( 10-C , 18-H ) :   1.1252 B( 11-C , 13-C ) :  -0.1994
B( 11-C , 19-H ) :   1.1878 B( 12-C , 14-C ) :  -0.1055 B( 12-C , 20-H ) :   1.0128
B( 12-C , 21-H ) :   1.0174 B( 12-C , 22-H ) :   0.8915 B( 13-C , 23-H ) :   0.8551
B( 13-C , 24-H ) :   1.0426 B( 13-C , 25-H ) :   0.9474

Dispersion correction           -0.060293215
FINAL SINGLE POINT ENERGY      -908.771065211494

DIPOLE MOMENT
-------------

Method             : TDA/CIS
Type of density    : Electron Density
Level              : Relaxed density
State              :   2
Multiplicity       :   3
Irrep              :   0
Energy             :     0.0000000000000000 Eh
Relativity type    :
Basis              : AO
                                X                 Y                 Z
Electronic contribution:     -2.596657570     -10.066059535      -5.925716822
Nuclear contribution   :      2.038738220      10.991253004       8.495380558
                        -----------------------------------------
Total Dipole Moment    :     -0.557919350       0.925193468       2.569663736
                        -----------------------------------------
Magnitude (a.u.)       :      2.787548864
Magnitude (Debye)      :      7.085386127

Rotational constants in cm-1:             0.017307             0.016551             0.013542
Rotational constants in MHz :           518.846352           496.193712           405.993387

                             ****ORCA TERMINATED NORMALLY****
TOTAL RUN TIME: 0 days 0 hours 30 minutes 58 seconds 726 msec
