                         Program Version 6.0.0  -   RELEASE  -
|  1> ! Engrad def2-TZVPPD wB97M-D3BJ
|  2> %pal nprocs 8 end%pal nprocs 64 end
|  3> %tddft
|  4>  Iroot 1 Nroots 3
|  5> sf true
|  6> end
|  7> *xyz 0 3
|  8> O   3.15460613 0.18403087 -1.82324354
|  9> O   -2.1903451 0.59418326 -1.81703747
| 10> O   -0.59232255 -2.30458606 -1.35592609
| 11> O   -2.89001605 -0.46750468 2.56295059
| 12> N   0.31222031 -1.51913544 0.50067184
| 13> N   -1.07479525 0.84394786 2.05834916
| 14> N   1.31542866 -1.20009306 -1.55834896
| 15> N   -2.38565445 -0.16123801 0.34647683
| 16> C   2.11655637 0.04413281 0.26684726
| 17> C   -0.48522307 1.14566754 -0.26942247
| 18> C   0.93127581 -0.32345848 1.09530013
| 19> C   0.01312138 0.94319266 1.09223329
| 20> C   3.12224231 0.96339353 0.83940491
| 21> C   0.21362143 2.01651235 -1.22780261
| 22> C   2.33330319 -0.33986419 -1.12824235
| 23> C   -1.78503818 0.58805352 -0.67328632
| 24> C   0.26749725 -1.70666974 -0.81002533
| 25> C   -2.18933697 0.06423191 1.73719044
| 26> H   1.17639799 -0.54242055 2.19496985
| 27> H   0.61571272 1.73701951 1.40380387
| 28> H   2.88047294 1.18169663 1.83533737
| 29> H   4.06869756 0.542457 0.72621813
| 30> H   3.15862688 1.94061341 0.33425309
| 31> H   -0.51885804 2.71003863 -1.52323254
| 32> H   1.19781822 2.46211213 -0.99790257
| 33> H   0.42961791 1.51627128 -2.24249305
| 34> H   -0.48716084 -1.91307781 0.97891118
| 35> H   -0.72715058 0.79018776 2.99826697
| 36> H   1.12171857 -1.39812359 -2.56468938
| 37> H   -3.25970305 -0.57372273 -0.00559389
| 38> *
| 39>
| 40>                          ****END OF INPUT****

CARTESIAN COORDINATES (ANGSTROEM)
---------------------------------
  O      3.154606    0.184031   -1.823244
  O     -2.190345    0.594183   -1.817037
  O     -0.592323   -2.304586   -1.355926
  O     -2.890016   -0.467505    2.562951
  N      0.312220   -1.519135    0.500672
  N     -1.074795    0.843948    2.058349
  N      1.315429   -1.200093   -1.558349
  N     -2.385654   -0.161238    0.346477
  C      2.116556    0.044133    0.266847
  C     -0.485223    1.145668   -0.269422
  C      0.931276   -0.323458    1.095300
  C      0.013121    0.943193    1.092233
  C      3.122242    0.963394    0.839405
  C      0.213621    2.016512   -1.227803
  C      2.333303   -0.339864   -1.128242
  C     -1.785038    0.588054   -0.673286
  C      0.267497   -1.706670   -0.810025
  C     -2.189337    0.064232    1.737190
  H      1.176398   -0.542421    2.194970
  H      0.615713    1.737020    1.403804
  H      2.880473    1.181697    1.835337
  H      4.068698    0.542457    0.726218
  H      3.158627    1.940613    0.334253
  H     -0.518858    2.710039   -1.523233
  H      1.197818    2.462112   -0.997903
  H      0.429618    1.516271   -2.242493
  H     -0.487161   -1.913078    0.978911
  H     -0.727151    0.790188    2.998267
  H      1.121719   -1.398124   -2.564689
  H     -3.259703   -0.573723   -0.005594

 Total Charge           Charge          ....    0
 Multiplicity           Mult            ....    3
 Number of Electrons    NEL             ....  132
 Basis Dimension        Dim             ....  882

ORBITAL ENERGIES
----------------
                 SPIN UP ORBITALS
  NO   OCC          E(Eh)            E(eV)
   0   1.0000     -19.338263      -526.2209
   1   1.0000     -19.335487      -526.1453
   2   1.0000     -19.330964      -526.0223
   3   1.0000     -19.311387      -525.4895
   4   1.0000     -14.566039      -396.3621
   5   1.0000     -14.565711      -396.3531
   6   1.0000     -14.558743      -396.1635
   7   1.0000     -14.554753      -396.0550
   8   1.0000     -10.517256      -286.1891
   9   1.0000     -10.490584      -285.4633
  10   1.0000     -10.483842      -285.2798
  11   1.0000     -10.479897      -285.1725
  12   1.0000     -10.452318      -284.4220
  13   1.0000     -10.436171      -283.9827
  14   1.0000     -10.414060      -283.3810
  15   1.0000     -10.414025      -283.3800
  16   1.0000     -10.370913      -282.2069
  17   1.0000     -10.365920      -282.0710
  18   1.0000      -1.231998       -33.5244
  19   1.0000      -1.221223       -33.2312
  20   1.0000      -1.210433       -32.9376
  21   1.0000      -1.199616       -32.6432
  22   1.0000      -1.122929       -30.5564
  23   1.0000      -1.099586       -29.9213
  24   1.0000      -1.062079       -28.9006
  25   1.0000      -1.057809       -28.7844
  26   1.0000      -0.988544       -26.8996
  27   1.0000      -0.955978       -26.0135
  28   1.0000      -0.890669       -24.2363
  29   1.0000      -0.842595       -22.9282
  30   1.0000      -0.822184       -22.3728
  31   1.0000      -0.802171       -21.8282
  32   1.0000      -0.786253       -21.3950
  33   1.0000      -0.779630       -21.2148
  34   1.0000      -0.700722       -19.0676
  35   1.0000      -0.692100       -18.8330
  36   1.0000      -0.683228       -18.5916
  37   1.0000      -0.679670       -18.4948
  38   1.0000      -0.658738       -17.9252
  39   1.0000      -0.632159       -17.2019
  40   1.0000      -0.622841       -16.9484
  41   1.0000      -0.603834       -16.4312
  42   1.0000      -0.600588       -16.3428
  43   1.0000      -0.588564       -16.0156
  44   1.0000      -0.577190       -15.7061
  45   1.0000      -0.575318       -15.6552
  46   1.0000      -0.568686       -15.4747
  47   1.0000      -0.566245       -15.4083
  48   1.0000      -0.563558       -15.3352
  49   1.0000      -0.557221       -15.1627
  50   1.0000      -0.551930       -15.0188
  51   1.0000      -0.535160       -14.5624
  52   1.0000      -0.529319       -14.4035
  53   1.0000      -0.523956       -14.2576
  54   1.0000      -0.516997       -14.0682
  55   1.0000      -0.508564       -13.8387
  56   1.0000      -0.491553       -13.3758
  57   1.0000      -0.434172       -11.8144
  58   1.0000      -0.424914       -11.5625
  59   1.0000      -0.412578       -11.2268
  60   1.0000      -0.408018       -11.1027
  61   1.0000      -0.402349       -10.9485
  62   1.0000      -0.396395       -10.7865
  63   1.0000      -0.391301       -10.6478
  64   1.0000      -0.379806       -10.3350
  65   1.0000      -0.341120        -9.2824
  66   1.0000      -0.325696        -8.8626
  67   0.0000       0.009907         0.2696
  68   0.0000       0.030617         0.8331
  69   0.0000       0.034505         0.9389
  70   0.0000       0.036036         0.9806
  71   0.0000       0.054868         1.4930

                 SPIN DOWN ORBITALS
  NO   OCC          E(Eh)            E(eV)
   0   1.0000     -19.334908      -526.1296
   1   1.0000     -19.331660      -526.0412
   2   1.0000     -19.330793      -526.0176
   3   1.0000     -19.311205      -525.4846
   4   1.0000     -14.565621      -396.3507
   5   1.0000     -14.565216      -396.3397
   6   1.0000     -14.557778      -396.1373
   7   1.0000     -14.554772      -396.0555
   8   1.0000     -10.517291      -286.1901
   9   1.0000     -10.490644      -285.4649
  10   1.0000     -10.484708      -285.3034
  11   1.0000     -10.480816      -285.1975
  12   1.0000     -10.451886      -284.4103
  13   1.0000     -10.435774      -283.9718
  14   1.0000     -10.402728      -283.0726
  15   1.0000     -10.402485      -283.0660
  16   1.0000     -10.371354      -282.2189
  17   1.0000     -10.366481      -282.0863
  18   1.0000      -1.230765       -33.4908
  19   1.0000      -1.220072       -33.1999
  20   1.0000      -1.205926       -32.8149
  21   1.0000      -1.194706       -32.5096
  22   1.0000      -1.119954       -30.4755
  23   1.0000      -1.097655       -29.8687
  24   1.0000      -1.060195       -28.8494
  25   1.0000      -1.056253       -28.7421
  26   1.0000      -0.975815       -26.5533
  27   1.0000      -0.939073       -25.5535
  28   1.0000      -0.884752       -24.0753
  29   1.0000      -0.836776       -22.7698
  30   1.0000      -0.813185       -22.1279
  31   1.0000      -0.797188       -21.6926
  32   1.0000      -0.784349       -21.3432
  33   1.0000      -0.777544       -21.1581
  34   1.0000      -0.695937       -18.9374
  35   1.0000      -0.687271       -18.7016
  36   1.0000      -0.676710       -18.4142
  37   1.0000      -0.671909       -18.2836
  38   1.0000      -0.644942       -17.5498
  39   1.0000      -0.628134       -17.0924
  40   1.0000      -0.618988       -16.8435
  41   1.0000      -0.599139       -16.3034
  42   1.0000      -0.594412       -16.1748
  43   1.0000      -0.583620       -15.8811
  44   1.0000      -0.572035       -15.5659
  45   1.0000      -0.566653       -15.4194
  46   1.0000      -0.564971       -15.3737
  47   1.0000      -0.559422       -15.2226
  48   1.0000      -0.557405       -15.1677
  49   1.0000      -0.549087       -14.9414
  50   1.0000      -0.541427       -14.7330
  51   1.0000      -0.526998       -14.3404
  52   1.0000      -0.522553       -14.2194
  53   1.0000      -0.517488       -14.0816
  54   1.0000      -0.509158       -13.8549
  55   1.0000      -0.500598       -13.6220
  56   1.0000      -0.484250       -13.1771
  57   1.0000      -0.429745       -11.6940
  58   1.0000      -0.421438       -11.4679
  59   1.0000      -0.407759       -11.0957
  60   1.0000      -0.397382       -10.8133
  61   1.0000      -0.391912       -10.6645
  62   1.0000      -0.390819       -10.6347
  63   1.0000      -0.386617       -10.5204
  64   1.0000      -0.373148       -10.1539
  65   0.0000      -0.057051        -1.5524
  66   0.0000      -0.049678        -1.3518
  67   0.0000       0.009456         0.2573
  68   0.0000       0.030321         0.8251
  69   0.0000       0.034577         0.9409

----------------------------------------------------------------------------------------------------
          SPIN FLIP ABSORPTION SPECTRUM VIA TRANSITION ELECTRIC DIPOLE MOMENTS
----------------------------------------------------------------------------------------------------
     Transition      Energy     Energy  Wavelength fosc(D2)      D2        DX        DY        DZ
                      (eV)      (cm-1)    (nm)                 (au**2)    (au)      (au)      (au)
----------------------------------------------------------------------------------------------------
  1-3A  ->  2-3A    0.018960     152.9  65393.3   0.000001773   0.00382   0.05484  -0.00198  -0.02838
  1-3A  ->  3-3A    2.324896   18751.6   533.3   0.003213902   0.05642  -0.12092   0.07169  -0.19148

Dispersion correction             ... done (  0.1 sec)

MULLIKEN ATOMIC CHARGES AND SPIN DENSITIES
------------------------------------------
   0 O :   -0.629153    0.101083
   1 O :   -0.675064   -0.123345
   2 O :   -0.607012    0.003861
   3 O :   -0.620149   -0.001254
   4 N :   -0.203690   -0.018796
   5 N :   -0.336403   -0.012725
   6 N :   -0.025996    0.014415
   7 N :    0.069850   -0.017236
   8 C :    0.045306    0.371366
   9 C :    0.936198    0.290312
  10 C :    0.595559    0.092193
  11 C :   -0.063633   -0.464946
  12 C :   -1.796082   -0.019783
  13 C :   -1.501494    0.011623
  14 C :    0.507818    0.102644
  15 C :   -0.055665   -0.352728
  16 C :    0.387079   -0.017257
  17 C :    0.350710    0.014189
  18 H :    0.499195    0.047987
  19 H :    0.745279   -0.012677
  20 H :    0.398395    0.003667
  21 H :    0.435646    0.018748
  22 H :    0.256246    0.022529
  23 H :    0.445343   -0.015967
  24 H :    0.233523   -0.006964
  25 H :    0.265629   -0.024576
  26 H :    0.078341   -0.008021
  27 H :    0.107149    0.003617
  28 H :    0.068051   -0.006272
  29 H :    0.089023    0.004313
Sum of atomic charges       :   -0.0000000

LOEWDIN ATOMIC CHARGES AND SPIN DENSITIES
-----------------------------------------
   0 O :    0.111951    0.084973
   1 O :    0.095958   -0.103005
   2 O :    0.125548    0.001150
   3 O :    0.088951   -0.001484
   4 N :    0.285192   -0.003175
   5 N :    0.291267   -0.002129
   6 N :    0.323115    0.019319
   7 N :    0.313616   -0.018917
   8 C :   -0.039324    0.415710
   9 C :   -0.013717   -0.381388
  10 C :   -0.082248    0.020330
  11 C :   -0.130226   -0.025946
  12 C :    0.199505    0.062842
  13 C :    0.198474   -0.059325
  14 C :   -0.427724    0.062898
  15 C :   -0.421851   -0.067186
  16 C :   -0.574870   -0.003035
  17 C :   -0.457553   -0.000962
  18 H :    0.098661    0.006924
  19 H :    0.018407   -0.002951
  20 H :   -0.031301   -0.000779
  21 H :   -0.020676    0.014112
  22 H :    0.021473    0.018891
  23 H :   -0.022837   -0.017831
  24 H :    0.014006    0.001782
  25 H :    0.060932   -0.020617
  26 H :   -0.022963   -0.000258
  27 H :   -0.040311    0.000367
  28 H :    0.029333    0.001077
  29 H :    0.009209   -0.001387

  Mayer bond orders larger than 0.100000
B(  0-O , 14-C ) :   1.4437 B(  1-O , 15-C ) :   1.3010 B(  2-O , 16-C ) :   1.4562
B(  3-O , 17-C ) :   1.6297 B(  4-N ,  8-C ) :   0.3030 B(  4-N ,  9-C ) :   0.1445
B(  4-N , 10-C ) :   0.2870 B(  4-N , 16-C ) :   1.0512 B(  4-N , 26-H ) :   1.0152
B(  5-N ,  9-C ) :   0.3233 B(  5-N , 10-C ) :   0.1089 B(  5-N , 17-C ) :   1.1419
B(  5-N , 19-H ) :  -0.1284 B(  5-N , 27-H ) :   1.0246 B(  6-N ,  8-C ) :  -0.1951
B(  6-N , 10-C ) :   0.1658 B(  6-N , 14-C ) :   1.0641 B(  6-N , 16-C ) :   0.9150
B(  6-N , 28-H ) :   1.0734 B(  7-N ,  9-C ) :  -0.1096 B(  7-N , 15-C ) :   1.1439
B(  7-N , 17-C ) :   0.9760 B(  7-N , 29-H ) :   1.0344 B(  8-C ,  9-C ) :   0.1027
B(  8-C , 11-C ) :   0.3229 B(  8-C , 12-C ) :   0.1389 B(  8-C , 13-C ) :   0.1021
B(  8-C , 14-C ) :   0.7218 B(  8-C , 16-C ) :   0.1225 B(  8-C , 18-H ) :  -0.2572
B(  8-C , 20-H ) :  -0.1896 B(  9-C , 10-C ) :   0.2322 B(  9-C , 11-C ) :   0.2433
B(  9-C , 13-C ) :   0.3069 B(  9-C , 15-C ) :   0.2945 B(  9-C , 16-C ) :   0.1042
B(  9-C , 19-H ) :  -0.2349 B(  9-C , 25-H ) :  -0.1047 B( 10-C , 11-C ) :   0.4294
B( 10-C , 12-C ) :  -0.3083 B( 10-C , 18-H ) :   0.9139 B( 11-C , 12-C ) :   0.1319
B( 11-C , 13-C ) :  -0.3639 B( 11-C , 15-C ) :   0.1791 B( 11-C , 16-C ) :  -0.1014
B( 11-C , 17-C ) :  -0.2100 B( 11-C , 18-H ) :  -0.1185 B( 11-C , 19-H ) :   0.5829
B( 12-C , 14-C ) :  -0.1457 B( 12-C , 20-H ) :   1.0408 B( 12-C , 21-H ) :   0.8509
B( 12-C , 22-H ) :   0.9312 B( 13-C , 15-C ) :  -0.1085 B( 13-C , 23-H ) :   0.7983
B( 13-C , 24-H ) :   1.0473 B( 13-C , 25-H ) :   0.9982 B( 15-C , 16-C ) :   0.1552
B( 15-C , 17-C ) :  -0.1147

Dispersion correction           -0.061676846
FINAL SINGLE POINT ENERGY      -908.774940843258

DIPOLE MOMENT
-------------

Method             : TDA/CIS
Type of density    : Electron Density
Level              : Relaxed density
State              :   1
Multiplicity       :   3
Irrep              :   0
Energy             :     0.0000000000000000 Eh
Relativity type    :
Basis              : AO
                                X                 Y                 Z
Electronic contribution:     -7.617959281      -7.201110054      -1.582808315
Nuclear contribution   :      9.089164162       8.389898946       3.176964481
                        -----------------------------------------
Total Dipole Moment    :      1.471204881       1.188788892       1.594156166
                        -----------------------------------------
Magnitude (a.u.)       :      2.473660590
Magnitude (Debye)      :      6.287545540

Rotational constants in cm-1:             0.023399             0.013147             0.011921
Rotational constants in MHz :           701.498703           394.150349           357.369210

                             ****ORCA TERMINATED NORMALLY****
TOTAL RUN TIME: 0 days 0 hours 5 minutes 26 seconds 853 msec
