                         Program Version 6.0.0  -   RELEASE  -
|  1> ! Engrad def2-TZVPPD wB97M-D3BJ
|  2> %pal nprocs 8 end%pal nprocs 64 end
|  3> %tddft Nroots 2 Iroot 1
|  4> sf true
|  5> end
|  6> *xyz 0 3
|  7> O   3.33860232 0.33597095 -0.68753457
|  8> O   -0.81387215 1.68474441 -2.1963948
|  9> O   0.42233278 -3.07401179 -0.50565689
| 10> O   -3.09088264 -1.69028099 -0.33931765
| 11> N   0.31125556 -1.53403176 1.04548774
| 12> N   -2.07301602 -0.12309662 0.979493
| 13> N   1.63218393 -1.17038321 -0.7994397
| 14> N   -1.59578271 -0.2846738 -1.29741573
| 15> C   1.67371203 0.46480185 0.98653082
| 16> C   -0.87383427 1.60784018 0.01952778
| 17> C   0.4373703 -0.23232734 1.58051462
| 18> C   -0.84751865 0.62591303 1.21274939
| 19> C   2.30028304 1.68558394 1.65110279
| 20> C   -0.49257479 3.07232174 0.10961342
| 21> C   2.25892636 -0.05762455 -0.18451673
| 22> C   -1.11296048 1.01803048 -1.23847462
| 23> C   0.79227808 -2.00027784 -0.11142363
| 24> C   -2.34459972 -0.76589884 -0.20319887
| 25> H   0.48847918 -0.3171496 2.70644421
| 26> H   -1.07812208 1.16278933 2.1638277
| 27> H   2.57306691 2.48617316 0.96003416
| 28> H   1.49028973 2.06251851 2.35679877
| 29> H   3.19521304 1.31397155 2.20181484
| 30> H   -1.15015821 3.63798904 -0.60439219
| 31> H   -0.48792077 3.43209764 1.1994241
| 32> H   0.51277209 3.16525859 -0.31655852
| 33> H   -0.38890477 -2.16772379 1.3624458
| 34> H   -2.40260811 -0.58335766 1.76017501
| 35> H   2.10632891 -1.43456489 -1.67759975
| 36> H   -1.78534517 -0.68751696 -2.18796802
| 37> *
| 38>
| 39>                          ****END OF INPUT****

CARTESIAN COORDINATES (ANGSTROEM)
---------------------------------
  O      3.338602    0.335971   -0.687535
  O     -0.813872    1.684744   -2.196395
  O      0.422333   -3.074012   -0.505657
  O     -3.090883   -1.690281   -0.339318
  N      0.311256   -1.534032    1.045488
  N     -2.073016   -0.123097    0.979493
  N      1.632184   -1.170383   -0.799440
  N     -1.595783   -0.284674   -1.297416
  C      1.673712    0.464802    0.986531
  C     -0.873834    1.607840    0.019528
  C      0.437370   -0.232327    1.580515
  C     -0.847519    0.625913    1.212749
  C      2.300283    1.685584    1.651103
  C     -0.492575    3.072322    0.109613
  C      2.258926   -0.057625   -0.184517
  C     -1.112960    1.018030   -1.238475
  C      0.792278   -2.000278   -0.111424
  C     -2.344600   -0.765899   -0.203199
  H      0.488479   -0.317150    2.706444
  H     -1.078122    1.162789    2.163828
  H      2.573067    2.486173    0.960034
  H      1.490290    2.062519    2.356799
  H      3.195213    1.313972    2.201815
  H     -1.150158    3.637989   -0.604392
  H     -0.487921    3.432098    1.199424
  H      0.512772    3.165259   -0.316559
  H     -0.388905   -2.167724    1.362446
  H     -2.402608   -0.583358    1.760175
  H      2.106329   -1.434565   -1.677600
  H     -1.785345   -0.687517   -2.187968

 Total Charge           Charge          ....    0
 Multiplicity           Mult            ....    3
 Number of Electrons    NEL             ....  132
 Basis Dimension        Dim             ....  882

ORBITAL ENERGIES
----------------
                 SPIN UP ORBITALS
  NO   OCC          E(Eh)            E(eV)
   0   1.0000     -19.337587      -526.2025
   1   1.0000     -19.330442      -526.0081
   2   1.0000     -19.323852      -525.8287
   3   1.0000     -19.304736      -525.3086
   4   1.0000     -14.560792      -396.2193
   5   1.0000     -14.560574      -396.2134
   6   1.0000     -14.559592      -396.1866
   7   1.0000     -14.552737      -396.0001
   8   1.0000     -10.505154      -285.8598
   9   1.0000     -10.492424      -285.5134
  10   1.0000     -10.480865      -285.1988
  11   1.0000     -10.469902      -284.9005
  12   1.0000     -10.456516      -284.5363
  13   1.0000     -10.446514      -284.2641
  14   1.0000     -10.431008      -283.8422
  15   1.0000     -10.415822      -283.4289
  16   1.0000     -10.392367      -282.7907
  17   1.0000     -10.383718      -282.5553
  18   1.0000      -1.227151       -33.3925
  19   1.0000      -1.218512       -33.1574
  20   1.0000      -1.205130       -32.7933
  21   1.0000      -1.184593       -32.2344
  22   1.0000      -1.124122       -30.5889
  23   1.0000      -1.100883       -29.9565
  24   1.0000      -1.067137       -29.0383
  25   1.0000      -1.056554       -28.7503
  26   1.0000      -0.977029       -26.5863
  27   1.0000      -0.946748       -25.7623
  28   1.0000      -0.891116       -24.2485
  29   1.0000      -0.838761       -22.8238
  30   1.0000      -0.830574       -22.6011
  31   1.0000      -0.806812       -21.9545
  32   1.0000      -0.783358       -21.3163
  33   1.0000      -0.774451       -21.0739
  34   1.0000      -0.702473       -19.1153
  35   1.0000      -0.694323       -18.8935
  36   1.0000      -0.685871       -18.6635
  37   1.0000      -0.665484       -18.1087
  38   1.0000      -0.661204       -17.9923
  39   1.0000      -0.647255       -17.6127
  40   1.0000      -0.617514       -16.8034
  41   1.0000      -0.604904       -16.4603
  42   1.0000      -0.595118       -16.1940
  43   1.0000      -0.583225       -15.8704
  44   1.0000      -0.579641       -15.7728
  45   1.0000      -0.573969       -15.6185
  46   1.0000      -0.567353       -15.4385
  47   1.0000      -0.561692       -15.2844
  48   1.0000      -0.555981       -15.1290
  49   1.0000      -0.553081       -15.0501
  50   1.0000      -0.535853       -14.5813
  51   1.0000      -0.529556       -14.4099
  52   1.0000      -0.524216       -14.2647
  53   1.0000      -0.518239       -14.1020
  54   1.0000      -0.514413       -13.9979
  55   1.0000      -0.510940       -13.9034
  56   1.0000      -0.490001       -13.3336
  57   1.0000      -0.423210       -11.5161
  58   1.0000      -0.419353       -11.4112
  59   1.0000      -0.411390       -11.1945
  60   1.0000      -0.406928       -11.0731
  61   1.0000      -0.398123       -10.8335
  62   1.0000      -0.392629       -10.6840
  63   1.0000      -0.385589       -10.4924
  64   1.0000      -0.382775       -10.4158
  65   1.0000      -0.345436        -9.3998
  66   1.0000      -0.332498        -9.0477
  67   0.0000       0.004616         0.1256
  68   0.0000       0.027619         0.7515
  69   0.0000       0.032767         0.8916
  70   0.0000       0.037452         1.0191
  71   0.0000       0.056380         1.5342

                 SPIN DOWN ORBITALS
  NO   OCC          E(Eh)            E(eV)
   0   1.0000     -19.331665      -526.0413
   1   1.0000     -19.325307      -525.8683
   2   1.0000     -19.323527      -525.8199
   3   1.0000     -19.304661      -525.3065
   4   1.0000     -14.560047      -396.1990
   5   1.0000     -14.560024      -396.1984
   6   1.0000     -14.559374      -396.1807
   7   1.0000     -14.552591      -395.9961
   8   1.0000     -10.505171      -285.8602
   9   1.0000     -10.492478      -285.5148
  10   1.0000     -10.482037      -285.2307
  11   1.0000     -10.470863      -284.9267
  12   1.0000     -10.456571      -284.5378
  13   1.0000     -10.446096      -284.2527
  14   1.0000     -10.419949      -283.5412
  15   1.0000     -10.404273      -283.1147
  16   1.0000     -10.392873      -282.8045
  17   1.0000     -10.384232      -282.5693
  18   1.0000      -1.225321       -33.3427
  19   1.0000      -1.217389       -33.1268
  20   1.0000      -1.198797       -32.6209
  21   1.0000      -1.176906       -32.0253
  22   1.0000      -1.121703       -30.5231
  23   1.0000      -1.098661       -29.8961
  24   1.0000      -1.065260       -28.9872
  25   1.0000      -1.054650       -28.6985
  26   1.0000      -0.963184       -26.2096
  27   1.0000      -0.928860       -25.2756
  28   1.0000      -0.885576       -24.0977
  29   1.0000      -0.833910       -22.6918
  30   1.0000      -0.823111       -22.3980
  31   1.0000      -0.802136       -21.8272
  32   1.0000      -0.781969       -21.2784
  33   1.0000      -0.772589       -21.0232
  34   1.0000      -0.698104       -18.9964
  35   1.0000      -0.688892       -18.7457
  36   1.0000      -0.680628       -18.5208
  37   1.0000      -0.659998       -17.9595
  38   1.0000      -0.649832       -17.6828
  39   1.0000      -0.642816       -17.4919
  40   1.0000      -0.614003       -16.7079
  41   1.0000      -0.600148       -16.3309
  42   1.0000      -0.586201       -15.9513
  43   1.0000      -0.576823       -15.6962
  44   1.0000      -0.568985       -15.4829
  45   1.0000      -0.563304       -15.3283
  46   1.0000      -0.562040       -15.2939
  47   1.0000      -0.558253       -15.1908
  48   1.0000      -0.551906       -15.0181
  49   1.0000      -0.539614       -14.6836
  50   1.0000      -0.532306       -14.4848
  51   1.0000      -0.523024       -14.2322
  52   1.0000      -0.513465       -13.9721
  53   1.0000      -0.511454       -13.9174
  54   1.0000      -0.506455       -13.7813
  55   1.0000      -0.501676       -13.6513
  56   1.0000      -0.483055       -13.1446
  57   1.0000      -0.419201       -11.4070
  58   1.0000      -0.412075       -11.2131
  59   1.0000      -0.403735       -10.9862
  60   1.0000      -0.393226       -10.7002
  61   1.0000      -0.385396       -10.4872
  62   1.0000      -0.382319       -10.4034
  63   1.0000      -0.381406       -10.3786
  64   1.0000      -0.375859       -10.2276
  65   0.0000      -0.069824        -1.9000
  66   0.0000      -0.046401        -1.2626
  67   0.0000       0.004409         0.1200
  68   0.0000       0.027532         0.7492
  69   0.0000       0.032523         0.8850

----------------------------------------------------------------------------------------------------
          SPIN FLIP ABSORPTION SPECTRUM VIA TRANSITION ELECTRIC DIPOLE MOMENTS
----------------------------------------------------------------------------------------------------
     Transition      Energy     Energy  Wavelength fosc(D2)      D2        DX        DY        DZ
                      (eV)      (cm-1)    (nm)                 (au**2)    (au)      (au)      (au)
----------------------------------------------------------------------------------------------------
  1-3A  ->  2-3A    0.047086     379.8  26331.7   0.000001561   0.00135  -0.02694  -0.01306   0.02137

Dispersion correction             ... done (  0.1 sec)

MULLIKEN ATOMIC CHARGES AND SPIN DENSITIES
------------------------------------------
   0 O :   -0.705487   -0.125852
   1 O :   -0.654731    0.108425
   2 O :   -0.666092   -0.002375
   3 O :   -0.609834    0.001649
   4 N :   -0.291178    0.004554
   5 N :   -0.342713    0.011863
   6 N :    0.028047   -0.008059
   7 N :    0.093159    0.011625
   8 C :    0.832160    0.465898
   9 C :    0.129966    0.421851
  10 C :   -0.132450   -0.365095
  11 C :    0.758630   -0.007465
  12 C :   -1.357663    0.025971
  13 C :   -1.315065   -0.005507
  14 C :    0.184276   -0.544497
  15 C :    0.127764   -0.080510
  16 C :    0.464280    0.036313
  17 C :    0.308302    0.004326
  18 H :    0.588330   -0.009912
  19 H :    0.519650    0.018859
  20 H :    0.249080    0.001826
  21 H :    0.320754    0.000554
  22 H :    0.368917   -0.008719
  23 H :    0.389439    0.014178
  24 H :    0.280864    0.000164
  25 H :    0.265689    0.020731
  26 H :    0.038880    0.003047
  27 H :    0.010405    0.000659
  28 H :    0.085588    0.005028
  29 H :    0.031034    0.000469
Sum of atomic charges       :   -0.0000000

LOEWDIN ATOMIC CHARGES AND SPIN DENSITIES
-----------------------------------------
   0 O :    0.052094   -0.110270
   1 O :    0.110824    0.094669
   2 O :    0.094685   -0.001985
   3 O :    0.117097    0.002029
   4 N :    0.262959    0.002092
   5 N :    0.287790    0.009161
   6 N :    0.323084   -0.013064
   7 N :    0.350261    0.004572
   8 C :   -0.000134   -0.263595
   9 C :   -0.019237    0.290007
  10 C :   -0.102731   -0.018283
  11 C :   -0.092503    0.010047
  12 C :    0.187573   -0.034142
  13 C :    0.176281    0.036697
  14 C :   -0.386478   -0.056372
  15 C :   -0.446322    0.047152
  16 C :   -0.540610   -0.000019
  17 C :   -0.476394    0.000304
  18 H :    0.080227   -0.003697
  19 H :    0.054532    0.001302
  20 H :   -0.001924   -0.004479
  21 H :    0.018921   -0.000431
  22 H :    0.025117   -0.013403
  23 H :    0.020990    0.006291
  24 H :    0.031433    0.000461
  25 H :   -0.008305    0.014340
  26 H :   -0.032578    0.000235
  27 H :   -0.082933    0.000888
  28 H :    0.017513   -0.001010
  29 H :   -0.021232    0.000499

  Mayer bond orders larger than 0.100000
B(  0-O , 14-C ) :   1.2055 B(  1-O , 15-C ) :   1.4482 B(  2-O , 16-C ) :   1.5120
B(  3-O , 17-C ) :   1.5765 B(  4-N ,  5-N ) :   0.1083 B(  4-N ,  8-C ) :   0.1876
B(  4-N , 10-C ) :   0.3229 B(  4-N , 16-C ) :   1.0834 B(  4-N , 26-H ) :   1.1229
B(  5-N ,  9-C ) :   0.4726 B(  5-N , 11-C ) :  -0.3195 B(  5-N , 17-C ) :   1.0970
B(  5-N , 27-H ) :   1.1299 B(  6-N ,  8-C ) :  -0.1024 B(  6-N , 10-C ) :   0.1326
B(  6-N , 14-C ) :   1.0903 B(  6-N , 16-C ) :   0.9632 B(  6-N , 28-H ) :   1.0629
B(  7-N , 11-C ) :   0.1015 B(  7-N , 15-C ) :   1.0246 B(  7-N , 17-C ) :   0.9889
B(  7-N , 29-H ) :   1.0676 B(  8-C ,  9-C ) :   0.1712 B(  8-C , 10-C ) :   0.4007
B(  8-C , 12-C ) :   0.3613 B(  8-C , 14-C ) :   0.5640 B(  8-C , 16-C ) :   0.1183
B(  8-C , 18-H ) :  -0.1600 B(  8-C , 21-H ) :  -0.1581 B(  9-C , 11-C ) :  -0.2523
B(  9-C , 13-C ) :   0.4106 B(  9-C , 15-C ) :   1.1258 B(  9-C , 19-H ) :  -0.1539
B( 10-C , 11-C ) :   0.4658 B( 10-C , 12-C ) :  -0.1531 B( 10-C , 14-C ) :   0.2635
B( 10-C , 16-C ) :  -0.1912 B( 10-C , 18-H ) :   0.7018 B( 11-C , 15-C ) :  -0.2989
B( 11-C , 17-C ) :  -0.2013 B( 11-C , 19-H ) :   0.9401 B( 11-C , 27-H ) :  -0.1003
B( 12-C , 20-H ) :   1.0308 B( 12-C , 21-H ) :   1.0664 B( 12-C , 22-H ) :   0.8179
B( 13-C , 23-H ) :   0.8818 B( 13-C , 24-H ) :   1.0034 B( 13-C , 25-H ) :   0.9556
B( 14-C , 16-C ) :  -0.1404

Dispersion correction           -0.058874627
FINAL SINGLE POINT ENERGY      -908.765348168470

DIPOLE MOMENT
-------------

Method             : TDA/CIS
Type of density    : Electron Density
Level              : Relaxed density
State              :   1
Multiplicity       :   3
Irrep              :   0
Energy             :     0.0000000000000000 Eh
Relativity type    :
Basis              : AO
                                X                 Y                 Z
Electronic contribution:     -3.085869379     -10.213466310      -6.878068971
Nuclear contribution   :      2.954989246      11.726876706       9.468901776
                        -----------------------------------------
Total Dipole Moment    :     -0.130880133       1.513410396       2.590832804
                        -----------------------------------------
Magnitude (a.u.)       :      3.003324034
Magnitude (Debye)      :      7.633843024

Rotational constants in cm-1:             0.019003             0.015362             0.011997
Rotational constants in MHz :           569.682775           460.534402           359.656246

                             ****ORCA TERMINATED NORMALLY****
TOTAL RUN TIME: 0 days 0 hours 4 minutes 38 seconds 739 msec
