                         Program Version 6.0.0  -   RELEASE  -
|  1> ! Engrad def2-TZVPPD wB97M-D3BJ
|  2> %pal nprocs 8 end%pal nprocs 32 end
|  3>  %tddft nroots 2 Iroot 2
|  4> sf true
|  5> end
|  6> *xyz 0 3
|  7> O   2.70743496796424 1.143680646347 -0.57070153543621
|  8> O   -0.46952555603099 0.8184239479383 -2.16471650941682
|  9> O   0.85356704433567 -2.90204294700194 -1.49599055935736
| 10> O   -2.69749051451383 -1.6321340401684 0.94113525103285
| 11> N   0.57575150285514 -2.02101205632609 0.58589548916472
| 12> N   -2.09883997537848 0.50554138497479 1.45096836675657
| 13> N   1.82180729435104 -0.89785772558838 -0.98909217696192
| 14> N   -1.66055041058386 -0.35047902261161 -0.63712266319146
| 15> C   1.2932849066841 0.20229800209137 1.08675363305672
| 16> C   -0.73545231654757 1.78818237818748 -0.01288088392824
| 17> C   0.67818552357785 -0.93966290191989 1.42887047583235
| 18> C   -1.4188579315999 1.6583382383599 1.12857449503235
| 19> C   1.55651490731872 1.30171856190975 2.06695823418566
| 20> C   -0.00842580732156 3.03479939802064 -0.40706010709521
| 21> C   2.0018894866173 0.23157726784865 -0.19552810493102
| 22> C   -0.91212493021053 0.75839849438221 -1.03970200794188
| 23> C   1.06508273177656 -2.01327512456532 -0.70299527081644
| 24> C   -2.19521410675508 -0.57931828533301 0.608020258113
| 25> H   0.2204192327719 -1.07598479239935 2.39673909116321
| 26> H   -1.42178024983427 2.42379292384505 1.8890170473425
| 27> H   1.40362698929468 2.27835578784943 1.62023046119979
| 28> H   0.90935194675655 1.20173687912671 2.93614455588112
| 29> H   2.59160430303934 1.26646414401648 2.40377185468111
| 30> H   -0.45643828321867 3.46198002199189 -1.30212486279181
| 31> H   -0.04851410961136 3.77175220070104 0.39216319178969
| 32> H   1.03157541043976 2.81974160267878 -0.64035750555149
| 33> H   -0.04672864497442 -2.77900051300889 0.80762873296383
| 34> H   -2.53980574455168 0.39474648804991 2.34594120164954
| 35> H   2.19044558729335 -0.84841350474639 -1.92593002399576
| 36> H   -1.73819325394397 -1.10734745465013 -1.3000101284294
| 37> *
| 38>
| 39>                          ****END OF INPUT****

CARTESIAN COORDINATES (ANGSTROEM)
---------------------------------
  O      2.707435    1.143681   -0.570702
  O     -0.469526    0.818424   -2.164717
  O      0.853567   -2.902043   -1.495991
  O     -2.697491   -1.632134    0.941135
  N      0.575752   -2.021012    0.585895
  N     -2.098840    0.505541    1.450968
  N      1.821807   -0.897858   -0.989092
  N     -1.660550   -0.350479   -0.637123
  C      1.293285    0.202298    1.086754
  C     -0.735452    1.788182   -0.012881
  C      0.678186   -0.939663    1.428870
  C     -1.418858    1.658338    1.128574
  C      1.556515    1.301719    2.066958
  C     -0.008426    3.034799   -0.407060
  C      2.001889    0.231577   -0.195528
  C     -0.912125    0.758398   -1.039702
  C      1.065083   -2.013275   -0.702995
  C     -2.195214   -0.579318    0.608020
  H      0.220419   -1.075985    2.396739
  H     -1.421780    2.423793    1.889017
  H      1.403627    2.278356    1.620230
  H      0.909352    1.201737    2.936145
  H      2.591604    1.266464    2.403772
  H     -0.456438    3.461980   -1.302125
  H     -0.048514    3.771752    0.392163
  H      1.031575    2.819742   -0.640358
  H     -0.046729   -2.779001    0.807629
  H     -2.539806    0.394746    2.345941
  H      2.190446   -0.848414   -1.925930
  H     -1.738193   -1.107347   -1.300010

 Total Charge           Charge          ....    0
 Multiplicity           Mult            ....    3
 Number of Electrons    NEL             ....  132
 Basis Dimension        Dim             ....  882

ORBITAL ENERGIES
----------------
                 SPIN UP ORBITALS
  NO   OCC          E(Eh)            E(eV)
   0   1.0000     -19.330882      -526.0201
   1   1.0000     -19.330444      -526.0081
   2   1.0000     -19.324954      -525.8587
   3   1.0000     -19.317102      -525.6451
   4   1.0000     -14.591288      -397.0491
   5   1.0000     -14.585298      -396.8861
   6   1.0000     -14.572757      -396.5449
   7   1.0000     -14.548052      -395.8726
   8   1.0000     -10.516872      -286.1786
   9   1.0000     -10.507647      -285.9276
  10   1.0000     -10.481185      -285.2075
  11   1.0000     -10.456262      -284.5293
  12   1.0000     -10.434867      -283.9472
  13   1.0000     -10.407149      -283.1929
  14   1.0000     -10.396840      -282.9124
  15   1.0000     -10.385125      -282.5936
  16   1.0000     -10.369566      -282.1702
  17   1.0000     -10.352210      -281.6980
  18   1.0000      -1.230233       -33.4763
  19   1.0000      -1.223687       -33.2982
  20   1.0000      -1.196255       -32.5518
  21   1.0000      -1.187985       -32.3267
  22   1.0000      -1.126709       -30.6593
  23   1.0000      -1.123483       -30.5715
  24   1.0000      -1.073246       -29.2045
  25   1.0000      -1.058865       -28.8132
  26   1.0000      -0.977204       -26.5911
  27   1.0000      -0.958984       -26.0953
  28   1.0000      -0.856980       -23.3196
  29   1.0000      -0.849897       -23.1269
  30   1.0000      -0.814582       -22.1659
  31   1.0000      -0.808677       -22.0052
  32   1.0000      -0.796767       -21.6811
  33   1.0000      -0.787999       -21.4425
  34   1.0000      -0.700636       -19.0653
  35   1.0000      -0.698908       -19.0183
  36   1.0000      -0.695238       -18.9184
  37   1.0000      -0.689875       -18.7725
  38   1.0000      -0.648400       -17.6439
  39   1.0000      -0.644908       -17.5488
  40   1.0000      -0.629016       -17.1164
  41   1.0000      -0.601548       -16.3690
  42   1.0000      -0.599916       -16.3245
  43   1.0000      -0.592030       -16.1100
  44   1.0000      -0.579892       -15.7797
  45   1.0000      -0.570066       -15.5123
  46   1.0000      -0.567676       -15.4473
  47   1.0000      -0.554109       -15.0781
  48   1.0000      -0.552587       -15.0367
  49   1.0000      -0.544450       -14.8152
  50   1.0000      -0.530802       -14.4439
  51   1.0000      -0.525135       -14.2897
  52   1.0000      -0.518092       -14.0980
  53   1.0000      -0.514335       -13.9958
  54   1.0000      -0.509420       -13.8620
  55   1.0000      -0.500392       -13.6164
  56   1.0000      -0.490063       -13.3353
  57   1.0000      -0.483018       -13.1436
  58   1.0000      -0.422572       -11.4988
  59   1.0000      -0.417669       -11.3654
  60   1.0000      -0.407979       -11.1017
  61   1.0000      -0.399287       -10.8652
  62   1.0000      -0.391824       -10.6621
  63   1.0000      -0.386721       -10.5232
  64   1.0000      -0.383906       -10.4466
  65   1.0000      -0.348468        -9.4823
  66   1.0000      -0.206565        -5.6209
  67   0.0000       0.009804         0.2668
  68   0.0000       0.017920         0.4876
  69   0.0000       0.032008         0.8710
  70   0.0000       0.037720         1.0264
  71   0.0000       0.040999         1.1156

                 SPIN DOWN ORBITALS
  NO   OCC          E(Eh)            E(eV)
   0   1.0000     -19.330820      -526.0184
   1   1.0000     -19.328504      -525.9553
   2   1.0000     -19.325163      -525.8644
   3   1.0000     -19.311131      -525.4826
   4   1.0000     -14.586140      -396.9090
   5   1.0000     -14.584647      -396.8684
   6   1.0000     -14.572770      -396.5452
   7   1.0000     -14.547190      -395.8492
   8   1.0000     -10.516883      -286.1789
   9   1.0000     -10.508048      -285.9385
  10   1.0000     -10.481106      -285.2054
  11   1.0000     -10.455865      -284.5186
  12   1.0000     -10.433543      -283.9111
  13   1.0000     -10.397789      -282.9382
  14   1.0000     -10.386616      -282.6342
  15   1.0000     -10.385397      -282.6010
  16   1.0000     -10.370027      -282.1828
  17   1.0000     -10.352157      -281.6965
  18   1.0000      -1.229715       -33.4622
  19   1.0000      -1.219578       -33.1864
  20   1.0000      -1.196351       -32.5544
  21   1.0000      -1.179181       -32.0871
  22   1.0000      -1.125411       -30.6240
  23   1.0000      -1.112978       -30.2857
  24   1.0000      -1.072886       -29.1947
  25   1.0000      -1.053470       -28.6664
  26   1.0000      -0.964158       -26.2361
  27   1.0000      -0.948057       -25.7979
  28   1.0000      -0.848917       -23.1002
  29   1.0000      -0.846475       -23.0338
  30   1.0000      -0.813086       -22.1252
  31   1.0000      -0.799676       -21.7603
  32   1.0000      -0.795069       -21.6349
  33   1.0000      -0.781318       -21.2607
  34   1.0000      -0.697986       -18.9932
  35   1.0000      -0.695196       -18.9172
  36   1.0000      -0.688850       -18.7446
  37   1.0000      -0.681940       -18.5565
  38   1.0000      -0.645548       -17.5662
  39   1.0000      -0.635456       -17.2916
  40   1.0000      -0.622509       -16.9393
  41   1.0000      -0.599772       -16.3206
  42   1.0000      -0.591043       -16.0831
  43   1.0000      -0.583981       -15.8909
  44   1.0000      -0.570378       -15.5208
  45   1.0000      -0.566588       -15.4176
  46   1.0000      -0.561549       -15.2805
  47   1.0000      -0.553057       -15.0494
  48   1.0000      -0.544720       -14.8226
  49   1.0000      -0.538513       -14.6537
  50   1.0000      -0.522705       -14.2235
  51   1.0000      -0.519291       -14.1306
  52   1.0000      -0.512064       -13.9340
  53   1.0000      -0.509145       -13.8545
  54   1.0000      -0.500254       -13.6126
  55   1.0000      -0.495268       -13.4769
  56   1.0000      -0.478354       -13.0167
  57   1.0000      -0.446314       -12.1448
  58   1.0000      -0.422189       -11.4883
  59   1.0000      -0.413073       -11.2403
  60   1.0000      -0.405181       -11.0255
  61   1.0000      -0.389727       -10.6050
  62   1.0000      -0.377721       -10.2783
  63   1.0000      -0.377149       -10.2627
  64   1.0000      -0.348107        -9.4725
  65   0.0000      -0.105351        -2.8667
  66   0.0000       0.009392         0.2556
  67   0.0000       0.020317         0.5529
  68   0.0000       0.029081         0.7913
  69   0.0000       0.034744         0.9454

----------------------------------------------------------------------------------------------------
          SPIN FLIP ABSORPTION SPECTRUM VIA TRANSITION ELECTRIC DIPOLE MOMENTS
----------------------------------------------------------------------------------------------------
     Transition      Energy     Energy  Wavelength fosc(D2)      D2        DX        DY        DZ
                      (eV)      (cm-1)    (nm)                 (au**2)    (au)      (au)      (au)
----------------------------------------------------------------------------------------------------
  1-3A  ->  2-3A    4.133397   33338.1   300.0   0.001326050   0.01309  -0.04876  -0.07884   0.06709

Dispersion correction             ... done (  0.1 sec)

MULLIKEN ATOMIC CHARGES AND SPIN DENSITIES
------------------------------------------
   0 O :   -0.700738    0.007050
   1 O :   -0.661434   -0.000899
   2 O :   -0.627462    0.005533
   3 O :   -0.665404    0.000778
   4 N :    0.054114    0.040164
   5 N :    0.002800   -0.007319
   6 N :    0.012036   -0.009011
   7 N :    0.010514   -0.001043
   8 C :    1.397825    0.031662
   9 C :    0.468010    0.023157
  10 C :   -0.408878    0.022141
  11 C :    0.236474   -0.014286
  12 C :   -1.471662   -0.009861
  13 C :   -1.552179    0.009667
  14 C :    0.021503   -0.078765
  15 C :    0.556909   -0.019699
  16 C :    0.485463    0.002990
  17 C :    0.430347   -0.000688
  18 H :    0.161297   -0.006116
  19 H :    0.185692   -0.003658
  20 H :    0.249597    0.002319
  21 H :    0.335377   -0.002862
  22 H :    0.406024    0.011609
  23 H :    0.370736   -0.000385
  24 H :    0.338053    0.000077
  25 H :    0.247327   -0.001058
  26 H :    0.068384   -0.002006
  27 H :    0.025694    0.000735
  28 H :    0.013504    0.000220
  29 H :    0.010078   -0.000444
Sum of atomic charges       :   -0.0000000

LOEWDIN ATOMIC CHARGES AND SPIN DENSITIES
-----------------------------------------
   0 O :    0.072695    0.005546
   1 O :    0.108154   -0.000935
   2 O :    0.110572    0.004246
   3 O :    0.077463    0.000273
   4 N :    0.315280    0.024232
   5 N :    0.277587   -0.004241
   6 N :    0.321271   -0.007077
   7 N :    0.344634   -0.000841
   8 C :   -0.116557    0.006578
   9 C :   -0.150163    0.001486
  10 C :   -0.000908   -0.013177
  11 C :    0.047685   -0.002230
  12 C :    0.203243    0.000944
  13 C :    0.186399    0.000523
  14 C :   -0.436857   -0.007955
  15 C :   -0.394322   -0.000755
  16 C :   -0.469435   -0.002314
  17 C :   -0.494042   -0.000323
  18 H :    0.010489   -0.005863
  19 H :    0.040664   -0.000646
  20 H :   -0.014648    0.000652
  21 H :   -0.002777   -0.000499
  22 H :    0.017555    0.000981
  23 H :    0.007100    0.000195
  24 H :   -0.003607   -0.000061
  25 H :   -0.017780    0.000141
  26 H :   -0.008875    0.002358
  27 H :   -0.019288   -0.000306
  28 H :   -0.008102   -0.000848
  29 H :   -0.003429   -0.000082

  Mayer bond orders larger than 0.100000
B(  0-O , 14-C ) :   1.2289 B(  1-O , 15-C ) :   1.3905 B(  2-O , 16-C ) :   1.5688
B(  3-O , 17-C ) :   1.5476 B(  4-N , 10-C ) :   0.8154 B(  4-N , 16-C ) :   0.9510
B(  4-N , 26-H ) :   1.0910 B(  5-N , 11-C ) :   0.9612 B(  5-N , 17-C ) :   1.0388
B(  5-N , 27-H ) :   1.1321 B(  6-N ,  8-C ) :  -0.1239 B(  6-N , 14-C ) :   0.9608
B(  6-N , 16-C ) :   0.9385 B(  6-N , 28-H ) :   1.1147 B(  7-N , 15-C ) :   0.9811
B(  7-N , 17-C ) :   0.9324 B(  7-N , 29-H ) :   1.1245 B(  8-C , 10-C ) :   0.3348
B(  8-C , 12-C ) :   0.3056 B(  8-C , 14-C ) :   0.6984 B(  8-C , 18-H ) :  -0.1625
B(  8-C , 20-H ) :  -0.1043 B(  8-C , 21-H ) :  -0.1115 B(  9-C , 11-C ) :   0.9811
B(  9-C , 13-C ) :   0.4555 B(  9-C , 15-C ) :   0.6876 B(  9-C , 24-H ) :  -0.1207
B(  9-C , 25-H ) :  -0.1048 B( 10-C , 12-C ) :  -0.1711 B( 10-C , 18-H ) :   1.2354
B( 11-C , 13-C ) :  -0.2951 B( 11-C , 19-H ) :   1.1125 B( 12-C , 20-H ) :   1.0169
B( 12-C , 21-H ) :   1.0384 B( 12-C , 22-H ) :   0.8119 B( 13-C , 23-H ) :   0.8272
B( 13-C , 24-H ) :   1.0852 B( 13-C , 25-H ) :   0.9773 B( 14-C , 15-C ) :   0.1478

Dispersion correction           -0.061960162
FINAL SINGLE POINT ENERGY      -908.765823825643

DIPOLE MOMENT
-------------

Method             : TDA/CIS
Type of density    : Electron Density
Level              : Relaxed density
State              :   2
Multiplicity       :   3
Irrep              :   0
Energy             :     0.0000000000000000 Eh
Relativity type    :
Basis              : AO
                                X                 Y                 Z
Electronic contribution:     -2.610882763     -10.157247822      -6.109285673
Nuclear contribution   :      1.728149378      11.140748313       8.514922595
                        -----------------------------------------
Total Dipole Moment    :     -0.882733385       0.983500491       2.405636921
                        -----------------------------------------
Magnitude (a.u.)       :      2.744736862
Magnitude (Debye)      :      6.976566666

Rotational constants in cm-1:             0.017945             0.016918             0.013048
Rotational constants in MHz :           537.965123           507.191013           391.173726

                             ****ORCA TERMINATED NORMALLY****
TOTAL RUN TIME: 0 days 0 hours 35 minutes 27 seconds 146 msec
