                         Program Version 6.0.0  -   RELEASE  -
|  1> ! Engrad def2-TZVPPD wB97M-D3BJ
|  2> %pal nprocs 8 end%pal nprocs 64 end
|  3> %tddft
|  4>  Iroot 2 Nroots 3
|  5> sf true
|  6> end
|  7> *xyz 0 3
|  8> O   0.58131707 0.81291844 0.95713493
|  9> C   -0.0859722 -0.03727021 0.08489752
| 10> C   0.80140503 -0.67235151 -0.90042437
| 11> H   -0.84551458 0.51892106 -0.39235301
| 12> H   -0.6415028 -0.65738963 0.62430236
| 13> H   0.39998813 -0.4403893 -1.89280896
| 14> H   1.83323852 -0.94548206 -0.59273009
| 15> *
| 16>
| 17>                          ****END OF INPUT****

CARTESIAN COORDINATES (ANGSTROEM)
---------------------------------
  O      0.581317    0.812918    0.957135
  C     -0.085972   -0.037270    0.084898
  C      0.801405   -0.672352   -0.900424
  H     -0.845515    0.518921   -0.392353
  H     -0.641503   -0.657390    0.624302
  H      0.399988   -0.440389   -1.892809
  H      1.833239   -0.945482   -0.592730

 Total Charge           Charge          ....    0
 Multiplicity           Mult            ....    3
 Number of Electrons    NEL             ....   24
 Basis Dimension        Dim             ....  182

ORBITAL ENERGIES
----------------
                 SPIN UP ORBITALS
  NO   OCC          E(Eh)            E(eV)
   0   1.0000     -19.388027      -527.5750
   1   1.0000     -10.392808      -282.8027
   2   1.0000     -10.369681      -282.1734
   3   1.0000      -1.162584       -31.6355
   4   1.0000      -0.886981       -24.1360
   5   1.0000      -0.747877       -20.3508
   6   1.0000      -0.622731       -16.9454
   7   1.0000      -0.586885       -15.9699
   8   1.0000      -0.543752       -14.7962
   9   1.0000      -0.521242       -14.1837
  10   1.0000      -0.443837       -12.0774
  11   1.0000      -0.417016       -11.3476
  12   1.0000      -0.326766        -8.8917
  13   0.0000       0.040499         1.1020
  14   0.0000       0.061603         1.6763
  15   0.0000       0.078254         2.1294
  16   0.0000       0.087831         2.3900
  17   0.0000       0.112587         3.0637

                 SPIN DOWN ORBITALS
  NO   OCC          E(Eh)            E(eV)
   0   1.0000     -19.363669      -526.9122
   1   1.0000     -10.393772      -282.8289
   2   1.0000     -10.356484      -281.8142
   3   1.0000      -1.107642       -30.1405
   4   1.0000      -0.854991       -23.2655
   5   1.0000      -0.720455       -19.6046
   6   1.0000      -0.592672       -16.1274
   7   1.0000      -0.548920       -14.9369
   8   1.0000      -0.526095       -14.3158
   9   1.0000      -0.490152       -13.3377
  10   1.0000      -0.384599       -10.4655
  11   0.0000      -0.050646        -1.3781
  12   0.0000      -0.002400        -0.0653
  13   0.0000       0.039730         1.0811
  14   0.0000       0.062134         1.6908
  15   0.0000       0.078727         2.1423

----------------------------------------------------------------------------------------------------
          SPIN FLIP ABSORPTION SPECTRUM VIA TRANSITION ELECTRIC DIPOLE MOMENTS
----------------------------------------------------------------------------------------------------
     Transition      Energy     Energy  Wavelength fosc(D2)      D2        DX        DY        DZ
                      (eV)      (cm-1)    (nm)                 (au**2)    (au)      (au)      (au)
----------------------------------------------------------------------------------------------------
  1-3A  ->  2-3A    0.156552    1262.7  7919.7   0.000130285   0.03397  -0.05329   0.12515   0.12436
  1-3A  ->  3-3A    0.999462    8061.2  1240.5   0.010500440   0.42883  -0.09542  -0.39782  -0.51133

Dispersion correction             ... done (  0.1 sec)

MULLIKEN ATOMIC CHARGES AND SPIN DENSITIES
------------------------------------------
   0 O :   -0.331099    0.771915
   1 C :   -0.070418    0.114938
   2 C :   -0.354240   -0.686078
   3 H :    0.213016   -0.010926
   4 H :    0.216725   -0.048204
   5 H :    0.125824   -0.071950
   6 H :    0.200192   -0.069694
Sum of atomic charges       :   -0.0000000

LOEWDIN ATOMIC CHARGES AND SPIN DENSITIES
-----------------------------------------
   0 O :    0.077369    0.725938
   1 C :   -0.231168   -0.031471
   2 C :    0.303846   -0.557913
   3 H :   -0.001033   -0.003221
   4 H :   -0.049759    0.006175
   5 H :   -0.061608   -0.072608
   6 H :   -0.037647   -0.066901

  Mayer bond orders larger than 0.100000
B(  0-O ,  1-C ) :   0.8395 B(  0-O ,  2-C ) :   0.1040 B(  1-C ,  2-C ) :   0.7439
B(  1-C ,  3-H ) :   0.9879 B(  1-C ,  4-H ) :   0.9125 B(  2-C ,  5-H ) :   1.0850
B(  2-C ,  6-H ) :   1.0122

Dispersion correction           -0.005607095
FINAL SINGLE POINT ENERGY      -153.734731639126

DIPOLE MOMENT
-------------

Method             : TDA/CIS
Type of density    : Electron Density
Level              : Relaxed density
State              :   2
Multiplicity       :   3
Irrep              :   0
Energy             :     0.0000000000000000 Eh
Relativity type    :
Basis              : AO
                                X                 Y                 Z
Electronic contribution:      0.483258275       1.338367565       1.998166158
Nuclear contribution   :     -0.885944879      -1.670031637      -2.377738177
                        -----------------------------------------
Total Dipole Moment    :     -0.402686604      -0.331664072      -0.379572019
                        -----------------------------------------
Magnitude (a.u.)       :      0.645160813
Magnitude (Debye)      :      1.639868465

Rotational constants in cm-1:             1.430744             0.360361             0.311003
Rotational constants in MHz :         42892.619993         10803.345138          9323.622604

                             ****ORCA TERMINATED NORMALLY****
TOTAL RUN TIME: 0 days 0 hours 0 minutes 26 seconds 654 msec
