                         Program Version 6.0.0  -   RELEASE  -
|  1> ! EnGrad wB97M-D3BJ def2-TZVPPD
|  2> %pal nprocs 8 end%pal nprocs 16 end
|  3> %tddft
|  4>  sf true
|  5>  nroots 2 Iroot 1 end
|  6> *xyz 0 3
|  7> O   0.50515738679936 1.34370017167461 0.08936453808775
|  8> C   0.5602258710038 0.19678271934966 -0.26994480674572
|  9> C   -0.4260564683317 -0.83041293957751 0.20664299826665
| 10> H   0.10104217804279 -1.64445998898849 0.70630129595297
| 11> H   1.34512796751723 -0.14405320191745 -0.96933863113212
| 12> H   -0.94482527658987 -1.26802341636372 -0.64747795951684
| 13> H   -1.13847165844162 -0.3719333441771 0.88445256508731
| 14> *
| 15>
| 16>                          ****END OF INPUT****

CARTESIAN COORDINATES (ANGSTROEM)
---------------------------------
  O      0.505157    1.343700    0.089365
  C      0.560226    0.196783   -0.269945
  C     -0.426056   -0.830413    0.206643
  H      0.101042   -1.644460    0.706301
  H      1.345128   -0.144053   -0.969339
  H     -0.944825   -1.268023   -0.647478
  H     -1.138472   -0.371933    0.884453

 Total Charge           Charge          ....    0
 Multiplicity           Mult            ....    3
 Number of Electrons    NEL             ....   24
 Basis Dimension        Dim             ....  182

ORBITAL ENERGIES
----------------
                 SPIN UP ORBITALS
  NO   OCC          E(Eh)            E(eV)
   0   1.0000     -19.410294      -528.1810
   1   1.0000     -10.379518      -282.4410
   2   1.0000     -10.366514      -282.0872
   3   1.0000      -1.246670       -33.9236
   4   1.0000      -0.880658       -23.9639
   5   1.0000      -0.718917       -19.5627
   6   1.0000      -0.636382       -17.3168
   7   1.0000      -0.585885       -15.9427
   8   1.0000      -0.582226       -15.8432
   9   1.0000      -0.514555       -14.0018
  10   1.0000      -0.512736       -13.9523
  11   1.0000      -0.435123       -11.8403
  12   1.0000      -0.221565        -6.0291
  13   0.0000       0.041558         1.1308
  14   0.0000       0.060358         1.6424
  15   0.0000       0.078827         2.1450
  16   0.0000       0.088102         2.3974
  17   0.0000       0.108120         2.9421

                 SPIN DOWN ORBITALS
  NO   OCC          E(Eh)            E(eV)
   0   1.0000     -19.382507      -527.4248
   1   1.0000     -10.369219      -282.1608
   2   1.0000     -10.364282      -282.0265
   3   1.0000      -1.188566       -32.3425
   4   1.0000      -0.861301       -23.4372
   5   1.0000      -0.674672       -18.3588
   6   1.0000      -0.585985       -15.9455
   7   1.0000      -0.540596       -14.7104
   8   1.0000      -0.534775       -14.5520
   9   1.0000      -0.500134       -13.6093
  10   1.0000      -0.470921       -12.8144
  11   0.0000      -0.082574        -2.2470
  12   0.0000       0.041747         1.1360
  13   0.0000       0.060019         1.6332
  14   0.0000       0.078851         2.1457
  15   0.0000       0.083596         2.2748

----------------------------------------------------------------------------------------------------
          SPIN FLIP ABSORPTION SPECTRUM VIA TRANSITION ELECTRIC DIPOLE MOMENTS
----------------------------------------------------------------------------------------------------
     Transition      Energy     Energy  Wavelength fosc(D2)      D2        DX        DY        DZ
                      (eV)      (cm-1)    (nm)                 (au**2)    (au)      (au)      (au)
----------------------------------------------------------------------------------------------------
  1-3A  ->  2-3A    4.538500   36605.5   273.2   0.000047574   0.00043  -0.01235   0.00438  -0.01600

Dispersion correction             ... done (  0.0 sec)

MULLIKEN ATOMIC CHARGES AND SPIN DENSITIES
------------------------------------------
   0 O :   -0.511456    0.056622
   1 C :    0.206788   -0.174536
   2 C :   -0.683945    0.047885
   3 H :    0.226656   -0.005243
   4 H :    0.295066    0.076221
   5 H :    0.225420   -0.005225
   6 H :    0.241472    0.004275
Sum of atomic charges       :    0.0000000

LOEWDIN ATOMIC CHARGES AND SPIN DENSITIES
-----------------------------------------
   0 O :    0.037034    0.022030
   1 C :   -0.215067   -0.014778
   2 C :    0.175217   -0.001691
   3 H :   -0.010263   -0.001291
   4 H :    0.030334   -0.003741
   5 H :   -0.010262   -0.001281
   6 H :   -0.006994    0.000752

  Mayer bond orders larger than 0.100000
B(  0-O ,  1-C ) :   1.7867 B(  1-C ,  2-C ) :   0.7452 B(  1-C ,  4-H ) :   0.9311
B(  2-C ,  3-H ) :   0.9932 B(  2-C ,  5-H ) :   0.9932 B(  2-C ,  6-H ) :   0.9589

Dispersion correction           -0.005542318
FINAL SINGLE POINT ENERGY      -153.924141255801

DIPOLE MOMENT
-------------

Method             : TDA/CIS
Type of density    : Electron Density
Level              : Relaxed density
State              :   1
Multiplicity       :   3
Irrep              :   0
Energy             :     0.0000000000000000 Eh
Relativity type    :
Basis              : AO
                                X                 Y                 Z
Electronic contribution:      1.253739263       2.876990103      -0.171998153
Nuclear contribution   :     -1.364350334      -4.088752571      -0.078133532
                        -----------------------------------------
Total Dipole Moment    :     -0.110611071      -1.211762468      -0.250131685
                        -----------------------------------------
Magnitude (a.u.)       :      1.242243514
Magnitude (Debye)      :      3.157532078

Rotational constants in cm-1:             1.841724             0.347971             0.309281
Rotational constants in MHz :         55213.489770         10431.915246          9272.015359

                             ****ORCA TERMINATED NORMALLY****
TOTAL RUN TIME: 0 days 0 hours 0 minutes 16 seconds 204 msec
