                         Program Version 6.0.0  -   RELEASE  -
|  1> ! Engrad def2-TZVPPD wB97M-D3BJ
|  2> %pal nprocs 8 end%pal nprocs 64 end
|  3> %tddft
|  4>  Iroot 2 Nroots 3
|  5> sf true
|  6> end
|  7> *xyz 0 3
|  8> O   2.4164366 -0.45205749 -2.2962133
|  9> O   -1.7151232 1.7198337 -1.67560216
| 10> O   -1.45109406 -2.43243357 -0.94345916
| 11> O   -2.84803944 0.59501321 2.58732767
| 12> N   0.10228735 -1.82084864 0.64630355
| 13> N   -0.68974237 0.75280569 2.1418841
| 14> N   0.55556877 -1.58558487 -1.56181346
| 15> N   -2.18320802 0.65851521 0.30236987
| 16> C   2.16461073 -0.65679204 0.00323545
| 17> C   0.01206307 1.26301172 -0.14872851
| 18> C   1.0613475 -0.81507482 1.01566408
| 19> C   0.41594185 0.70471584 1.19127305
| 20> C   3.40959689 0.2072815 0.36939882
| 21> C   1.02459641 1.98691133 -0.98868106
| 22> C   1.75864337 -0.93319059 -1.35472226
| 23> C   -1.35808283 1.25213782 -0.62452766
| 24> C   -0.36943853 -2.00052064 -0.60924725
| 25> C   -1.99567547 0.63577167 1.70226444
| 26> H   1.29103807 -0.87624619 2.09828909
| 27> H   1.30658636 1.31994314 1.48463342
| 28> H   3.82353027 0.68572976 -0.49689542
| 29> H   3.11890768 1.0732098 0.93083321
| 30> H   4.03252914 -0.49289775 0.97123307
| 31> H   0.68595037 3.03416266 -1.0347633
| 32> H   2.03013628 1.96294888 -0.65227083
| 33> H   1.01487168 1.66558744 -2.02214425
| 34> H   -0.48593293 -2.13106167 1.37442771
| 35> H   -0.67700189 1.11960493 3.0892058
| 36> H   0.32621696 -1.7870006 -2.57116853
| 37> H   -3.11272805 0.38376212 0.03183894
| 38> *
| 39>
| 40>                          ****END OF INPUT****

CARTESIAN COORDINATES (ANGSTROEM)
---------------------------------
  O      2.416437   -0.452057   -2.296213
  O     -1.715123    1.719834   -1.675602
  O     -1.451094   -2.432434   -0.943459
  O     -2.848039    0.595013    2.587328
  N      0.102287   -1.820849    0.646304
  N     -0.689742    0.752806    2.141884
  N      0.555569   -1.585585   -1.561813
  N     -2.183208    0.658515    0.302370
  C      2.164611   -0.656792    0.003235
  C      0.012063    1.263012   -0.148729
  C      1.061347   -0.815075    1.015664
  C      0.415942    0.704716    1.191273
  C      3.409597    0.207281    0.369399
  C      1.024596    1.986911   -0.988681
  C      1.758643   -0.933191   -1.354722
  C     -1.358083    1.252138   -0.624528
  C     -0.369439   -2.000521   -0.609247
  C     -1.995675    0.635772    1.702264
  H      1.291038   -0.876246    2.098289
  H      1.306586    1.319943    1.484633
  H      3.823530    0.685730   -0.496895
  H      3.118908    1.073210    0.930833
  H      4.032529   -0.492898    0.971233
  H      0.685950    3.034163   -1.034763
  H      2.030136    1.962949   -0.652271
  H      1.014872    1.665587   -2.022144
  H     -0.485933   -2.131062    1.374428
  H     -0.677002    1.119605    3.089206
  H      0.326217   -1.787001   -2.571169
  H     -3.112728    0.383762    0.031839

 Total Charge           Charge          ....    0
 Multiplicity           Mult            ....    3
 Number of Electrons    NEL             ....  132
 Basis Dimension        Dim             ....  882

ORBITAL ENERGIES
----------------
                 SPIN UP ORBITALS
  NO   OCC          E(Eh)            E(eV)
   0   1.0000     -19.334132      -526.1085
   1   1.0000     -19.332267      -526.0577
   2   1.0000     -19.326089      -525.8896
   3   1.0000     -19.323703      -525.8247
   4   1.0000     -14.569612      -396.4593
   5   1.0000     -14.564887      -396.3307
   6   1.0000     -14.564321      -396.3153
   7   1.0000     -14.563388      -396.2899
   8   1.0000     -10.512189      -286.0512
   9   1.0000     -10.510063      -285.9934
  10   1.0000     -10.485139      -285.3151
  11   1.0000     -10.476637      -285.0838
  12   1.0000     -10.452338      -284.4226
  13   1.0000     -10.449985      -284.3585
  14   1.0000     -10.427068      -283.7349
  15   1.0000     -10.409739      -283.2634
  16   1.0000     -10.385573      -282.6058
  17   1.0000     -10.359521      -281.8969
  18   1.0000      -1.221731       -33.2450
  19   1.0000      -1.215088       -33.0642
  20   1.0000      -1.196721       -32.5644
  21   1.0000      -1.188523       -32.3413
  22   1.0000      -1.119765       -30.4704
  23   1.0000      -1.098526       -29.8924
  24   1.0000      -1.065513       -28.9941
  25   1.0000      -1.056852       -28.7584
  26   1.0000      -0.980588       -26.6832
  27   1.0000      -0.943310       -25.6688
  28   1.0000      -0.882288       -24.0083
  29   1.0000      -0.844762       -22.9872
  30   1.0000      -0.828168       -22.5356
  31   1.0000      -0.803981       -21.8774
  32   1.0000      -0.788241       -21.4491
  33   1.0000      -0.780902       -21.2494
  34   1.0000      -0.700852       -19.0712
  35   1.0000      -0.693283       -18.8652
  36   1.0000      -0.689701       -18.7677
  37   1.0000      -0.675269       -18.3750
  38   1.0000      -0.652473       -17.7547
  39   1.0000      -0.641580       -17.4583
  40   1.0000      -0.626100       -17.0371
  41   1.0000      -0.602504       -16.3950
  42   1.0000      -0.593778       -16.1575
  43   1.0000      -0.586516       -15.9599
  44   1.0000      -0.577860       -15.7244
  45   1.0000      -0.566655       -15.4195
  46   1.0000      -0.564549       -15.3622
  47   1.0000      -0.560664       -15.2564
  48   1.0000      -0.556096       -15.1321
  49   1.0000      -0.547857       -14.9079
  50   1.0000      -0.545218       -14.8361
  51   1.0000      -0.536985       -14.6121
  52   1.0000      -0.522493       -14.2178
  53   1.0000      -0.518018       -14.0960
  54   1.0000      -0.514671       -14.0049
  55   1.0000      -0.500928       -13.6309
  56   1.0000      -0.489933       -13.3318
  57   1.0000      -0.426846       -11.6151
  58   1.0000      -0.417582       -11.3630
  59   1.0000      -0.412095       -11.2137
  60   1.0000      -0.407908       -11.0997
  61   1.0000      -0.403068       -10.9680
  62   1.0000      -0.397570       -10.8184
  63   1.0000      -0.392599       -10.6832
  64   1.0000      -0.382270       -10.4021
  65   1.0000      -0.341812        -9.3012
  66   1.0000      -0.318931        -8.6785
  67   0.0000       0.009431         0.2566
  68   0.0000       0.029122         0.7924
  69   0.0000       0.032627         0.8878
  70   0.0000       0.037197         1.0122
  71   0.0000       0.055067         1.4985

                 SPIN DOWN ORBITALS
  NO   OCC          E(Eh)            E(eV)
   0   1.0000     -19.329166      -525.9733
   1   1.0000     -19.328375      -525.9518
   2   1.0000     -19.326073      -525.8892
   3   1.0000     -19.323393      -525.8162
   4   1.0000     -14.568800      -396.4372
   5   1.0000     -14.564264      -396.3138
   6   1.0000     -14.564256      -396.3136
   7   1.0000     -14.562993      -396.2792
   8   1.0000     -10.512227      -286.0522
   9   1.0000     -10.510127      -285.9951
  10   1.0000     -10.486229      -285.3448
  11   1.0000     -10.477492      -285.1071
  12   1.0000     -10.451918      -284.4111
  13   1.0000     -10.449060      -284.3334
  14   1.0000     -10.415736      -283.4266
  15   1.0000     -10.398558      -282.9591
  16   1.0000     -10.386066      -282.6192
  17   1.0000     -10.359907      -281.9074
  18   1.0000      -1.220668       -33.2161
  19   1.0000      -1.212417       -32.9915
  20   1.0000      -1.193114       -32.4663
  21   1.0000      -1.182165       -32.1683
  22   1.0000      -1.117572       -30.4107
  23   1.0000      -1.096074       -29.8257
  24   1.0000      -1.063374       -28.9359
  25   1.0000      -1.055098       -28.7107
  26   1.0000      -0.967491       -26.3268
  27   1.0000      -0.926064       -25.1995
  28   1.0000      -0.877470       -23.8772
  29   1.0000      -0.838973       -22.8296
  30   1.0000      -0.820150       -22.3174
  31   1.0000      -0.800075       -21.7712
  32   1.0000      -0.786100       -21.3909
  33   1.0000      -0.778875       -21.1943
  34   1.0000      -0.694828       -18.9072
  35   1.0000      -0.686767       -18.6879
  36   1.0000      -0.685491       -18.6532
  37   1.0000      -0.668978       -18.2038
  38   1.0000      -0.644502       -17.5378
  39   1.0000      -0.636526       -17.3207
  40   1.0000      -0.618087       -16.8190
  41   1.0000      -0.597372       -16.2553
  42   1.0000      -0.587260       -15.9801
  43   1.0000      -0.581082       -15.8120
  44   1.0000      -0.572903       -15.5895
  45   1.0000      -0.561652       -15.2833
  46   1.0000      -0.560346       -15.2478
  47   1.0000      -0.551771       -15.0144
  48   1.0000      -0.548423       -14.9233
  49   1.0000      -0.539025       -14.6676
  50   1.0000      -0.537886       -14.6366
  51   1.0000      -0.528318       -14.3763
  52   1.0000      -0.514274       -13.9941
  53   1.0000      -0.510210       -13.8835
  54   1.0000      -0.508190       -13.8285
  55   1.0000      -0.490313       -13.3421
  56   1.0000      -0.484279       -13.1779
  57   1.0000      -0.422019       -11.4837
  58   1.0000      -0.412425       -11.2227
  59   1.0000      -0.407967       -11.1013
  60   1.0000      -0.395005       -10.7486
  61   1.0000      -0.390189       -10.6176
  62   1.0000      -0.388274       -10.5655
  63   1.0000      -0.387214       -10.5366
  64   1.0000      -0.368239       -10.0203
  65   0.0000      -0.062306        -1.6954
  66   0.0000      -0.048490        -1.3195
  67   0.0000       0.009016         0.2453
  68   0.0000       0.028886         0.7860
  69   0.0000       0.032816         0.8930

----------------------------------------------------------------------------------------------------
          SPIN FLIP ABSORPTION SPECTRUM VIA TRANSITION ELECTRIC DIPOLE MOMENTS
----------------------------------------------------------------------------------------------------
     Transition      Energy     Energy  Wavelength fosc(D2)      D2        DX        DY        DZ
                      (eV)      (cm-1)    (nm)                 (au**2)    (au)      (au)      (au)
----------------------------------------------------------------------------------------------------
  1-3A  ->  2-3A    0.038982     314.4  31805.1   0.000007935   0.00831  -0.07633   0.03053   0.03937
  1-3A  ->  3-1A    1.899199   15318.1   652.8   0.008711765   0.18723   0.37259  -0.19240  -0.10674

Dispersion correction             ... done (  0.1 sec)

MULLIKEN ATOMIC CHARGES AND SPIN DENSITIES
------------------------------------------
   0 O :   -0.686977   -0.135752
   1 O :   -0.641358    0.115119
   2 O :   -0.650051    0.000183
   3 O :   -0.661474    0.003184
   4 N :   -0.118755   -0.015553
   5 N :   -0.236110   -0.000115
   6 N :   -0.010972   -0.002657
   7 N :    0.120841    0.021367
   8 C :    0.757598    0.075524
   9 C :    0.127880    0.410867
  10 C :   -0.117272   -0.104697
  11 C :    0.419688   -0.021291
  12 C :   -1.419147   -0.081773
  13 C :   -1.558840   -0.026435
  14 C :    0.013960   -0.341569
  15 C :    0.409594    0.053039
  16 C :    0.452968    0.028821
  17 C :    0.325358   -0.005009
  18 H :    0.491600   -0.043258
  19 H :    0.674381    0.018581
  20 H :    0.316988   -0.007334
  21 H :    0.367767   -0.007660
  22 H :    0.389619    0.000786
  23 H :    0.463933    0.025250
  24 H :    0.239176    0.012333
  25 H :    0.274938    0.024700
  26 H :    0.013864    0.001641
  27 H :    0.095690    0.000823
  28 H :    0.112779    0.003043
  29 H :    0.032337   -0.002157
Sum of atomic charges       :   -0.0000000

LOEWDIN ATOMIC CHARGES AND SPIN DENSITIES
-----------------------------------------
   0 O :    0.041667   -0.124289
   1 O :    0.122749    0.099451
   2 O :    0.091955    0.000021
   3 O :    0.065392    0.002907
   4 N :    0.294059    0.000596
   5 N :    0.268135   -0.004570
   6 N :    0.311390   -0.006500
   7 N :    0.332132    0.020340
   8 C :    0.006768   -0.376893
   9 C :   -0.015338    0.389000
  10 C :   -0.079648   -0.018175
  11 C :   -0.085079   -0.002020
  12 C :    0.211190   -0.039257
  13 C :    0.204094    0.048309
  14 C :   -0.426979   -0.066570
  15 C :   -0.432737    0.065503
  16 C :   -0.496887    0.001753
  17 C :   -0.436224    0.001038
  18 H :    0.061879   -0.006199
  19 H :    0.048690    0.004463
  20 H :   -0.018050    0.000629
  21 H :   -0.045697   -0.006587
  22 H :    0.025159   -0.012663
  23 H :    0.026436    0.019778
  24 H :   -0.044307   -0.001301
  25 H :    0.005161    0.011361
  26 H :   -0.048070   -0.000216
  27 H :   -0.020435   -0.000792
  28 H :    0.045059   -0.000574
  29 H :   -0.012464    0.001456

  Mayer bond orders larger than 0.100000
B(  0-O , 14-C ) :   1.4617 B(  1-O , 15-C ) :   1.3357 B(  2-O , 16-C ) :   1.4990
B(  3-O , 17-C ) :   1.5947 B(  4-N , 10-C ) :   0.4280 B(  4-N , 16-C ) :   1.0465
B(  4-N , 26-H ) :   1.0923 B(  5-N ,  9-C ) :   0.2244 B(  5-N , 10-C ) :   0.1521
B(  5-N , 11-C ) :   0.3199 B(  5-N , 17-C ) :   1.1770 B(  5-N , 19-H ) :  -0.1388
B(  5-N , 27-H ) :   1.0599 B(  6-N ,  8-C ) :  -0.1326 B(  6-N , 10-C ) :   0.1216
B(  6-N , 14-C ) :   1.1283 B(  6-N , 16-C ) :   0.9277 B(  6-N , 28-H ) :   1.0578
B(  7-N ,  9-C ) :  -0.1231 B(  7-N , 11-C ) :   0.1491 B(  7-N , 15-C ) :   1.0078
B(  7-N , 17-C ) :   0.9854 B(  7-N , 29-H ) :   1.1008 B(  8-C , 10-C ) :   0.7973
B(  8-C , 11-C ) :   0.1333 B(  8-C , 12-C ) :   0.3198 B(  8-C , 14-C ) :   0.7343
B(  9-C , 10-C ) :   0.2535 B(  9-C , 13-C ) :   0.4372 B(  9-C , 15-C ) :   0.7825
B(  9-C , 19-H ) :  -0.2474 B(  9-C , 24-H ) :  -0.1109 B(  9-C , 25-H ) :  -0.1051
B( 10-C , 11-C ) :   0.4565 B( 10-C , 18-H ) :   0.7092 B( 11-C , 12-C ) :   0.1002
B( 11-C , 13-C ) :  -0.3171 B( 11-C , 17-C ) :  -0.2632 B( 11-C , 19-H ) :   0.7318
B( 12-C , 20-H ) :   1.0411 B( 12-C , 21-H ) :   0.8545 B( 12-C , 22-H ) :   0.8919
B( 13-C , 15-C ) :  -0.1967 B( 13-C , 23-H ) :   0.7550 B( 13-C , 24-H ) :   1.1078
B( 13-C , 25-H ) :   1.0233

Dispersion correction           -0.060420566
FINAL SINGLE POINT ENERGY      -908.763967763515

DIPOLE MOMENT
-------------

Method             : TDA/CIS
Type of density    : Electron Density
Level              : Relaxed density
State              :   2
Multiplicity       :   3
Irrep              :   0
Energy             :     0.0000000000000000 Eh
Relativity type    :
Basis              : AO
                                X                 Y                 Z
Electronic contribution:    -10.544795306      -5.723132413      -1.442148190
Nuclear contribution   :     12.533986076       6.078221766       3.245566249
                        -----------------------------------------
Total Dipole Moment    :      1.989190770       0.355089353       1.803418059
                        -----------------------------------------
Magnitude (a.u.)       :      2.708373140
Magnitude (Debye)      :      6.884137430

Rotational constants in cm-1:             0.021307             0.013003             0.012520
Rotational constants in MHz :           638.771429           389.812969           375.331998

                             ****ORCA TERMINATED NORMALLY****
TOTAL RUN TIME: 0 days 0 hours 5 minutes 6 seconds 351 msec
