                         Program Version 6.0.0  -   RELEASE  -
|  1> ! Engrad def2-TZVPPD wB97M-D3BJ
|  2> %pal nprocs 8 end%pal nprocs 64 end
|  3> %tddft
|  4>  Iroot 1 Nroots 3
|  5> sf true
|  6> end
|  7> *xyz 0 3
|  8> O   3.42461063 -0.27695146 -0.19617071
|  9> O   -0.63158749 0.85391104 -2.79744103
| 10> O   -0.08363157 -2.89489992 -0.53488241
| 11> O   -3.764212 -0.31767385 0.13051087
| 12> N   -0.19669061 -1.39723529 1.14987043
| 13> N   -1.98159747 0.88581321 0.91300416
| 14> N   1.48102957 -1.31719139 -0.52405312
| 15> N   -1.97750997 -0.06108047 -1.2030885
| 16> C   1.65186365 0.08658196 1.40016604
| 17> C   -0.14542225 1.29760407 -0.55414058
| 18> C   0.18560133 -0.04919291 1.61656837
| 19> C   -0.58227101 1.11531825 0.82738161
| 20> C   2.41400958 1.17964094 2.05698304
| 21> C   1.13648647 2.00598436 -0.97888522
| 22> C   2.30982172 -0.53769842 0.24715218
| 23> C   -0.92525603 0.69637539 -1.61169463
| 24> C   0.3725356 -1.97723818 0.04734391
| 25> C   -2.67321863 0.14277124 -0.01220186
| 26> H   -0.12948341 0.06464294 2.66339781
| 27> H   -0.45185997 2.03351824 1.46787283
| 28> H   3.35289065 1.22302943 1.47625454
| 29> H   1.9175647 2.11246226 2.06446917
| 30> H   2.5973472 1.0506899 3.15131095
| 31> H   1.78744968 1.35495505 -1.51842506
| 32> H   0.87027053 2.70370287 -1.82567038
| 33> H   1.5619067 2.50467086 -0.1666167
| 34> H   -1.21642508 -1.57823181 1.16291599
| 35> H   -2.41429963 0.97650953 1.81878752
| 36> H   1.91155598 -1.90769901 -1.26023508
| 37> H   -2.4781155 -0.55940043 -1.90412432
| 38> *
| 39>
| 40>                          ****END OF INPUT****

CARTESIAN COORDINATES (ANGSTROEM)
---------------------------------
  O      3.424611   -0.276951   -0.196171
  O     -0.631587    0.853911   -2.797441
  O     -0.083632   -2.894900   -0.534882
  O     -3.764212   -0.317674    0.130511
  N     -0.196691   -1.397235    1.149870
  N     -1.981597    0.885813    0.913004
  N      1.481030   -1.317191   -0.524053
  N     -1.977510   -0.061080   -1.203089
  C      1.651864    0.086582    1.400166
  C     -0.145422    1.297604   -0.554141
  C      0.185601   -0.049193    1.616568
  C     -0.582271    1.115318    0.827382
  C      2.414010    1.179641    2.056983
  C      1.136486    2.005984   -0.978885
  C      2.309822   -0.537698    0.247152
  C     -0.925256    0.696375   -1.611695
  C      0.372536   -1.977238    0.047344
  C     -2.673219    0.142771   -0.012202
  H     -0.129483    0.064643    2.663398
  H     -0.451860    2.033518    1.467873
  H      3.352891    1.223029    1.476255
  H      1.917565    2.112462    2.064469
  H      2.597347    1.050690    3.151311
  H      1.787450    1.354955   -1.518425
  H      0.870271    2.703703   -1.825670
  H      1.561907    2.504671   -0.166617
  H     -1.216425   -1.578232    1.162916
  H     -2.414300    0.976510    1.818788
  H      1.911556   -1.907699   -1.260235
  H     -2.478115   -0.559400   -1.904124

 Total Charge           Charge          ....    0
 Multiplicity           Mult            ....    3
 Number of Electrons    NEL             ....  132
 Basis Dimension        Dim             ....  882

ORBITAL ENERGIES
----------------
                 SPIN UP ORBITALS
  NO   OCC          E(Eh)            E(eV)
   0   1.0000     -19.336048      -526.1606
   1   1.0000     -19.328801      -525.9634
   2   1.0000     -19.326523      -525.9014
   3   1.0000     -19.323502      -525.8192
   4   1.0000     -14.569203      -396.4482
   5   1.0000     -14.563490      -396.2927
   6   1.0000     -14.563168      -396.2839
   7   1.0000     -14.561743      -396.2452
   8   1.0000     -10.511068      -286.0207
   9   1.0000     -10.501362      -285.7566
  10   1.0000     -10.483684      -285.2756
  11   1.0000     -10.473571      -285.0004
  12   1.0000     -10.450509      -284.3728
  13   1.0000     -10.449765      -284.3526
  14   1.0000     -10.423976      -283.6508
  15   1.0000     -10.413588      -283.3681
  16   1.0000     -10.373230      -282.2699
  17   1.0000     -10.363749      -282.0119
  18   1.0000      -1.235330       -33.6150
  19   1.0000      -1.231789       -33.5187
  20   1.0000      -1.200615       -32.6704
  21   1.0000      -1.190607       -32.3981
  22   1.0000      -1.130605       -30.7653
  23   1.0000      -1.103031       -30.0150
  24   1.0000      -1.073088       -29.2002
  25   1.0000      -1.057991       -28.7894
  26   1.0000      -0.983735       -26.7688
  27   1.0000      -0.951536       -25.8926
  28   1.0000      -0.889339       -24.2001
  29   1.0000      -0.842534       -22.9265
  30   1.0000      -0.827678       -22.5223
  31   1.0000      -0.806070       -21.9343
  32   1.0000      -0.792857       -21.5747
  33   1.0000      -0.772227       -21.0134
  34   1.0000      -0.702925       -19.1276
  35   1.0000      -0.698257       -19.0005
  36   1.0000      -0.690470       -18.7887
  37   1.0000      -0.675682       -18.3862
  38   1.0000      -0.663820       -18.0635
  39   1.0000      -0.640343       -17.4246
  40   1.0000      -0.625455       -17.0195
  41   1.0000      -0.603197       -16.4138
  42   1.0000      -0.600201       -16.3323
  43   1.0000      -0.588334       -16.0094
  44   1.0000      -0.575720       -15.6661
  45   1.0000      -0.572281       -15.5726
  46   1.0000      -0.570258       -15.5175
  47   1.0000      -0.567316       -15.4374
  48   1.0000      -0.562977       -15.3194
  49   1.0000      -0.555403       -15.1133
  50   1.0000      -0.548566       -14.9272
  51   1.0000      -0.537185       -14.6175
  52   1.0000      -0.531075       -14.4513
  53   1.0000      -0.522668       -14.2225
  54   1.0000      -0.508460       -13.8359
  55   1.0000      -0.499612       -13.5951
  56   1.0000      -0.493910       -13.4400
  57   1.0000      -0.429458       -11.6861
  58   1.0000      -0.424401       -11.5485
  59   1.0000      -0.421952       -11.4819
  60   1.0000      -0.408286       -11.1100
  61   1.0000      -0.405309       -11.0290
  62   1.0000      -0.398015       -10.8305
  63   1.0000      -0.391586       -10.6556
  64   1.0000      -0.386773       -10.5246
  65   1.0000      -0.347617        -9.4591
  66   1.0000      -0.323387        -8.7998
  67   0.0000       0.005022         0.1367
  68   0.0000       0.031034         0.8445
  69   0.0000       0.034011         0.9255
  70   0.0000       0.036048         0.9809
  71   0.0000       0.054629         1.4865

                 SPIN DOWN ORBITALS
  NO   OCC          E(Eh)            E(eV)
   0   1.0000     -19.331996      -526.0503
   1   1.0000     -19.328619      -525.9585
   2   1.0000     -19.323443      -525.8176
   3   1.0000     -19.322525      -525.7926
   4   1.0000     -14.568920      -396.4405
   5   1.0000     -14.563352      -396.2890
   6   1.0000     -14.562313      -396.2607
   7   1.0000     -14.561074      -396.2270
   8   1.0000     -10.511114      -286.0220
   9   1.0000     -10.501411      -285.7579
  10   1.0000     -10.484652      -285.3019
  11   1.0000     -10.474514      -285.0260
  12   1.0000     -10.449849      -284.3548
  13   1.0000     -10.449409      -284.3429
  14   1.0000     -10.412591      -283.3410
  15   1.0000     -10.402324      -283.0616
  16   1.0000     -10.373853      -282.2869
  17   1.0000     -10.364261      -282.0259
  18   1.0000      -1.234543       -33.5936
  19   1.0000      -1.231085       -33.4995
  20   1.0000      -1.195279       -32.5252
  21   1.0000      -1.185405       -32.2565
  22   1.0000      -1.127962       -30.6934
  23   1.0000      -1.100614       -29.9492
  24   1.0000      -1.070912       -29.1410
  25   1.0000      -1.056188       -28.7403
  26   1.0000      -0.970432       -26.4068
  27   1.0000      -0.934025       -25.4161
  28   1.0000      -0.883575       -24.0433
  29   1.0000      -0.838035       -22.8041
  30   1.0000      -0.819433       -22.2979
  31   1.0000      -0.801076       -21.7984
  32   1.0000      -0.791196       -21.5296
  33   1.0000      -0.770527       -20.9671
  34   1.0000      -0.697488       -18.9796
  35   1.0000      -0.692435       -18.8421
  36   1.0000      -0.684143       -18.6165
  37   1.0000      -0.669076       -18.2065
  38   1.0000      -0.653322       -17.7778
  39   1.0000      -0.635378       -17.2895
  40   1.0000      -0.621078       -16.9004
  41   1.0000      -0.598526       -16.2867
  42   1.0000      -0.594006       -16.1637
  43   1.0000      -0.584172       -15.8961
  44   1.0000      -0.571200       -15.5431
  45   1.0000      -0.566647       -15.4193
  46   1.0000      -0.565805       -15.3963
  47   1.0000      -0.560267       -15.2456
  48   1.0000      -0.555594       -15.1185
  49   1.0000      -0.547237       -14.8911
  50   1.0000      -0.536522       -14.5995
  51   1.0000      -0.528328       -14.3765
  52   1.0000      -0.522134       -14.2080
  53   1.0000      -0.514680       -14.0052
  54   1.0000      -0.501700       -13.6519
  55   1.0000      -0.493016       -13.4156
  56   1.0000      -0.486288       -13.2326
  57   1.0000      -0.425771       -11.5858
  58   1.0000      -0.421230       -11.4622
  59   1.0000      -0.414950       -11.2914
  60   1.0000      -0.397018       -10.8034
  61   1.0000      -0.390799       -10.6342
  62   1.0000      -0.389582       -10.6011
  63   1.0000      -0.386608       -10.5201
  64   1.0000      -0.379089       -10.3155
  65   0.0000      -0.065340        -1.7780
  66   0.0000      -0.050573        -1.3762
  67   0.0000       0.004572         0.1244
  68   0.0000       0.030786         0.8377
  69   0.0000       0.033448         0.9102

----------------------------------------------------------------------------------------------------
          SPIN FLIP ABSORPTION SPECTRUM VIA TRANSITION ELECTRIC DIPOLE MOMENTS
----------------------------------------------------------------------------------------------------
     Transition      Energy     Energy  Wavelength fosc(D2)      D2        DX        DY        DZ
                      (eV)      (cm-1)    (nm)                 (au**2)    (au)      (au)      (au)
----------------------------------------------------------------------------------------------------
  1-3A  ->  2-3A    0.053338     430.2  23244.9   0.000021367   0.01635   0.11763  -0.04066   0.02934
  1-3A  ->  3-1A    2.120647   17104.2   584.7   0.022152056   0.42637  -0.56071   0.14706  -0.30058

Dispersion correction             ... done (  0.1 sec)

MULLIKEN ATOMIC CHARGES AND SPIN DENSITIES
------------------------------------------
   0 O :   -0.681333    0.048756
   1 O :   -0.705767   -0.050440
   2 O :   -0.611934    0.000551
   3 O :   -0.617664   -0.000190
   4 N :   -0.281535    0.000547
   5 N :   -0.251506   -0.010076
   6 N :    0.090670    0.001941
   7 N :    0.115155   -0.014149
   8 C :    0.026507    0.338663
   9 C :    0.493660    0.330477
  10 C :    0.343884   -0.086894
  11 C :    0.443827   -0.315131
  12 C :   -1.404197   -0.012427
  13 C :   -1.631876    0.003563
  14 C :    0.464198   -0.055841
  15 C :    0.198528   -0.217635
  16 C :    0.333233   -0.002522
  17 C :    0.349890    0.014202
  18 H :    0.467230    0.009056
  19 H :    0.465541   -0.006963
  20 H :    0.309204   -0.000630
  21 H :    0.358140    0.010472
  22 H :    0.350350    0.015594
  23 H :    0.265763   -0.001549
  24 H :    0.444962   -0.005453
  25 H :    0.336116    0.001567
  26 H :    0.135031   -0.000236
  27 H :    0.070713    0.001662
  28 H :    0.109485   -0.001244
  29 H :    0.013725    0.004328
Sum of atomic charges       :   -0.0000000

LOEWDIN ATOMIC CHARGES AND SPIN DENSITIES
-----------------------------------------
   0 O :    0.065420    0.041492
   1 O :    0.074967   -0.042767
   2 O :    0.126130    0.000696
   3 O :    0.111510   -0.000542
   4 N :    0.275661    0.000435
   5 N :    0.267234    0.000737
   6 N :    0.319803    0.000834
   7 N :    0.338287   -0.010961
   8 C :   -0.029933    0.172816
   9 C :   -0.000400   -0.149512
  10 C :   -0.077393    0.003307
  11 C :   -0.140030   -0.015381
  12 C :    0.184822    0.025600
  13 C :    0.234364   -0.018189
  14 C :   -0.425110    0.024122
  15 C :   -0.424390   -0.030796
  16 C :   -0.509546   -0.000524
  17 C :   -0.494297   -0.000513
  18 H :    0.063477    0.000602
  19 H :    0.082833   -0.004573
  20 H :    0.003243   -0.000325
  21 H :   -0.040440    0.005782
  22 H :    0.027738    0.008502
  23 H :   -0.011614   -0.005004
  24 H :    0.044812   -0.006123
  25 H :   -0.045298    0.000697
  26 H :   -0.014086    0.000003
  27 H :   -0.019396    0.000241
  28 H :    0.026916    0.000269
  29 H :   -0.015284   -0.000924

  Mayer bond orders larger than 0.100000
B(  0-O , 14-C ) :   1.3562 B(  1-O , 15-C ) :   1.2412 B(  2-O , 16-C ) :   1.5482
B(  3-O , 17-C ) :   1.6383 B(  4-N ,  8-C ) :   0.2593 B(  4-N , 10-C ) :   0.2746
B(  4-N , 16-C ) :   0.9917 B(  4-N , 26-H ) :   0.9464 B(  5-N ,  9-C ) :   0.2347
B(  5-N , 10-C ) :   0.1483 B(  5-N , 17-C ) :   1.1156 B(  5-N , 27-H ) :   1.0914
B(  6-N ,  8-C ) :  -0.1033 B(  6-N , 14-C ) :   1.1002 B(  6-N , 16-C ) :   0.9873
B(  6-N , 28-H ) :   1.0116 B(  7-N , 11-C ) :   0.1141 B(  7-N , 15-C ) :   1.0561
B(  7-N , 17-C ) :   0.9513 B(  7-N , 29-H ) :   1.0989 B(  8-C ,  9-C ) :   0.1827
B(  8-C , 10-C ) :   0.5674 B(  8-C , 11-C ) :   0.1148 B(  8-C , 12-C ) :   0.4267
B(  8-C , 14-C ) :   0.8254 B(  8-C , 16-C ) :   0.1021 B(  8-C , 18-H ) :  -0.1366
B(  8-C , 20-H ) :  -0.1089 B(  9-C , 10-C ) :   0.1428 B(  9-C , 11-C ) :   0.2372
B(  9-C , 13-C ) :   0.2274 B(  9-C , 15-C ) :   0.7851 B(  9-C , 17-C ) :   0.1034
B(  9-C , 19-H ) :  -0.2639 B(  9-C , 23-H ) :  -0.1139 B(  9-C , 25-H ) :  -0.1287
B( 10-C , 11-C ) :   0.5904 B( 10-C , 16-C ) :  -0.2028 B( 10-C , 18-H ) :   0.8321
B( 10-C , 19-H ) :  -0.1267 B( 11-C , 13-C ) :  -0.2347 B( 11-C , 17-C ) :  -0.2366
B( 11-C , 19-H ) :   0.9748 B( 12-C , 20-H ) :   0.9798 B( 12-C , 21-H ) :   0.8720
B( 12-C , 22-H ) :   0.9602 B( 13-C , 15-C ) :  -0.1063 B( 13-C , 23-H ) :   1.0113
B( 13-C , 24-H ) :   0.7934 B( 13-C , 25-H ) :   1.0629 B( 14-C , 16-C ) :  -0.1022
B( 15-C , 17-C ) :  -0.1078

Dispersion correction           -0.061391258
FINAL SINGLE POINT ENERGY      -908.784889880913

DIPOLE MOMENT
-------------

Method             : TDA/CIS
Type of density    : Electron Density
Level              : Relaxed density
State              :   1
Multiplicity       :   3
Irrep              :   0
Energy             :     0.0000000000000000 Eh
Relativity type    :
Basis              : AO
                                X                 Y                 Z
Electronic contribution:     -6.640677143      -8.315053064      -4.590145939
Nuclear contribution   :      6.916676793       9.807600333       6.909448219
                        -----------------------------------------
Total Dipole Moment    :      0.275999650       1.492547269       2.319302280
                        -----------------------------------------
Magnitude (a.u.)       :      2.771829039
Magnitude (Debye)      :      7.045429509

Rotational constants in cm-1:             0.022016             0.013190             0.012771
Rotational constants in MHz :           660.018937           395.431824           382.868942

                             ****ORCA TERMINATED NORMALLY****
TOTAL RUN TIME: 0 days 0 hours 4 minutes 56 seconds 792 msec
