                         Program Version 6.0.0  -   RELEASE  -
|  1> ! Engrad def2-TZVPPD wB97M-D3BJ
|  2> %pal nprocs 8 end%pal nprocs 64 end
|  3> %tddft
|  4>  Iroot 2 Nroots 3
|  5> sf true
|  6> end
|  7> *xyz 0 3
|  8> O   3.44701087 -0.09353346 -1.04416477
|  9> O   -1.59858788 0.60479127 -2.48158924
| 10> O   0.29760935 -3.17322856 -0.54904067
| 11> O   -3.67664724 -0.37863263 1.46359416
| 12> N   0.19430373 -1.4269948 0.87098502
| 13> N   -1.70429802 0.73815169 1.55211457
| 14> N   1.67543462 -1.4161687 -0.90226629
| 15> N   -2.56460515 0.16573802 -0.50866838
| 16> C   1.9824141 0.3330014 0.6883623
| 17> C   -0.50272871 1.34110251 -0.50005003
| 18> C   0.70898741 -0.03103863 1.31448169
| 19> C   -0.38440507 1.10014247 0.94597934
| 20> C   2.82830549 1.39353259 1.25002325
| 21> C   0.48140266 1.99467586 -1.28270438
| 22> C   2.43893936 -0.35815865 -0.48548543
| 23> C   -1.58197059 0.696601 -1.2456843
| 24> C   0.68775187 -2.0957777 -0.19226557
| 25> C   -2.71764111 0.16426812 0.90889233
| 26> H   0.8542892 -0.00851141 2.45232032
| 27> H   -0.02418046 1.99059373 1.55425481
| 28> H   3.73040592 1.53816589 0.75366794
| 29> H   2.42426014 2.33355322 1.32071167
| 30> H   3.18985506 1.15418256 2.28665114
| 31> H   0.03621738 2.70880157 -1.96138407
| 32> H   1.27682846 2.40170662 -0.7653885
| 33> H   1.00793446 1.28470253 -1.96529312
| 34> H   -0.62429049 -1.75580328 1.3100245
| 35> H   -1.64602456 0.68451894 2.57676317
| 36> H   2.00286835 -1.83256345 -1.8042561
| 37> H   -3.36061063 -0.28003906 -1.00022457
| 38> *
| 39>
| 40>                          ****END OF INPUT****

CARTESIAN COORDINATES (ANGSTROEM)
---------------------------------
  O      3.447011   -0.093533   -1.044165
  O     -1.598588    0.604791   -2.481589
  O      0.297609   -3.173229   -0.549041
  O     -3.676647   -0.378633    1.463594
  N      0.194304   -1.426995    0.870985
  N     -1.704298    0.738152    1.552115
  N      1.675435   -1.416169   -0.902266
  N     -2.564605    0.165738   -0.508668
  C      1.982414    0.333001    0.688362
  C     -0.502729    1.341103   -0.500050
  C      0.708987   -0.031039    1.314482
  C     -0.384405    1.100142    0.945979
  C      2.828305    1.393533    1.250023
  C      0.481403    1.994676   -1.282704
  C      2.438939   -0.358159   -0.485485
  C     -1.581971    0.696601   -1.245684
  C      0.687752   -2.095778   -0.192266
  C     -2.717641    0.164268    0.908892
  H      0.854289   -0.008511    2.452320
  H     -0.024180    1.990594    1.554255
  H      3.730406    1.538166    0.753668
  H      2.424260    2.333553    1.320712
  H      3.189855    1.154183    2.286651
  H      0.036217    2.708802   -1.961384
  H      1.276828    2.401707   -0.765389
  H      1.007934    1.284703   -1.965293
  H     -0.624290   -1.755803    1.310024
  H     -1.646025    0.684519    2.576763
  H      2.002868   -1.832563   -1.804256
  H     -3.360611   -0.280039   -1.000225

 Total Charge           Charge          ....    0
 Multiplicity           Mult            ....    3
 Number of Electrons    NEL             ....  132
 Basis Dimension        Dim             ....  882

ORBITAL ENERGIES
----------------
                 SPIN UP ORBITALS
  NO   OCC          E(Eh)            E(eV)
   0   1.0000     -19.332609      -526.0670
   1   1.0000     -19.325208      -525.8656
   2   1.0000     -19.324643      -525.8503
   3   1.0000     -19.314177      -525.5655
   4   1.0000     -14.576223      -396.6392
   5   1.0000     -14.568100      -396.4182
   6   1.0000     -14.562787      -396.2736
   7   1.0000     -14.559884      -396.1946
   8   1.0000     -10.515645      -286.1452
   9   1.0000     -10.501810      -285.7688
  10   1.0000     -10.477331      -285.1027
  11   1.0000     -10.475418      -285.0506
  12   1.0000     -10.464638      -284.7573
  13   1.0000     -10.463359      -284.7225
  14   1.0000     -10.420661      -283.5606
  15   1.0000     -10.415445      -283.4187
  16   1.0000     -10.370430      -282.1938
  17   1.0000     -10.361931      -281.9625
  18   1.0000      -1.231322       -33.5060
  19   1.0000      -1.215148       -33.0659
  20   1.0000      -1.207639       -32.8615
  21   1.0000      -1.184323       -32.2271
  22   1.0000      -1.114807       -30.3354
  23   1.0000      -1.097040       -29.8520
  24   1.0000      -1.065263       -28.9873
  25   1.0000      -1.051900       -28.6237
  26   1.0000      -0.999459       -27.1967
  27   1.0000      -0.968177       -26.3454
  28   1.0000      -0.899276       -24.4705
  29   1.0000      -0.855054       -23.2672
  30   1.0000      -0.828775       -22.5521
  31   1.0000      -0.799237       -21.7483
  32   1.0000      -0.795173       -21.6377
  33   1.0000      -0.789652       -21.4875
  34   1.0000      -0.708526       -19.2800
  35   1.0000      -0.704401       -19.1677
  36   1.0000      -0.691660       -18.8210
  37   1.0000      -0.680804       -18.5256
  38   1.0000      -0.651591       -17.7307
  39   1.0000      -0.634718       -17.2716
  40   1.0000      -0.617987       -16.8163
  41   1.0000      -0.608962       -16.5707
  42   1.0000      -0.604355       -16.4453
  43   1.0000      -0.585496       -15.9321
  44   1.0000      -0.578771       -15.7492
  45   1.0000      -0.573041       -15.5932
  46   1.0000      -0.571702       -15.5568
  47   1.0000      -0.569407       -15.4943
  48   1.0000      -0.562201       -15.2983
  49   1.0000      -0.559847       -15.2342
  50   1.0000      -0.555268       -15.1096
  51   1.0000      -0.540502       -14.7078
  52   1.0000      -0.534670       -14.5491
  53   1.0000      -0.532060       -14.4781
  54   1.0000      -0.516840       -14.0639
  55   1.0000      -0.507931       -13.8215
  56   1.0000      -0.498017       -13.5517
  57   1.0000      -0.423177       -11.5152
  58   1.0000      -0.417676       -11.3655
  59   1.0000      -0.408811       -11.1243
  60   1.0000      -0.403431       -10.9779
  61   1.0000      -0.400957       -10.9106
  62   1.0000      -0.393841       -10.7170
  63   1.0000      -0.390541       -10.6272
  64   1.0000      -0.387328       -10.5397
  65   1.0000      -0.351309        -9.5596
  66   1.0000      -0.324495        -8.8299
  67   0.0000       0.004467         0.1216
  68   0.0000       0.027904         0.7593
  69   0.0000       0.031122         0.8469
  70   0.0000       0.034791         0.9467
  71   0.0000       0.053318         1.4509

                 SPIN DOWN ORBITALS
  NO   OCC          E(Eh)            E(eV)
   0   1.0000     -19.328796      -525.9633
   1   1.0000     -19.325029      -525.8608
   2   1.0000     -19.321349      -525.7606
   3   1.0000     -19.314101      -525.5634
   4   1.0000     -14.575996      -396.6330
   5   1.0000     -14.567334      -396.3973
   6   1.0000     -14.562710      -396.2715
   7   1.0000     -14.559220      -396.1765
   8   1.0000     -10.515700      -286.1467
   9   1.0000     -10.501849      -285.7698
  10   1.0000     -10.478225      -285.1270
  11   1.0000     -10.476396      -285.0772
  12   1.0000     -10.464052      -284.7413
  13   1.0000     -10.462884      -284.7096
  14   1.0000     -10.409270      -283.2506
  15   1.0000     -10.404272      -283.1146
  16   1.0000     -10.371060      -282.2109
  17   1.0000     -10.362435      -281.9762
  18   1.0000      -1.227129       -33.3919
  19   1.0000      -1.213774       -33.0285
  20   1.0000      -1.205904       -32.8143
  21   1.0000      -1.180456       -32.1218
  22   1.0000      -1.112286       -30.2668
  23   1.0000      -1.094981       -29.7960
  24   1.0000      -1.063086       -28.9280
  25   1.0000      -1.050540       -28.5866
  26   1.0000      -0.986076       -26.8325
  27   1.0000      -0.950963       -25.8770
  28   1.0000      -0.893914       -24.3246
  29   1.0000      -0.849071       -23.1044
  30   1.0000      -0.819162       -22.2905
  31   1.0000      -0.795083       -21.6353
  32   1.0000      -0.792396       -21.5622
  33   1.0000      -0.788123       -21.4459
  34   1.0000      -0.704111       -19.1598
  35   1.0000      -0.699105       -19.0236
  36   1.0000      -0.684681       -18.6311
  37   1.0000      -0.673953       -18.3392
  38   1.0000      -0.635855       -17.3025
  39   1.0000      -0.630590       -17.1592
  40   1.0000      -0.613061       -16.6822
  41   1.0000      -0.604097       -16.4383
  42   1.0000      -0.598558       -16.2876
  43   1.0000      -0.580198       -15.7880
  44   1.0000      -0.571785       -15.5591
  45   1.0000      -0.567858       -15.4522
  46   1.0000      -0.563868       -15.3436
  47   1.0000      -0.562408       -15.3039
  48   1.0000      -0.553742       -15.0681
  49   1.0000      -0.550357       -14.9760
  50   1.0000      -0.545883       -14.8542
  51   1.0000      -0.534229       -14.5371
  52   1.0000      -0.527530       -14.3548
  53   1.0000      -0.525607       -14.3025
  54   1.0000      -0.510317       -13.8864
  55   1.0000      -0.502671       -13.6784
  56   1.0000      -0.490911       -13.3584
  57   1.0000      -0.418518       -11.3884
  58   1.0000      -0.414251       -11.2723
  59   1.0000      -0.403611       -10.9828
  60   1.0000      -0.392233       -10.6732
  61   1.0000      -0.389791       -10.6068
  62   1.0000      -0.387566       -10.5462
  63   1.0000      -0.386923       -10.5287
  64   1.0000      -0.381117       -10.3707
  65   0.0000      -0.067897        -1.8476
  66   0.0000      -0.052306        -1.4233
  67   0.0000       0.004108         0.1118
  68   0.0000       0.027453         0.7470
  69   0.0000       0.030543         0.8311

----------------------------------------------------------------------------------------------------
          SPIN FLIP ABSORPTION SPECTRUM VIA TRANSITION ELECTRIC DIPOLE MOMENTS
----------------------------------------------------------------------------------------------------
     Transition      Energy     Energy  Wavelength fosc(D2)      D2        DX        DY        DZ
                      (eV)      (cm-1)    (nm)                 (au**2)    (au)      (au)      (au)
----------------------------------------------------------------------------------------------------
  1-3A  ->  2-3A    0.098122     791.4  12635.7   0.000035220   0.01465   0.11880  -0.01823  -0.01432
  1-3A  ->  3-1A    2.314554   18668.1   535.7   0.020374677   0.35931  -0.56750   0.10387  -0.16266

Dispersion correction             ... done (  0.1 sec)

MULLIKEN ATOMIC CHARGES AND SPIN DENSITIES
------------------------------------------
   0 O :   -0.644527   -0.046635
   1 O :   -0.712217    0.044032
   2 O :   -0.651738   -0.000997
   3 O :   -0.664797    0.000186
   4 N :   -0.148758   -0.006196
   5 N :   -0.205770    0.001932
   6 N :    0.000982   -0.008192
   7 N :   -0.044970    0.009753
   8 C :    0.753415    0.363064
   9 C :    0.180427    0.345952
  10 C :    0.067926   -0.216735
  11 C :    0.423865   -0.100783
  12 C :   -1.531975    0.009518
  13 C :   -1.633879   -0.018590
  14 C :    0.109647   -0.388397
  15 C :    0.443738   -0.043752
  16 C :    0.494597    0.015544
  17 C :    0.486293    0.005476
  18 H :    0.446362   -0.022166
  19 H :    0.469485    0.000682
  20 H :    0.297264   -0.002125
  21 H :    0.382688    0.006819
  22 H :    0.414070    0.007415
  23 H :    0.411391    0.012094
  24 H :    0.313799    0.002605
  25 H :    0.294020    0.023910
  26 H :   -0.007691    0.000954
  27 H :    0.102959    0.000316
  28 H :    0.078515    0.003996
  29 H :    0.074879    0.000323
Sum of atomic charges       :   -0.0000000

LOEWDIN ATOMIC CHARGES AND SPIN DENSITIES
-----------------------------------------
   0 O :    0.120656   -0.039638
   1 O :    0.074146    0.037845
   2 O :    0.100837   -0.001042
   3 O :    0.060965    0.000116
   4 N :    0.323136   -0.001078
   5 N :    0.264020   -0.002444
   6 N :    0.315027   -0.010947
   7 N :    0.311358    0.008910
   8 C :   -0.053072   -0.161281
   9 C :   -0.034651    0.174215
  10 C :   -0.051196   -0.009927
  11 C :   -0.081899    0.010120
  12 C :    0.207041   -0.025456
  13 C :    0.184180    0.027677
  14 C :   -0.492408   -0.033881
  15 C :   -0.417806    0.023749
  16 C :   -0.509779   -0.000225
  17 C :   -0.476834   -0.000244
  18 H :    0.085367   -0.004754
  19 H :    0.081590    0.004568
  20 H :   -0.030705    0.000245
  21 H :   -0.049138   -0.005125
  22 H :    0.047524   -0.007325
  23 H :    0.023552    0.006557
  24 H :   -0.043550   -0.000981
  25 H :    0.045792    0.011035
  26 H :   -0.063147   -0.000182
  27 H :   -0.002233   -0.000351
  28 H :    0.036347   -0.000767
  29 H :    0.024880    0.000610

  Mayer bond orders larger than 0.100000
B(  0-O , 14-C ) :   1.3886 B(  1-O , 15-C ) :   1.3274 B(  2-O , 16-C ) :   1.5547
B(  3-O , 17-C ) :   1.5951 B(  4-N ,  8-C ) :   0.1166 B(  4-N , 10-C ) :   0.6255
B(  4-N , 16-C ) :   1.0538 B(  4-N , 26-H ) :   1.1328 B(  5-N ,  9-C ) :   0.1045
B(  5-N , 10-C ) :   0.1414 B(  5-N , 11-C ) :   0.3166 B(  5-N , 17-C ) :   1.1152
B(  5-N , 27-H ) :   1.0772 B(  6-N ,  8-C ) :  -0.1950 B(  6-N , 10-C ) :   0.1167
B(  6-N , 14-C ) :   1.1210 B(  6-N , 16-C ) :   0.9373 B(  6-N , 28-H ) :   1.0852
B(  7-N , 15-C ) :   1.0522 B(  7-N , 17-C ) :   0.9563 B(  7-N , 29-H ) :   1.0789
B(  8-C ,  9-C ) :   0.1768 B(  8-C , 10-C ) :   0.7535 B(  8-C , 11-C ) :   0.1168
B(  8-C , 12-C ) :   0.3649 B(  8-C , 14-C ) :   0.3956 B(  8-C , 18-H ) :  -0.1365
B(  8-C , 20-H ) :  -0.1133 B(  9-C , 10-C ) :   0.2174 B(  9-C , 11-C ) :   0.4285
B(  9-C , 15-C ) :   0.8379 B(  9-C , 19-H ) :  -0.2541 B(  9-C , 24-H ) :  -0.1968
B(  9-C , 25-H ) :  -0.1060 B( 10-C , 11-C ) :   0.5299 B( 10-C , 18-H ) :   0.8691
B( 11-C , 13-C ) :  -0.1701 B( 11-C , 17-C ) :  -0.1448 B( 11-C , 19-H ) :   0.8834
B( 12-C , 20-H ) :   1.0762 B( 12-C , 21-H ) :   0.7855 B( 12-C , 22-H ) :   0.8472
B( 13-C , 23-H ) :   0.8623 B( 13-C , 24-H ) :   1.0984 B( 13-C , 25-H ) :   0.9296

Dispersion correction           -0.058673176
FINAL SINGLE POINT ENERGY      -908.773098440791

DIPOLE MOMENT
-------------

Method             : TDA/CIS
Type of density    : Electron Density
Level              : Relaxed density
State              :   2
Multiplicity       :   3
Irrep              :   0
Energy             :     0.0000000000000000 Eh
Relativity type    :
Basis              : AO
                                X                 Y                 Z
Electronic contribution:     -7.356542559      -8.032528875      -2.677830715
Nuclear contribution   :      8.365251652      10.026332746       4.699012210
                        -----------------------------------------
Total Dipole Moment    :      1.008709092       1.993803870       2.021181495
                        -----------------------------------------
Magnitude (a.u.)       :      3.012959101
Magnitude (Debye)      :      7.658333416

Rotational constants in cm-1:             0.021413             0.012107             0.011449
Rotational constants in MHz :           641.934443           362.944297           343.237254

                             ****ORCA TERMINATED NORMALLY****
TOTAL RUN TIME: 0 days 0 hours 5 minutes 3 seconds 909 msec
