                         Program Version 6.0.0  -   RELEASE  -
|  1> ! Engrad def2-TZVPPD wB97M-D3BJ
|  2> %pal nprocs 8 end%pal nprocs 64 end
|  3> %tddft
|  4>  Iroot 1 Nroots 3
|  5> sf true
|  6> end
|  7> *xyz 0 3
|  8> O   1.13776623 0.71649229 -0.5883188
|  9> C   0.05348316 -0.02195509 -0.22223085
| 10> C   0.05628325 -0.54545328 1.13275277
| 11> H   0.16874183 -0.78001503 -0.91903613
| 12> H   -0.79177879 0.58717155 -0.54562812
| 13> H   0.79363572 -1.36695871 1.34100793
| 14> H   -0.81797762 -0.36661662 1.81047418
| 15> *
| 16>
| 17>                          ****END OF INPUT****

CARTESIAN COORDINATES (ANGSTROEM)
---------------------------------
  O      1.137766    0.716492   -0.588319
  C      0.053483   -0.021955   -0.222231
  C      0.056283   -0.545453    1.132753
  H      0.168742   -0.780015   -0.919036
  H     -0.791779    0.587172   -0.545628
  H      0.793636   -1.366959    1.341008
  H     -0.817978   -0.366617    1.810474

 Total Charge           Charge          ....    0
 Multiplicity           Mult            ....    3
 Number of Electrons    NEL             ....   24
 Basis Dimension        Dim             ....  182

ORBITAL ENERGIES
----------------
                 SPIN UP ORBITALS
  NO   OCC          E(Eh)            E(eV)
   0   1.0000     -19.380451      -527.3689
   1   1.0000     -10.400625      -283.0154
   2   1.0000     -10.376937      -282.3708
   3   1.0000      -1.171955       -31.8905
   4   1.0000      -0.881809       -23.9952
   5   1.0000      -0.734543       -19.9879
   6   1.0000      -0.631831       -17.1930
   7   1.0000      -0.584158       -15.8957
   8   1.0000      -0.550658       -14.9842
   9   1.0000      -0.518630       -14.1126
  10   1.0000      -0.432330       -11.7643
  11   1.0000      -0.407802       -11.0969
  12   1.0000      -0.333471        -9.0742
  13   0.0000       0.040719         1.1080
  14   0.0000       0.061619         1.6767
  15   0.0000       0.075640         2.0583
  16   0.0000       0.089243         2.4284
  17   0.0000       0.113699         3.0939

                 SPIN DOWN ORBITALS
  NO   OCC          E(Eh)            E(eV)
   0   1.0000     -19.355988      -526.7032
   1   1.0000     -10.401595      -283.0418
   2   1.0000     -10.363627      -282.0086
   3   1.0000      -1.118619       -30.4392
   4   1.0000      -0.847766       -23.0689
   5   1.0000      -0.704954       -19.1828
   6   1.0000      -0.599401       -16.3105
   7   1.0000      -0.555883       -15.1263
   8   1.0000      -0.522507       -14.2181
   9   1.0000      -0.489969       -13.3327
  10   1.0000      -0.378629       -10.3030
  11   0.0000      -0.043227        -1.1763
  12   0.0000      -0.008077        -0.2198
  13   0.0000       0.040521         1.1026
  14   0.0000       0.061740         1.6800
  15   0.0000       0.075976         2.0674

----------------------------------------------------------------------------------------------------
          SPIN FLIP ABSORPTION SPECTRUM VIA TRANSITION ELECTRIC DIPOLE MOMENTS
----------------------------------------------------------------------------------------------------
     Transition      Energy     Energy  Wavelength fosc(D2)      D2        DX        DY        DZ
                      (eV)      (cm-1)    (nm)                 (au**2)    (au)      (au)      (au)
----------------------------------------------------------------------------------------------------
  1-3A  ->  2-3A    0.193694    1562.2  6401.0   0.000197021   0.04152  -0.08816  -0.03978   0.17934
  1-3A  ->  3-3A    0.775722    6256.6  1598.3   0.001933671   0.10175   0.17801   0.15129  -0.21719

Dispersion correction             ... done (  0.1 sec)

MULLIKEN ATOMIC CHARGES AND SPIN DENSITIES
------------------------------------------
   0 O :   -0.370077    0.611494
   1 C :   -0.080262    0.038893
   2 C :   -0.238673   -0.607919
   3 H :    0.157738    0.029654
   4 H :    0.250663    0.028379
   5 H :    0.116903   -0.075539
   6 H :    0.163709   -0.024962
Sum of atomic charges       :    0.0000000

LOEWDIN ATOMIC CHARGES AND SPIN DENSITIES
-----------------------------------------
   0 O :    0.042221    0.570328
   1 C :   -0.285146   -0.000137
   2 C :    0.289489   -0.498921
   3 H :   -0.016177    0.022845
   4 H :    0.038637    0.022789
   5 H :   -0.029514   -0.056428
   6 H :   -0.039511   -0.060474

  Mayer bond orders larger than 0.100000
B(  0-O ,  1-C ) :   0.8507 B(  0-O ,  2-C ) :   0.1644 B(  1-C ,  2-C ) :   0.8673
B(  1-C ,  3-H ) :   0.9566 B(  1-C ,  4-H ) :   0.9130 B(  2-C ,  5-H ) :   1.0417
B(  2-C ,  6-H ) :   1.0181

Dispersion correction           -0.005514277
FINAL SINGLE POINT ENERGY      -153.743632736024

DIPOLE MOMENT
-------------

Method             : TDA/CIS
Type of density    : Electron Density
Level              : Relaxed density
State              :   1
Multiplicity       :   3
Irrep              :   0
Energy             :     0.0000000000000000 Eh
Relativity type    :
Basis              : AO
                                X                 Y                 Z
Electronic contribution:      1.462063987       1.480299714      -1.134358687
Nuclear contribution   :     -2.204238286      -2.028162542       1.298102671
                        -----------------------------------------
Total Dipole Moment    :     -0.742174299      -0.547862828       0.163743984
                        -----------------------------------------
Magnitude (a.u.)       :      0.936903656
Magnitude (Debye)      :      2.381419840

Rotational constants in cm-1:             1.579297             0.344110             0.311943
Rotational constants in MHz :         47346.143104         10316.165704          9351.809297

                             ****ORCA TERMINATED NORMALLY****
TOTAL RUN TIME: 0 days 0 hours 0 minutes 26 seconds 242 msec
