                         Program Version 6.0.0  -   RELEASE  -
|  1> ! Opt wB97M-D3BJ def2-TZVPPD
|  2> %pal nprocs 8 end %pal nprocs 64 end
|  3> %geom
|  4> Constraints
|  5>     {A 2 1 0 113.63636363636363 C }
|  6> end
|  7> MaxIter 500
|  8> end
|  9> *xyz 0 1
| 10> O   -0.0007 0.8141 0.0
| 11> C   0.7509 -0.4065 0.0
| 12> C   -0.7502 -0.4076 0.0
| 13> H   1.2625 -0.6786 0.9136
| 14> H   1.2625 -0.6787 -0.9136
| 15> H   -1.2614 -0.6806 -0.9136
| 16> H   -1.2614 -0.6805 0.9136
| 17> *
| 18>
| 19>                          ****END OF INPUT****
 Total Charge           Charge          ....    0
 Multiplicity           Mult            ....    1
 Number of Electrons    NEL             ....   24
Dispersion correction           -0.005792774
FINAL SINGLE POINT ENERGY      -153.660421216474
Dispersion correction             ... done (  0.1 sec)
Dispersion correction           -0.005677777
FINAL SINGLE POINT ENERGY      -153.727721164312
Dispersion correction             ... done (  0.1 sec)
Dispersion correction           -0.005609003
FINAL SINGLE POINT ENERGY      -153.747005882017
Dispersion correction             ... done (  0.1 sec)
FINAL SINGLE POINT ENERGY      -153.757043311412
FINAL SINGLE POINT ENERGY      -153.760997000864
FINAL SINGLE POINT ENERGY      -153.762139867392
FINAL SINGLE POINT ENERGY      -153.762630168655
FINAL SINGLE POINT ENERGY      -153.763374300292
FINAL SINGLE POINT ENERGY      -153.764124520754
FINAL SINGLE POINT ENERGY      -153.764998301788
FINAL SINGLE POINT ENERGY      -153.926126064745
FINAL SINGLE POINT ENERGY      -153.926126816949
FINAL SINGLE POINT ENERGY      -153.926134036308
FINAL SINGLE POINT ENERGY      -153.926136019393
FINAL SINGLE POINT ENERGY      -153.926136975633
FINAL SINGLE POINT ENERGY      -153.926137328184
FINAL SINGLE POINT ENERGY      -153.926137459031
Dispersion correction             ... done (  0.1 sec)
Dispersion correction           -0.005556549
FINAL SINGLE POINT ENERGY      -153.926133320216
Dispersion correction             ... done (  0.1 sec)
Dispersion correction           -0.005555865
FINAL SINGLE POINT ENERGY      -153.926137593297
Dispersion correction             ... done (  0.1 sec)
                    ***********************HURRAY********************

CARTESIAN COORDINATES (ANGSTROEM)
---------------------------------
  O      0.470244    1.277660    0.115998
  C      0.620008    0.149608   -0.290181
  C     -0.440574   -0.815373    0.193816
  H      0.007358   -1.634862    0.759215
  H      1.444884   -0.159505   -0.948844
  H     -0.966549   -1.272557   -0.646551
  H     -1.133170   -0.263371    0.816548

 Multiplicity           Mult            ....    1
 Number of Electrons    NEL             ....   24
 Basis Dimension        Dim             ....  182

ORBITAL ENERGIES
----------------

  NO   OCC          E(Eh)            E(eV)
   0   2.0000     -19.336633      -526.1765
   1   2.0000     -10.443743      -284.1887
   2   2.0000     -10.351538      -281.6797
   3   2.0000      -1.186033       -32.2736
   4   2.0000      -0.871234       -23.7075
   5   2.0000      -0.709817       -19.3151
   6   2.0000      -0.598715       -16.2919
   7   2.0000      -0.555045       -15.1035
   8   2.0000      -0.545423       -14.8417
   9   2.0000      -0.507258       -13.8032
  10   2.0000      -0.471080       -12.8187
  11   2.0000      -0.366404        -9.9704
  12   0.0000       0.039303         1.0695
  13   0.0000       0.050330         1.3695
  14   0.0000       0.058858         1.6016
  15   0.0000       0.084922         2.3108
  16   0.0000       0.087255         2.3743

MULLIKEN ATOMIC CHARGES
-----------------------
   0 O :   -0.472448
   1 C :    0.245736
   2 C :   -0.689729
   3 H :    0.217378
   4 H :    0.243027
   5 H :    0.218994
   6 H :    0.237042
Sum of atomic charges:   -0.0000000

LOEWDIN ATOMIC CHARGES
----------------------
   0 O :    0.049098
   1 C :   -0.191447
   2 C :    0.163515
   3 H :   -0.015527
   4 H :    0.022841
   5 H :   -0.015668
   6 H :   -0.012812

  Mayer bond orders larger than 0.100000
B(  0-O ,  1-C ) :   1.7729 B(  1-C ,  2-C ) :   0.7829 B(  1-C ,  4-H ) :   0.9813
B(  2-C ,  3-H ) :   0.9940 B(  2-C ,  5-H ) :   0.9940 B(  2-C ,  6-H ) :   0.9607

Dispersion correction           -0.005555832
FINAL SINGLE POINT ENERGY      -153.926137620243

DIPOLE MOMENT
-------------

Method             : SCF
Type of density    : Electron Density
Multiplicity       :   1
Irrep              :   0
Energy             :  -153.9205817884482030 Eh
Relativity type    :
Basis              : AO
                                X                 Y                 Z
Electronic contribution:      1.364680614       2.846663134      -0.195933636
Nuclear contribution   :     -1.372409315      -3.882718036      -0.074740091
                        -----------------------------------------
Total Dipole Moment    :     -0.007728701      -1.036054902      -0.270673727
                        -----------------------------------------
Magnitude (a.u.)       :      1.070856554
Magnitude (Debye)      :      2.721901048

Rotational constants in cm-1:             1.641330             0.371192             0.320456
Rotational constants in MHz :         49205.833680         11128.061935          9607.022983

                             ****ORCA TERMINATED NORMALLY****
TOTAL RUN TIME: 0 days 0 hours 14 minutes 24 seconds 226 msec
