                         Program Version 6.0.0  -   RELEASE  -
|  1> ! Engrad def2-TZVPPD wB97M-D3BJ
|  2> %pal nprocs 8 end%pal nprocs 64 end
|  3> %tddft Nroots 2 Iroot 1
|  4> sf true
|  5> end
|  6> *xyz 0 3
|  7> O   2.14471586 0.14308317 -1.17733601
|  8> O   -0.47780384 2.48121817 -2.46697187
|  9> O   0.44928279 -3.70171275 0.45229594
| 10> O   -2.4138917 -1.2596863 -1.08935676
| 11> N   0.44553937 -1.89670025 1.82921971
| 12> N   -1.46895588 -0.17887011 0.64207721
| 13> N   1.1067222 -1.69029912 -0.38544341
| 14> N   -1.05835097 0.45392839 -1.62049102
| 15> C   1.05821986 0.37481088 0.93503904
| 16> C   -0.05389627 2.36223473 -0.32564169
| 17> C   0.5633057 -0.50114911 2.05142831
| 18> C   -0.39592188 0.4323562 1.35803545
| 19> C   2.02271677 1.46059656 1.35269079
| 20> C   -0.95827484 3.29378699 0.3559684
| 21> C   1.48272357 -0.36511478 -0.30597352
| 22> C   -0.57604855 1.7409772 -1.50141809
| 23> C   0.63965872 -2.52052815 0.6348902
| 24> C   -1.68244223 -0.38076091 -0.69933729
| 25> H   0.8902957 -0.23662942 3.05116671
| 26> H   -0.64931915 1.32632997 1.91117802
| 27> H   2.3334483 2.049094 0.49381042
| 28> H   1.5624666 2.10896108 2.0958778
| 29> H   2.90097083 0.99436729 1.81162748
| 30> H   -1.9838874 2.92850493 0.52368502
| 31> H   -0.55367443 3.71503482 1.27223694
| 32> H   -1.03319024 4.10553216 -0.37462138
| 33> H   0.06501803 -2.48835887 2.54935099
| 34> H   -1.97340815 -0.88269675 1.16736556
| 35> H   1.35894332 -2.18238651 -1.22994443
| 36> H   -1.27581166 0.20496622 -2.56712636
| 37> *
| 38>
| 39>                          ****END OF INPUT****

CARTESIAN COORDINATES (ANGSTROEM)
---------------------------------
  O      2.144716    0.143083   -1.177336
  O     -0.477804    2.481218   -2.466972
  O      0.449283   -3.701713    0.452296
  O     -2.413892   -1.259686   -1.089357
  N      0.445539   -1.896700    1.829220
  N     -1.468956   -0.178870    0.642077
  N      1.106722   -1.690299   -0.385443
  N     -1.058351    0.453928   -1.620491
  C      1.058220    0.374811    0.935039
  C     -0.053896    2.362235   -0.325642
  C      0.563306   -0.501149    2.051428
  C     -0.395922    0.432356    1.358035
  C      2.022717    1.460597    1.352691
  C     -0.958275    3.293787    0.355968
  C      1.482724   -0.365115   -0.305974
  C     -0.576049    1.740977   -1.501418
  C      0.639659   -2.520528    0.634890
  C     -1.682442   -0.380761   -0.699337
  H      0.890296   -0.236629    3.051167
  H     -0.649319    1.326330    1.911178
  H      2.333448    2.049094    0.493810
  H      1.562467    2.108961    2.095878
  H      2.900971    0.994367    1.811627
  H     -1.983887    2.928505    0.523685
  H     -0.553674    3.715035    1.272237
  H     -1.033190    4.105532   -0.374621
  H      0.065018   -2.488359    2.549351
  H     -1.973408   -0.882697    1.167366
  H      1.358943   -2.182387   -1.229944
  H     -1.275812    0.204966   -2.567126

 Total Charge           Charge          ....    0
 Multiplicity           Mult            ....    3
 Number of Electrons    NEL             ....  132
 Basis Dimension        Dim             ....  882

ORBITAL ENERGIES
----------------
                 SPIN UP ORBITALS
  NO   OCC          E(Eh)            E(eV)
   0   1.0000     -19.338132      -526.2173
   1   1.0000     -19.334334      -526.1140
   2   1.0000     -19.321114      -525.7542
   3   1.0000     -19.320384      -525.7344
   4   1.0000     -14.568715      -396.4349
   5   1.0000     -14.567583      -396.4041
   6   1.0000     -14.565955      -396.3598
   7   1.0000     -14.564294      -396.3146
   8   1.0000     -10.510144      -285.9956
   9   1.0000     -10.508311      -285.9457
  10   1.0000     -10.493400      -285.5399
  11   1.0000     -10.480653      -285.1931
  12   1.0000     -10.437539      -284.0199
  13   1.0000     -10.435765      -283.9716
  14   1.0000     -10.417536      -283.4756
  15   1.0000     -10.394683      -282.8537
  16   1.0000     -10.373029      -282.2645
  17   1.0000     -10.370720      -282.2016
  18   1.0000      -1.227291       -33.3963
  19   1.0000      -1.220605       -33.2143
  20   1.0000      -1.203716       -32.7548
  21   1.0000      -1.201138       -32.6846
  22   1.0000      -1.130853       -30.7721
  23   1.0000      -1.090577       -29.6761
  24   1.0000      -1.074792       -29.2466
  25   1.0000      -1.063584       -28.9416
  26   1.0000      -1.016424       -27.6583
  27   1.0000      -0.937593       -25.5132
  28   1.0000      -0.881957       -23.9993
  29   1.0000      -0.823167       -22.3995
  30   1.0000      -0.819144       -22.2900
  31   1.0000      -0.810428       -22.0529
  32   1.0000      -0.792235       -21.5578
  33   1.0000      -0.774247       -21.0683
  34   1.0000      -0.729387       -19.8476
  35   1.0000      -0.702645       -19.1199
  36   1.0000      -0.695373       -18.9220
  37   1.0000      -0.666607       -18.1393
  38   1.0000      -0.642232       -17.4760
  39   1.0000      -0.630660       -17.1611
  40   1.0000      -0.614187       -16.7129
  41   1.0000      -0.610684       -16.6176
  42   1.0000      -0.598767       -16.2933
  43   1.0000      -0.590830       -16.0773
  44   1.0000      -0.579940       -15.7810
  45   1.0000      -0.569195       -15.4886
  46   1.0000      -0.564797       -15.3689
  47   1.0000      -0.562385       -15.3033
  48   1.0000      -0.555793       -15.1239
  49   1.0000      -0.552322       -15.0294
  50   1.0000      -0.546086       -14.8597
  51   1.0000      -0.543259       -14.7828
  52   1.0000      -0.535023       -14.5587
  53   1.0000      -0.513800       -13.9812
  54   1.0000      -0.505903       -13.7663
  55   1.0000      -0.481386       -13.0992
  56   1.0000      -0.452887       -12.3237
  57   1.0000      -0.428924       -11.6716
  58   1.0000      -0.419403       -11.4125
  59   1.0000      -0.409581       -11.1453
  60   1.0000      -0.404398       -11.0042
  61   1.0000      -0.400189       -10.8897
  62   1.0000      -0.394412       -10.7325
  63   1.0000      -0.390317       -10.6211
  64   1.0000      -0.380022       -10.3409
  65   1.0000      -0.369632       -10.0582
  66   1.0000      -0.297391        -8.0924
  67   0.0000       0.008912         0.2425
  68   0.0000       0.029478         0.8021
  69   0.0000       0.031913         0.8684
  70   0.0000       0.036767         1.0005
  71   0.0000       0.045880         1.2485

                 SPIN DOWN ORBITALS
  NO   OCC          E(Eh)            E(eV)
   0   1.0000     -19.338064      -526.2155
   1   1.0000     -19.328752      -525.9621
   2   1.0000     -19.321162      -525.7556
   3   1.0000     -19.320383      -525.7343
   4   1.0000     -14.568681      -396.4340
   5   1.0000     -14.567502      -396.4019
   6   1.0000     -14.565859      -396.3572
   7   1.0000     -14.564275      -396.3141
   8   1.0000     -10.510161      -285.9960
   9   1.0000     -10.508314      -285.9458
  10   1.0000     -10.493404      -285.5400
  11   1.0000     -10.481231      -285.2088
  12   1.0000     -10.437124      -284.0086
  13   1.0000     -10.435421      -283.9622
  14   1.0000     -10.416939      -283.4593
  15   1.0000     -10.373379      -282.2740
  16   1.0000     -10.370414      -282.1933
  17   1.0000     -10.367030      -282.1012
  18   1.0000      -1.226866       -33.3847
  19   1.0000      -1.219403       -33.1816
  20   1.0000      -1.203397       -32.7461
  21   1.0000      -1.193465       -32.4758
  22   1.0000      -1.130269       -30.7562
  23   1.0000      -1.089795       -29.6548
  24   1.0000      -1.073635       -29.2151
  25   1.0000      -1.062972       -28.9249
  26   1.0000      -1.015080       -27.6217
  27   1.0000      -0.909042       -24.7363
  28   1.0000      -0.880800       -23.9678
  29   1.0000      -0.822620       -22.3846
  30   1.0000      -0.815154       -22.1815
  31   1.0000      -0.804407       -21.8890
  32   1.0000      -0.788676       -21.4610
  33   1.0000      -0.769464       -20.9382
  34   1.0000      -0.724507       -19.7148
  35   1.0000      -0.700654       -19.0658
  36   1.0000      -0.686630       -18.6842
  37   1.0000      -0.665781       -18.1168
  38   1.0000      -0.635070       -17.2811
  39   1.0000      -0.627040       -17.0626
  40   1.0000      -0.611819       -16.6484
  41   1.0000      -0.607043       -16.5185
  42   1.0000      -0.589057       -16.0291
  43   1.0000      -0.581367       -15.8198
  44   1.0000      -0.576249       -15.6805
  45   1.0000      -0.563167       -15.3246
  46   1.0000      -0.560465       -15.2510
  47   1.0000      -0.553765       -15.0687
  48   1.0000      -0.551822       -15.0158
  49   1.0000      -0.549687       -14.9578
  50   1.0000      -0.540523       -14.7084
  51   1.0000      -0.530808       -14.4440
  52   1.0000      -0.528718       -14.3871
  53   1.0000      -0.511996       -13.9321
  54   1.0000      -0.494538       -13.4571
  55   1.0000      -0.480209       -13.0672
  56   1.0000      -0.444618       -12.0987
  57   1.0000      -0.421979       -11.4826
  58   1.0000      -0.418311       -11.3828
  59   1.0000      -0.405943       -11.0463
  60   1.0000      -0.400337       -10.8937
  61   1.0000      -0.392645       -10.6844
  62   1.0000      -0.388678       -10.5765
  63   1.0000      -0.381863       -10.3910
  64   1.0000      -0.368794       -10.0354
  65   0.0000      -0.050003        -1.3607
  66   0.0000       0.008470         0.2305
  67   0.0000       0.026226         0.7136
  68   0.0000       0.031511         0.8575
  69   0.0000       0.036123         0.9830

----------------------------------------------------------------------------------------------------
          SPIN FLIP ABSORPTION SPECTRUM VIA TRANSITION ELECTRIC DIPOLE MOMENTS
----------------------------------------------------------------------------------------------------
     Transition      Energy     Energy  Wavelength fosc(D2)      D2        DX        DY        DZ
                      (eV)      (cm-1)    (nm)                 (au**2)    (au)      (au)      (au)
----------------------------------------------------------------------------------------------------
  1-3A  ->  2-3A    1.967239   15866.9   630.2   0.000255304   0.00530   0.01774   0.04011  -0.05808

Dispersion correction             ... done (  0.1 sec)

MULLIKEN ATOMIC CHARGES AND SPIN DENSITIES
------------------------------------------
   0 O :   -0.623456   -0.000969
   1 O :   -0.633087   -0.031442
   2 O :   -0.654586   -0.000077
   3 O :   -0.663018   -0.000372
   4 N :   -0.125976    0.000451
   5 N :   -0.102946    0.001981
   6 N :    0.013614    0.001018
   7 N :    0.061028   -0.006356
   8 C :    1.830265   -0.094756
   9 C :    0.450203    0.112094
  10 C :   -0.413991   -0.020848
  11 C :   -0.729728   -0.007441
  12 C :   -1.596007    0.049865
  13 C :   -1.256913    0.126315
  14 C :   -0.016566   -0.004036
  15 C :    0.334090   -0.115435
  16 C :    0.454823    0.001793
  17 C :    0.577806    0.001764
  18 H :    0.236197    0.002609
  19 H :    0.454200    0.007562
  20 H :    0.370862   -0.024336
  21 H :    0.329167    0.001410
  22 H :    0.453292   -0.014631
  23 H :    0.348257   -0.002983
  24 H :    0.295879    0.022808
  25 H :    0.417022   -0.011837
  26 H :    0.040956   -0.000133
  27 H :    0.093947   -0.000392
  28 H :    0.041725   -0.000275
  29 H :    0.012940    0.006651
Sum of atomic charges       :    0.0000000

LOEWDIN ATOMIC CHARGES AND SPIN DENSITIES
-----------------------------------------
   0 O :    0.124409   -0.002393
   1 O :    0.103184   -0.033825
   2 O :    0.093565   -0.000011
   3 O :    0.097400   -0.000337
   4 N :    0.288403    0.000062
   5 N :    0.289925    0.000136
   6 N :    0.342740   -0.000028
   7 N :    0.339505   -0.000194
   8 C :   -0.236216   -0.000111
   9 C :    0.163220    0.055437
  10 C :   -0.046370    0.000351
  11 C :   -0.082554    0.000490
  12 C :    0.180100   -0.007218
  13 C :    0.115512    0.002432
  14 C :   -0.370602   -0.000384
  15 C :   -0.506693   -0.009715
  16 C :   -0.474501    0.000003
  17 C :   -0.477845   -0.000261
  18 H :    0.060380    0.000001
  19 H :    0.029445    0.000114
  20 H :   -0.013102   -0.003383
  21 H :    0.001793   -0.000303
  22 H :    0.013420   -0.001369
  23 H :    0.012556    0.000548
  24 H :   -0.012578    0.000053
  25 H :    0.021361   -0.000034
  26 H :   -0.020355   -0.000013
  27 H :   -0.019733   -0.000034
  28 H :   -0.002246    0.000002
  29 H :   -0.014121   -0.000016

  Mayer bond orders larger than 0.100000
B(  0-O ,  8-C ) :  -0.1795 B(  0-O , 14-C ) :   1.6477 B(  1-O ,  9-C ) :   0.2815
B(  1-O , 15-C ) :   1.1705 B(  2-O , 16-C ) :   1.5646 B(  3-O , 17-C ) :   1.4713
B(  4-N , 10-C ) :   0.6544 B(  4-N , 11-C ) :  -0.1188 B(  4-N , 16-C ) :   1.1018
B(  4-N , 26-H ) :   1.1212 B(  5-N , 10-C ) :  -0.1056 B(  5-N , 11-C ) :   0.7556
B(  5-N , 17-C ) :   0.9325 B(  5-N , 19-H ) :  -0.1203 B(  5-N , 27-H ) :   1.0648
B(  6-N , 14-C ) :   1.0469 B(  6-N , 16-C ) :   0.9422 B(  6-N , 28-H ) :   1.1019
B(  7-N , 15-C ) :   0.9529 B(  7-N , 17-C ) :   0.9819 B(  7-N , 29-H ) :   1.1240
B(  8-C ,  9-C ) :   0.2813 B(  8-C , 10-C ) :   0.5071 B(  8-C , 11-C ) :  -0.1495
B(  8-C , 12-C ) :   0.2355 B(  8-C , 14-C ) :   0.1418 B(  8-C , 21-H ) :  -0.1055
B(  9-C , 11-C ) :  -0.1636 B(  9-C , 12-C ) :  -0.2321 B(  9-C , 13-C ) :   0.4348
B(  9-C , 15-C ) :   0.9694 B(  9-C , 20-H ) :  -0.1457 B( 10-C , 11-C ) :   0.5977
B( 10-C , 16-C ) :  -0.1071 B( 10-C , 18-H ) :   1.1721 B( 11-C , 19-H ) :   1.0623
B( 12-C , 14-C ) :   0.1085 B( 12-C , 20-H ) :   0.9793 B( 12-C , 21-H ) :   1.0319
B( 12-C , 22-H ) :   0.7236 B( 13-C , 23-H ) :   0.9250 B( 13-C , 24-H ) :   1.0858
B( 13-C , 25-H ) :   0.8565 B( 15-C , 17-C ) :  -0.1380

Dispersion correction           -0.059771573
FINAL SINGLE POINT ENERGY      -908.732068607308

DIPOLE MOMENT
-------------

Method             : TDA/CIS
Type of density    : Electron Density
Level              : Relaxed density
State              :   1
Multiplicity       :   3
Irrep              :   0
Energy             :     0.0000000000000000 Eh
Relativity type    :
Basis              : AO
                                X                 Y                 Z
Electronic contribution:     -1.404804516      -9.884263613      -7.453473966
Nuclear contribution   :      1.150323205      10.924714663      10.201370320
                        -----------------------------------------
Total Dipole Moment    :     -0.254481311       1.040451050       2.747896354
                        -----------------------------------------
Magnitude (a.u.)       :      2.949276775
Magnitude (Debye)      :      7.496465809

Rotational constants in cm-1:             0.022276             0.013885             0.012070
Rotational constants in MHz :           667.831212           416.276475           361.836396

                             ****ORCA TERMINATED NORMALLY****
TOTAL RUN TIME: 0 days 0 hours 4 minutes 37 seconds 703 msec
