                         Program Version 6.0.0  -   RELEASE  -
|  1> ! Engrad def2-TZVPPD wB97M-D3BJ
|  2> %pal nprocs 8 end%pal nprocs 64 end
|  3> %tddft
|  4>  Iroot 1 Nroots 3
|  5> sf true
|  6> end
|  7> *xyz 0 3
|  8> O   -0.71399016 0.35069301 -0.06258161
|  9> C   0.62393982 0.51459782 0.19697987
| 10> C   1.42834257 -0.74483435 0.09764232
| 11> H   0.60284808 0.90643918 1.23679897
| 12> H   1.00574651 1.32548647 -0.42220405
| 13> H   1.12228619 -1.69779998 0.44918364
| 14> H   2.2431737 -0.59981022 -0.56305713
| 15> *
| 16>
| 17>                          ****END OF INPUT****

CARTESIAN COORDINATES (ANGSTROEM)
---------------------------------
  O     -0.713990    0.350693   -0.062582
  C      0.623940    0.514598    0.196980
  C      1.428343   -0.744834    0.097642
  H      0.602848    0.906439    1.236799
  H      1.005747    1.325486   -0.422204
  H      1.122286   -1.697800    0.449184
  H      2.243174   -0.599810   -0.563057

 Total Charge           Charge          ....    0
 Multiplicity           Mult            ....    3
 Number of Electrons    NEL             ....   24
 Basis Dimension        Dim             ....  182

ORBITAL ENERGIES
----------------
                 SPIN UP ORBITALS
  NO   OCC          E(Eh)            E(eV)
   0   1.0000     -19.384293      -527.4734
   1   1.0000     -10.412158      -283.3292
   2   1.0000     -10.367245      -282.1071
   3   1.0000      -1.165398       -31.7121
   4   1.0000      -0.877184       -23.8694
   5   1.0000      -0.738190       -20.0872
   6   1.0000      -0.619612       -16.8605
   7   1.0000      -0.582025       -15.8377
   8   1.0000      -0.555262       -15.1095
   9   1.0000      -0.524406       -14.2698
  10   1.0000      -0.434960       -11.8359
  11   1.0000      -0.411934       -11.2093
  12   1.0000      -0.328770        -8.9463
  13   0.0000       0.041685         1.1343
  14   0.0000       0.061056         1.6614
  15   0.0000       0.077919         2.1203
  16   0.0000       0.088320         2.4033
  17   0.0000       0.114109         3.1051

                 SPIN DOWN ORBITALS
  NO   OCC          E(Eh)            E(eV)
   0   1.0000     -19.360309      -526.8208
   1   1.0000     -10.413440      -283.3641
   2   1.0000     -10.353906      -281.7441
   3   1.0000      -1.111844       -30.2548
   4   1.0000      -0.843454       -22.9515
   5   1.0000      -0.711113       -19.3504
   6   1.0000      -0.592444       -16.1212
   7   1.0000      -0.542236       -14.7550
   8   1.0000      -0.533341       -14.5130
   9   1.0000      -0.495511       -13.4836
  10   1.0000      -0.381059       -10.3691
  11   0.0000      -0.048591        -1.3222
  12   0.0000      -0.005116        -0.1392
  13   0.0000       0.040999         1.1156
  14   0.0000       0.061232         1.6662
  15   0.0000       0.077880         2.1192

----------------------------------------------------------------------------------------------------
          SPIN FLIP ABSORPTION SPECTRUM VIA TRANSITION ELECTRIC DIPOLE MOMENTS
----------------------------------------------------------------------------------------------------
     Transition      Energy     Energy  Wavelength fosc(D2)      D2        DX        DY        DZ
                      (eV)      (cm-1)    (nm)                 (au**2)    (au)      (au)      (au)
----------------------------------------------------------------------------------------------------
  1-3A  ->  2-3A    0.071429     576.1  17357.8   0.000104303   0.05960  -0.20896   0.12247   0.03066
  1-3A  ->  3-3A    0.866941    6992.3  1430.1   0.004793207   0.22567  -0.46109   0.07411  -0.08706

Dispersion correction             ... done (  0.2 sec)

MULLIKEN ATOMIC CHARGES AND SPIN DENSITIES
------------------------------------------
   0 O :   -0.420658   -0.472186
   1 C :   -0.009537   -0.010135
   2 C :   -0.481104    0.384534
   3 H :    0.219696    0.086786
   4 H :    0.217910   -0.036847
   5 H :    0.278863    0.021915
   6 H :    0.194831    0.025934
Sum of atomic charges       :   -0.0000000

LOEWDIN ATOMIC CHARGES AND SPIN DENSITIES
-----------------------------------------
   0 O :   -0.030960   -0.468581
   1 C :   -0.264232    0.026755
   2 C :    0.347534    0.342733
   3 H :    0.034666    0.038462
   4 H :    0.034167   -0.027260
   5 H :   -0.053689    0.044332
   6 H :   -0.067486    0.043558

  Mayer bond orders larger than 0.100000
B(  0-O ,  1-C ) :   0.9152 B(  0-O ,  2-C ) :   0.2582 B(  1-C ,  2-C ) :   0.8006
B(  1-C ,  3-H ) :   0.9530 B(  1-C ,  4-H ) :   0.9311 B(  2-C ,  5-H ) :   0.9328
B(  2-C ,  6-H ) :   0.9924

Dispersion correction           -0.005516270
FINAL SINGLE POINT ENERGY      -153.752363412513

DIPOLE MOMENT
-------------

Method             : TDA/CIS
Type of density    : Electron Density
Level              : Relaxed density
State              :   1
Multiplicity       :   3
Irrep              :   0
Energy             :     0.0000000000000000 Eh
Relativity type    :
Basis              : AO
                                X                 Y                 Z
Electronic contribution:     -1.935790588       0.235926539      -0.277634796
Nuclear contribution   :      3.096003938      -0.294115853       0.379059695
                        -----------------------------------------
Total Dipole Moment    :      1.160213349      -0.058189314       0.101424899
                        -----------------------------------------
Magnitude (a.u.)       :      1.166090915
Magnitude (Debye)      :      2.963967556

Rotational constants in cm-1:             1.445615             0.347998             0.305255
Rotational constants in MHz :         43338.458973         10432.728480          9151.320391

                             ****ORCA TERMINATED NORMALLY****
TOTAL RUN TIME: 0 days 0 hours 0 minutes 26 seconds 606 msec
