                         Program Version 6.0.0  -   RELEASE  -
|  1> ! EnGrad wB97M-D3BJ def2-TZVPPD
|  2> %pal nprocs 8 end%pal nprocs 16 end
|  3> %tddft
|  4>  sf true
|  5>  nroots 2 Iroot 2 end
|  6> *xyz 0 3
|  7> O   0.41076519871965 1.05250298503834 -0.0028477176855
|  8> C   0.61640312409633 -0.27025255200108 -0.00051692554639
|  9> C   -0.74469462539637 -0.73457570445848 0.00084804423998
| 10> H   1.16816173644992 -0.62809624018413 0.88192597161139
| 11> H   1.16771315863365 -0.63137124079572 -0.88188808163224
| 12> H   -1.30864395644135 -0.75527875417567 -0.92207978100314
| 13> H   -1.30750463606182 -0.75132849342327 0.92455849001589
| 14> *
| 15>
| 16>                          ****END OF INPUT****

CARTESIAN COORDINATES (ANGSTROEM)
---------------------------------
  O      0.410765    1.052503   -0.002848
  C      0.616403   -0.270253   -0.000517
  C     -0.744695   -0.734576    0.000848
  H      1.168162   -0.628096    0.881926
  H      1.167713   -0.631371   -0.881888
  H     -1.308644   -0.755279   -0.922080
  H     -1.307505   -0.751328    0.924558

 Total Charge           Charge          ....    0
 Multiplicity           Mult            ....    3
 Number of Electrons    NEL             ....   24
 Basis Dimension        Dim             ....  182

ORBITAL ENERGIES
----------------
                 SPIN UP ORBITALS
  NO   OCC          E(Eh)            E(eV)
   0   1.0000     -19.396848      -527.8151
   1   1.0000     -10.406955      -283.1876
   2   1.0000     -10.349420      -281.6220
   3   1.0000      -1.195671       -32.5359
   4   1.0000      -0.873964       -23.7818
   5   1.0000      -0.735977       -20.0269
   6   1.0000      -0.636068       -17.3083
   7   1.0000      -0.595877       -16.2146
   8   1.0000      -0.554979       -15.1017
   9   1.0000      -0.513695       -13.9784
  10   1.0000      -0.440744       -11.9933
  11   1.0000      -0.425270       -11.5722
  12   1.0000      -0.305880        -8.3234
  13   0.0000       0.041194         1.1210
  14   0.0000       0.063395         1.7251
  15   0.0000       0.073677         2.0048
  16   0.0000       0.086845         2.3632
  17   0.0000       0.117349         3.1932

                 SPIN DOWN ORBITALS
  NO   OCC          E(Eh)            E(eV)
   0   1.0000     -19.370731      -527.1044
   1   1.0000     -10.408257      -283.2231
   2   1.0000     -10.336600      -281.2732
   3   1.0000      -1.138941       -30.9921
   4   1.0000      -0.840190       -22.8627
   5   1.0000      -0.712593       -19.3906
   6   1.0000      -0.596686       -16.2367
   7   1.0000      -0.562061       -15.2944
   8   1.0000      -0.532996       -14.5036
   9   1.0000      -0.477117       -12.9830
  10   1.0000      -0.384550       -10.4641
  11   0.0000      -0.066797        -1.8176
  12   0.0000       0.012922         0.3516
  13   0.0000       0.040056         1.0900
  14   0.0000       0.064100         1.7442
  15   0.0000       0.073089         1.9889

----------------------------------------------------------------------------------------------------
          SPIN FLIP ABSORPTION SPECTRUM VIA TRANSITION ELECTRIC DIPOLE MOMENTS
----------------------------------------------------------------------------------------------------
     Transition      Energy     Energy  Wavelength fosc(D2)      D2        DX        DY        DZ
                      (eV)      (cm-1)    (nm)                 (au**2)    (au)      (au)      (au)
----------------------------------------------------------------------------------------------------
  1-3A  ->  2-3A    1.255240   10124.2   987.7   0.000229296   0.00746  -0.00009  -0.00023  -0.08635

Dispersion correction             ... done (  0.0 sec)

MULLIKEN ATOMIC CHARGES AND SPIN DENSITIES
------------------------------------------
   0 O :   -0.325528    0.774669
   1 C :    0.106407    0.316776
   2 C :   -0.437856   -0.894780
   3 H :    0.200666    0.014517
   4 H :    0.200716    0.014468
   5 H :    0.127777   -0.112882
   6 H :    0.127818   -0.112768
Sum of atomic charges       :   -0.0000000

LOEWDIN ATOMIC CHARGES AND SPIN DENSITIES
-----------------------------------------
   0 O :    0.097549    0.709751
   1 C :   -0.291227    0.034011
   2 C :    0.246036   -0.629793
   3 H :    0.040262    0.030002
   4 H :    0.040234    0.029971
   5 H :   -0.066430   -0.086980
   6 H :   -0.066423   -0.086963

  Mayer bond orders larger than 0.100000
B(  0-O ,  1-C ) :   0.9192 B(  0-O ,  2-C ) :   0.1246 B(  1-C ,  2-C ) :   0.5983
B(  1-C ,  3-H ) :   0.9717 B(  1-C ,  4-H ) :   0.9717 B(  2-C ,  5-H ) :   1.1171
B(  2-C ,  6-H ) :   1.1169

Dispersion correction           -0.005655426
FINAL SINGLE POINT ENERGY      -153.738265772430

DIPOLE MOMENT
-------------

Method             : TDA/CIS
Type of density    : Electron Density
Level              : Relaxed density
State              :   2
Multiplicity       :   3
Irrep              :   0
Energy             :     0.0000000000000000 Eh
Relativity type    :
Basis              : AO
                                X                 Y                 Z
Electronic contribution:      0.930123642       2.371340210      -0.005053567
Nuclear contribution   :     -0.662963919      -2.748987517       0.005658257
                        -----------------------------------------
Total Dipole Moment    :      0.267159723      -0.377647307       0.000604690
                        -----------------------------------------
Magnitude (a.u.)       :      0.462592879
Magnitude (Debye)      :      1.175817656

Rotational constants in cm-1:             1.184859             0.433432             0.362159
Rotational constants in MHz :         35521.179971         12993.974955         10857.258499

                             ****ORCA TERMINATED NORMALLY****
TOTAL RUN TIME: 0 days 0 hours 0 minutes 16 seconds 539 msec
