                         Program Version 6.0.0  -   RELEASE  -
|  1> ! Opt wB97M-D3BJ def2-TZVPPD
|  2> %pal nprocs 8 end %pal nprocs 64 end
|  3> %geom
|  4> Constraints
|  5>     {A 2 1 0 150.0 C }
|  6> end
|  7> MaxIter 200
|  8> end
|  9> *xyz 0 1
| 10> O   1.9917749505940918 0.3111324107703818 0.0
| 11> C   0.7509 -0.4065 0.0
| 12> C   -0.7502 -0.4076 0.0
| 13> H   1.2625 -0.6786 0.9136
| 14> H   1.2625 -0.6787 -0.9136
| 15> H   -1.2614 -0.6806 -0.9136
| 16> H   -1.2614 -0.6805 0.9136
| 17> *
| 18>
| 19>                          ****END OF INPUT****
 Total Charge           Charge          ....    0
 Multiplicity           Mult            ....    1
 Number of Electrons    NEL             ....   24
Dispersion correction           -0.005268405
FINAL SINGLE POINT ENERGY      -153.674037826923
Dispersion correction             ... done (  0.1 sec)
Dispersion correction           -0.005375549
FINAL SINGLE POINT ENERGY      -153.699046820479
Dispersion correction             ... done (  0.1 sec)
Dispersion correction           -0.005447127
FINAL SINGLE POINT ENERGY      -153.709803737294
Dispersion correction             ... done (  0.1 sec)
FINAL SINGLE POINT ENERGY      -153.717229043659
FINAL SINGLE POINT ENERGY      -153.724759132252
FINAL SINGLE POINT ENERGY      -153.734512086837
FINAL SINGLE POINT ENERGY      -153.741740734603
FINAL SINGLE POINT ENERGY      -153.760979549365
FINAL SINGLE POINT ENERGY      -153.791407436228
FINAL SINGLE POINT ENERGY      -153.813522331841
FINAL SINGLE POINT ENERGY      -153.904512277620
FINAL SINGLE POINT ENERGY      -153.905630353512
FINAL SINGLE POINT ENERGY      -153.905672254071
FINAL SINGLE POINT ENERGY      -153.905867888363
FINAL SINGLE POINT ENERGY      -153.905963110165
FINAL SINGLE POINT ENERGY      -153.906087239122
FINAL SINGLE POINT ENERGY      -153.906149033707
Dispersion correction             ... done (  0.1 sec)
Dispersion correction           -0.005482928
FINAL SINGLE POINT ENERGY      -153.906166265495
Dispersion correction             ... done (  0.1 sec)
Dispersion correction           -0.005484063
FINAL SINGLE POINT ENERGY      -153.906169161963
Dispersion correction             ... done (  0.1 sec)
                    ***********************HURRAY********************

CARTESIAN COORDINATES (ANGSTROEM)
---------------------------------
  O      1.796484    0.855370    0.069116
  C      0.992175   -0.029332    0.170101
  C     -0.303992   -0.668173   -0.253747
  H      1.322601   -0.773935    0.953851
  H     -0.033489   -1.673171   -0.571566
  H     -0.891097   -0.174889   -1.027906
  H     -0.888008   -0.757237    0.660150

 Multiplicity           Mult            ....    1
 Number of Electrons    NEL             ....   24
 Basis Dimension        Dim             ....  182

ORBITAL ENERGIES
----------------

  NO   OCC          E(Eh)            E(eV)
   0   2.0000     -19.345751      -526.4247
   1   2.0000     -10.448834      -284.3272
   2   2.0000     -10.374119      -282.2941
   3   2.0000      -1.191335       -32.4179
   4   2.0000      -0.901662       -24.5355
   5   2.0000      -0.693213       -18.8633
   6   2.0000      -0.594622       -16.1805
   7   2.0000      -0.569804       -15.5052
   8   2.0000      -0.563638       -15.3374
   9   2.0000      -0.511959       -13.9311
  10   2.0000      -0.483993       -13.1701
  11   2.0000      -0.354705        -9.6520
  12   0.0000       0.031652         0.8613
  13   0.0000       0.058329         1.5872
  14   0.0000       0.059061         1.6071
  15   0.0000       0.080463         2.1895
  16   0.0000       0.084470         2.2986

MULLIKEN ATOMIC CHARGES
-----------------------
   0 O :   -0.453797
   1 C :    0.219254
   2 C :   -0.684018
   3 H :    0.177469
   4 H :    0.248972
   5 H :    0.242891
   6 H :    0.249229
Sum of atomic charges:    0.0000000

LOEWDIN ATOMIC CHARGES
----------------------
   0 O :    0.077822
   1 C :   -0.240057
   2 C :    0.171758
   3 H :    0.014706
   4 H :   -0.005845
   5 H :   -0.012536
   6 H :   -0.005848

  Mayer bond orders larger than 0.100000
B(  0-O ,  1-C ) :   1.7782 B(  1-C ,  2-C ) :   0.7645 B(  1-C ,  3-H ) :   1.0340
B(  2-C ,  4-H ) :   0.9771 B(  2-C ,  5-H ) :   0.9689 B(  2-C ,  6-H ) :   0.9767

Dispersion correction           -0.005484331
FINAL SINGLE POINT ENERGY      -153.906169696725

DIPOLE MOMENT
-------------

Method             : SCF
Type of density    : Electron Density
Multiplicity       :   1
Irrep              :   0
Energy             :  -153.9006853654187239 Eh
Relativity type    :
Basis              : AO
                                X                 Y                 Z
Electronic contribution:      2.647412470       2.483234600      -0.011715532
Nuclear contribution   :     -3.555860027      -3.320248506       0.004752586
                        -----------------------------------------
Total Dipole Moment    :     -0.908447557      -0.837013906      -0.006962946
                        -----------------------------------------
Magnitude (a.u.)       :      1.235280424
Magnitude (Debye)      :      3.139833311

Rotational constants in cm-1:             2.771207             0.290079             0.275965
Rotational constants in MHz :         83078.691370          8696.341487          8273.215068

                             ****ORCA TERMINATED NORMALLY****
TOTAL RUN TIME: 0 days 0 hours 5 minutes 52 seconds 312 msec
