                         Program Version 6.0.0  -   RELEASE  -
|  1> ! Engrad wB97M-D3BJ def2-TZVPPD
|  2> %pal nprocs 8 end%pal nprocs 16 end
|  3> %tddft nroots 2 Iroot 1
|  4>  sf true
|  5> end
|  6> *xyz 0 3
|  7> O   0.18335325050739 0.86323335788563 -0.00011587997742
|  8> C   0.72456665082955 -0.39280727052312 3.624717183e-05
|  9> C   -0.69358324081742 -0.49169076765207 -8.257840948e-05
| 10> H   1.26464779709197 -0.67806437177246 0.90234069510871
| 11> H   1.26466141424854 -0.67814718276658 -0.90224834928315
| 12> H   -1.23269026458343 -0.60491025208333 -0.92583832728184
| 13> H   -1.23244144828648 -0.60425620477951 0.92590819267135
| 14> *
| 15>
| 16>                          ****END OF INPUT****

CARTESIAN COORDINATES (ANGSTROEM)
---------------------------------
  O      0.183353    0.863233   -0.000116
  C      0.724567   -0.392807    0.000036
  C     -0.693583   -0.491691   -0.000083
  H      1.264648   -0.678064    0.902341
  H      1.264661   -0.678147   -0.902248
  H     -1.232690   -0.604910   -0.925838
  H     -1.232441   -0.604256    0.925908

 Total Charge           Charge          ....    0
 Multiplicity           Mult            ....    3
 Number of Electrons    NEL             ....   24
 Basis Dimension        Dim             ....  182

ORBITAL ENERGIES
----------------
                 SPIN UP ORBITALS
  NO   OCC          E(Eh)            E(eV)
   0   1.0000     -19.450932      -529.2868
   1   1.0000     -10.416310      -283.4422
   2   1.0000     -10.347567      -281.5716
   3   1.0000      -1.272660       -34.6308
   4   1.0000      -0.860260       -23.4089
   5   1.0000      -0.766110       -20.8469
   6   1.0000      -0.674895       -18.3648
   7   1.0000      -0.638353       -17.3705
   8   1.0000      -0.560491       -15.2517
   9   1.0000      -0.500211       -13.6114
  10   1.0000      -0.487534       -13.2665
  11   1.0000      -0.465696       -12.6722
  12   1.0000      -0.173135        -4.7112
  13   0.0000       0.038243         1.0407
  14   0.0000       0.062399         1.6980
  15   0.0000       0.071212         1.9378
  16   0.0000       0.086895         2.3645
  17   0.0000       0.111502         3.0341

                 SPIN DOWN ORBITALS
  NO   OCC          E(Eh)            E(eV)
   0   1.0000     -19.418174      -528.3954
   1   1.0000     -10.416796      -283.4554
   2   1.0000     -10.337362      -281.2939
   3   1.0000      -1.205767       -32.8106
   4   1.0000      -0.825895       -22.4737
   5   1.0000      -0.746957       -20.3257
   6   1.0000      -0.622181       -16.9304
   7   1.0000      -0.604318       -16.4443
   8   1.0000      -0.524045       -14.2600
   9   1.0000      -0.475837       -12.9482
  10   1.0000      -0.426689       -11.6108
  11   0.0000      -0.104230        -2.8363
  12   0.0000       0.033917         0.9229
  13   0.0000       0.058112         1.5813
  14   0.0000       0.060230         1.6389
  15   0.0000       0.065725         1.7885

----------------------------------------------------------------------------------------------------
          SPIN FLIP ABSORPTION SPECTRUM VIA TRANSITION ELECTRIC DIPOLE MOMENTS
----------------------------------------------------------------------------------------------------
     Transition      Energy     Energy  Wavelength fosc(D2)      D2        DX        DY        DZ
                      (eV)      (cm-1)    (nm)                 (au**2)    (au)      (au)      (au)
----------------------------------------------------------------------------------------------------
  1-3A  ->  2-3A    5.648162   45555.5   219.5   0.006186463   0.04471   0.00013   0.00005  -0.21144

Dispersion correction             ... done (  0.0 sec)

MULLIKEN ATOMIC CHARGES AND SPIN DENSITIES
------------------------------------------
   0 O :   -0.401240    0.064184
   1 C :   -0.113020   -0.099370
   2 C :   -0.448004    0.020235
   3 H :    0.199832    0.023651
   4 H :    0.199821    0.023652
   5 H :    0.281309   -0.016185
   6 H :    0.281302   -0.016166
Sum of atomic charges       :    0.0000000

LOEWDIN ATOMIC CHARGES AND SPIN DENSITIES
-----------------------------------------
   0 O :   -0.062382    0.025020
   1 C :   -0.170673   -0.009077
   2 C :    0.167120   -0.011900
   3 H :    0.025265    0.004000
   4 H :    0.025269    0.004002
   5 H :    0.007708   -0.006022
   6 H :    0.007693   -0.006023

  Mayer bond orders larger than 0.100000
B(  0-O ,  1-C ) :   0.7886 B(  0-O ,  2-C ) :   0.8841 B(  1-C ,  2-C ) :   0.7415
B(  1-C ,  3-H ) :   1.0311 B(  1-C ,  4-H ) :   1.0310 B(  2-C ,  5-H ) :   0.9186
B(  2-C ,  6-H ) :   0.9187

Dispersion correction           -0.005240538
FINAL SINGLE POINT ENERGY      -153.858380676521

DIPOLE MOMENT
-------------

Method             : TDA/CIS
Type of density    : Electron Density
Level              : Relaxed density
State              :   1
Multiplicity       :   3
Irrep              :   0
Energy             :     0.0000000000000000 Eh
Relativity type    :
Basis              : AO
                                X                 Y                 Z
Electronic contribution:     -0.014509751       1.270631202      -0.000272204
Nuclear contribution   :     -0.225312991      -2.445431715       0.000342631
                        -----------------------------------------
Total Dipole Moment    :     -0.239822742      -1.174800513       0.000070427
                        -----------------------------------------
Magnitude (a.u.)       :      1.199029273
Magnitude (Debye)      :      3.047690209

Rotational constants in cm-1:             0.890962             0.679640             0.455790
Rotational constants in MHz :         26710.376300         20375.090246         13664.253372

                             ****ORCA TERMINATED NORMALLY****
TOTAL RUN TIME: 0 days 0 hours 0 minutes 17 seconds 864 msec
