                         Program Version 6.0.0  -   RELEASE  -
|  1> ! EnGrad wB97M-D3BJ def2-TZVPPD
|  2> %pal nprocs 8 end%pal nprocs 16 end
|  3> %tddft
|  4>  sf true
|  5>  nroots 2 Iroot 1 end
|  6> *xyz 0 3
|  7> O   0.38766066202846 1.03940717514858 -0.00273451289665
|  8> C   0.62044238125678 -0.27870899382023 -0.00052625709514
|  9> C   -0.74321329525325 -0.72697768677698 0.0007605376617
| 10> H   1.17356751334213 -0.63040701484713 0.88287020998704
| 11> H   1.1733942869602 -0.63346092096028 -0.88278053966068
| 12> H   -1.30548811206398 -0.74611039369864 -0.92264587269992
| 13> H   -1.30416343627033 -0.74214216504532 0.92505643470365
| 14> *
| 15>
| 16>                          ****END OF INPUT****

CARTESIAN COORDINATES (ANGSTROEM)
---------------------------------
  O      0.387661    1.039407   -0.002735
  C      0.620442   -0.278709   -0.000526
  C     -0.743213   -0.726978    0.000761
  H      1.173568   -0.630407    0.882870
  H      1.173394   -0.633461   -0.882781
  H     -1.305488   -0.746110   -0.922646
  H     -1.304163   -0.742142    0.925056

 Total Charge           Charge          ....    0
 Multiplicity           Mult            ....    3
 Number of Electrons    NEL             ....   24
 Basis Dimension        Dim             ....  182

ORBITAL ENERGIES
----------------
                 SPIN UP ORBITALS
  NO   OCC          E(Eh)            E(eV)
   0   1.0000     -19.398360      -527.8562
   1   1.0000     -10.406852      -283.1848
   2   1.0000     -10.347617      -281.5730
   3   1.0000      -1.198359       -32.6090
   4   1.0000      -0.872743       -23.7485
   5   1.0000      -0.736635       -20.0449
   6   1.0000      -0.637393       -17.3444
   7   1.0000      -0.597765       -16.2660
   8   1.0000      -0.554255       -15.0820
   9   1.0000      -0.512523       -13.9465
  10   1.0000      -0.442446       -12.0396
  11   1.0000      -0.427253       -11.6261
  12   1.0000      -0.300997        -8.1905
  13   0.0000       0.041197         1.1210
  14   0.0000       0.063470         1.7271
  15   0.0000       0.073546         2.0013
  16   0.0000       0.086690         2.3589
  17   0.0000       0.117384         3.1942

                 SPIN DOWN ORBITALS
  NO   OCC          E(Eh)            E(eV)
   0   1.0000     -19.371920      -527.1367
   1   1.0000     -10.408137      -283.2198
   2   1.0000     -10.334821      -281.2248
   3   1.0000      -1.141137       -31.0519
   4   1.0000      -0.838891       -22.8274
   5   1.0000      -0.713578       -19.4174
   6   1.0000      -0.597485       -16.2584
   7   1.0000      -0.563408       -15.3311
   8   1.0000      -0.532177       -14.4813
   9   1.0000      -0.476521       -12.9668
  10   1.0000      -0.385200       -10.4818
  11   0.0000      -0.068043        -1.8515
  12   0.0000       0.015917         0.4331
  13   0.0000       0.040017         1.0889
  14   0.0000       0.064184         1.7465
  15   0.0000       0.072873         1.9830

----------------------------------------------------------------------------------------------------
          SPIN FLIP ABSORPTION SPECTRUM VIA TRANSITION ELECTRIC DIPOLE MOMENTS
----------------------------------------------------------------------------------------------------
     Transition      Energy     Energy  Wavelength fosc(D2)      D2        DX        DY        DZ
                      (eV)      (cm-1)    (nm)                 (au**2)    (au)      (au)      (au)
----------------------------------------------------------------------------------------------------
  1-3A  ->  2-3A    1.431321   11544.4   866.2   0.000291247   0.00831  -0.00016  -0.00031  -0.09113

Dispersion correction             ... done (  0.0 sec)

MULLIKEN ATOMIC CHARGES AND SPIN DENSITIES
------------------------------------------
   0 O :   -0.532542   -0.305619
   1 C :   -0.127685   -0.048289
   2 C :   -0.293090    0.211979
   3 H :    0.231848    0.038844
   4 H :    0.231988    0.038748
   5 H :    0.244762    0.032123
   6 H :    0.244719    0.032213
Sum of atomic charges       :    0.0000000

LOEWDIN ATOMIC CHARGES AND SPIN DENSITIES
-----------------------------------------
   0 O :   -0.053846   -0.318107
   1 C :   -0.385494    0.013051
   2 C :    0.390575    0.239748
   3 H :    0.028475    0.006921
   4 H :    0.028467    0.006885
   5 H :   -0.004087    0.025747
   6 H :   -0.004090    0.025754

  Mayer bond orders larger than 0.100000
B(  0-O ,  1-C ) :   0.7745 B(  0-O ,  2-C ) :   0.7741 B(  1-C ,  2-C ) :   0.7677
B(  1-C ,  3-H ) :   1.0211 B(  1-C ,  4-H ) :   1.0209 B(  2-C ,  5-H ) :   0.9411
B(  2-C ,  6-H ) :   0.9412

Dispersion correction           -0.005663817
FINAL SINGLE POINT ENERGY      -153.788320991885

DIPOLE MOMENT
-------------

Method             : TDA/CIS
Type of density    : Electron Density
Level              : Relaxed density
State              :   1
Multiplicity       :   3
Irrep              :   0
Energy             :     0.0000000000000000 Eh
Relativity type    :
Basis              : AO
                                X                 Y                 Z
Electronic contribution:      0.047744169       1.247948234      -0.002738714
Nuclear contribution   :     -0.622382265      -2.718492294       0.005590565
                        -----------------------------------------
Total Dipole Moment    :     -0.574638095      -1.470544060       0.002851852
                        -----------------------------------------
Magnitude (a.u.)       :      1.578834034
Magnitude (Debye)      :      4.013077190

Rotational constants in cm-1:             1.160113             0.444945             0.367795
Rotational constants in MHz :         34779.304087         13339.104232         11026.229136

                             ****ORCA TERMINATED NORMALLY****
TOTAL RUN TIME: 0 days 0 hours 0 minutes 16 seconds 639 msec
