                         Program Version 6.0.0  -   RELEASE  -
|  1> ! Engrad def2-TZVPPD wB97M-D3BJ
|  2> %pal nprocs 8 end%pal nprocs 64 end
|  3> %tddft
|  4>  Iroot 1 Nroots 3
|  5> sf true
|  6> end
|  7> *xyz 0 3
|  8> O   0.79458171 -0.77433163 -0.70078338
|  9> C   0.7585554 0.10685644 0.43051219
| 10> C   -0.4154955 0.94371591 0.55612827
| 11> H   1.64093546 0.76139107 0.22475663
| 12> H   0.91970469 -0.50611426 1.36761125
| 13> H   -0.33240379 1.94364233 0.46052358
| 14> H   -1.42726551 0.57346644 0.54487249
| 15> *
| 16>
| 17>                          ****END OF INPUT****

CARTESIAN COORDINATES (ANGSTROEM)
---------------------------------
  O      0.794582   -0.774332   -0.700783
  C      0.758555    0.106856    0.430512
  C     -0.415496    0.943716    0.556128
  H      1.640935    0.761391    0.224757
  H      0.919705   -0.506114    1.367611
  H     -0.332404    1.943642    0.460524
  H     -1.427266    0.573466    0.544872

 Total Charge           Charge          ....    0
 Multiplicity           Mult            ....    3
 Number of Electrons    NEL             ....   24
 Basis Dimension        Dim             ....  182

ORBITAL ENERGIES
----------------
                 SPIN UP ORBITALS
  NO   OCC          E(Eh)            E(eV)
   0   1.0000     -19.390669      -527.6469
   1   1.0000     -10.416566      -283.4492
   2   1.0000     -10.358449      -281.8677
   3   1.0000      -1.147483       -31.2246
   4   1.0000      -0.890829       -24.2407
   5   1.0000      -0.734830       -19.9957
   6   1.0000      -0.619693       -16.8627
   7   1.0000      -0.571567       -15.5531
   8   1.0000      -0.556496       -15.1430
   9   1.0000      -0.519754       -14.1432
  10   1.0000      -0.443077       -12.0567
  11   1.0000      -0.416228       -11.3261
  12   1.0000      -0.329908        -8.9773
  13   0.0000       0.041548         1.1306
  14   0.0000       0.062168         1.6917
  15   0.0000       0.077263         2.1024
  16   0.0000       0.088317         2.4032
  17   0.0000       0.114611         3.1187

                 SPIN DOWN ORBITALS
  NO   OCC          E(Eh)            E(eV)
   0   1.0000     -19.365452      -526.9607
   1   1.0000     -10.417993      -283.4880
   2   1.0000     -10.345741      -281.5219
   3   1.0000      -1.088767       -29.6268
   4   1.0000      -0.857849       -23.3433
   5   1.0000      -0.710020       -19.3206
   6   1.0000      -0.590584       -16.0706
   7   1.0000      -0.548717       -14.9314
   8   1.0000      -0.526659       -14.3311
   9   1.0000      -0.483701       -13.1622
  10   1.0000      -0.384821       -10.4715
  11   0.0000      -0.050624        -1.3775
  12   0.0000      -0.006745        -0.1835
  13   0.0000       0.040309         1.0969
  14   0.0000       0.062284         1.6948
  15   0.0000       0.077301         2.1035

----------------------------------------------------------------------------------------------------
          SPIN FLIP ABSORPTION SPECTRUM VIA TRANSITION ELECTRIC DIPOLE MOMENTS
----------------------------------------------------------------------------------------------------
     Transition      Energy     Energy  Wavelength fosc(D2)      D2        DX        DY        DZ
                      (eV)      (cm-1)    (nm)                 (au**2)    (au)      (au)      (au)
----------------------------------------------------------------------------------------------------
  1-3A  ->  2-3A    0.166879    1346.0  7429.6   0.000280286   0.06856   0.16609  -0.18576  -0.08038
  1-3A  ->  3-3A    0.875919    7064.8  1415.5   0.009859613   0.45945  -0.26665   0.51213   0.35506

Dispersion correction             ... done (  0.1 sec)

MULLIKEN ATOMIC CHARGES AND SPIN DENSITIES
------------------------------------------
   0 O :   -0.365017    0.235972
   1 C :   -0.055101    0.031260
   2 C :   -0.363035   -0.284997
   3 H :    0.187516    0.053444
   4 H :    0.203964   -0.001179
   5 H :    0.186513   -0.006763
   6 H :    0.205159   -0.027737
Sum of atomic charges       :   -0.0000000

LOEWDIN ATOMIC CHARGES AND SPIN DENSITIES
-----------------------------------------
   0 O :   -0.018534    0.205481
   1 C :   -0.244885    0.007674
   2 C :    0.329758   -0.187320
   3 H :    0.051213    0.034984
   4 H :    0.038756    0.001022
   5 H :   -0.114595   -0.035383
   6 H :   -0.041712   -0.026459

  Mayer bond orders larger than 0.100000
B(  0-O ,  1-C ) :   0.9113 B(  0-O ,  2-C ) :   0.2243 B(  1-C ,  2-C ) :   0.8502
B(  1-C ,  3-H ) :   0.9489 B(  1-C ,  4-H ) :   0.9807 B(  2-C ,  5-H ) :   0.9991
B(  2-C ,  6-H ) :   0.9924

Dispersion correction           -0.005505319
FINAL SINGLE POINT ENERGY      -153.747424232041

DIPOLE MOMENT
-------------

Method             : TDA/CIS
Type of density    : Electron Density
Level              : Relaxed density
State              :   1
Multiplicity       :   3
Irrep              :   0
Energy             :     0.0000000000000000 Eh
Relativity type    :
Basis              : AO
                                X                 Y                 Z
Electronic contribution:      0.624277358      -1.562726074      -1.480735057
Nuclear contribution   :     -0.745435357       2.330877692       2.148230552
                        -----------------------------------------
Total Dipole Moment    :     -0.121157999       0.768151618       0.667495495
                        -----------------------------------------
Magnitude (a.u.)       :      1.024834818
Magnitude (Debye)      :      2.604923091

Rotational constants in cm-1:             1.469313             0.335060             0.300293
Rotational constants in MHz :         44048.885819         10044.846990          9002.568718

                             ****ORCA TERMINATED NORMALLY****
TOTAL RUN TIME: 0 days 0 hours 0 minutes 26 seconds 981 msec
