                         Program Version 6.0.0  -   RELEASE  -
|  1> ! Engrad def2-TZVPPD wB97M-D3BJ
|  2> %pal nprocs 8 end%pal nprocs 64 end
|  3>  %tddft nroots 2 Iroot 2
|  4> sf true
|  5> end
|  6> *xyz 0 3
|  7> O   2.89218098440171 1.22978318151367 -0.49162068534771
|  8> O   -0.50009535983435 0.47829518853198 -1.94390189234049
|  9> O   1.32449418612759 -2.86336023386566 -1.69169693382411
| 10> O   -3.11532458029911 -1.39626274942479 1.24741393414797
| 11> N   0.6520689331661 -1.9678570133149 0.29133510246777
| 12> N   -2.24360601911842 0.67556043848406 1.62696497562486
| 13> N   2.11749422939921 -0.81780109520121 -1.05664319631034
| 14> N   -1.90822968711889 -0.36609974211029 -0.39204417469225
| 15> C   1.30643778113547 0.22536688773426 0.96384535900842
| 16> C   -0.76648777390086 1.7075460839266 0.07158725708922
| 17> C   0.66705967005584 -0.93156508217499 1.19188596411138
| 18> C   -1.47332707869721 1.74055655849885 1.20563455545497
| 19> C   1.49903078831353 1.26230581466731 2.02613121441684
| 20> C   0.01247972786554 2.87847903938266 -0.44138327927429
| 21> C   2.16049604287132 0.29758389542672 -0.22948378376218
| 22> C   -1.0077107045765 0.59556006203755 -0.85037197642762
| 23> C   1.358249030691 -1.95531839965134 -0.89543423022347
| 24> C   -2.47643107575602 -0.44218912874309 0.85884631010991
| 25> H   0.10715696909965 -1.10824851120451 2.09828529363194
| 26> H   -1.42806767332844 2.57451078240159 1.88864597631335
| 27> H   1.38134327065035 2.2673116878957 1.63522058742696
| 28> H   0.79304039126506 1.11040760053121 2.83968496959039
| 29> H   2.5085314129665 1.19653131016151 2.42955482551513
| 30> H   -0.41474896369654 3.22282694209863 -1.38135102724214
| 31> H   -0.01613923964078 3.69681888260005 0.27481753878965
| 32> H   1.04921945274559 2.62131289060746 -0.63751341495192
| 33> H   0.10206795292353 -2.79063526297077 0.4620481725727
| 34> H   -2.70670131141708 0.68998727179706 2.51749992453093
| 35> H   2.63793987937078 -0.75766801524717 -1.91726058809205
| 36> H   -2.05982123566461 -1.15873928438818 -0.99609677831382
| 37> *
| 38>
| 39>                          ****END OF INPUT****

CARTESIAN COORDINATES (ANGSTROEM)
---------------------------------
  O      2.892181    1.229783   -0.491621
  O     -0.500095    0.478295   -1.943902
  O      1.324494   -2.863360   -1.691697
  O     -3.115325   -1.396263    1.247414
  N      0.652069   -1.967857    0.291335
  N     -2.243606    0.675560    1.626965
  N      2.117494   -0.817801   -1.056643
  N     -1.908230   -0.366100   -0.392044
  C      1.306438    0.225367    0.963845
  C     -0.766488    1.707546    0.071587
  C      0.667060   -0.931565    1.191886
  C     -1.473327    1.740557    1.205635
  C      1.499031    1.262306    2.026131
  C      0.012480    2.878479   -0.441383
  C      2.160496    0.297584   -0.229484
  C     -1.007711    0.595560   -0.850372
  C      1.358249   -1.955318   -0.895434
  C     -2.476431   -0.442189    0.858846
  H      0.107157   -1.108249    2.098285
  H     -1.428068    2.574511    1.888646
  H      1.381343    2.267312    1.635221
  H      0.793040    1.110408    2.839685
  H      2.508531    1.196531    2.429555
  H     -0.414749    3.222827   -1.381351
  H     -0.016139    3.696819    0.274818
  H      1.049219    2.621313   -0.637513
  H      0.102068   -2.790635    0.462048
  H     -2.706701    0.689987    2.517500
  H      2.637940   -0.757668   -1.917261
  H     -2.059821   -1.158739   -0.996097

 Total Charge           Charge          ....    0
 Multiplicity           Mult            ....    3
 Number of Electrons    NEL             ....  132
 Basis Dimension        Dim             ....  882

ORBITAL ENERGIES
----------------
                 SPIN UP ORBITALS
  NO   OCC          E(Eh)            E(eV)
   0   1.0000     -19.331068      -526.0251
   1   1.0000     -19.327509      -525.9283
   2   1.0000     -19.327162      -525.9188
   3   1.0000     -19.316974      -525.6416
   4   1.0000     -14.589940      -397.0125
   5   1.0000     -14.588152      -396.9638
   6   1.0000     -14.572831      -396.5469
   7   1.0000     -14.546808      -395.8388
   8   1.0000     -10.517038      -286.1831
   9   1.0000     -10.505394      -285.8663
  10   1.0000     -10.482924      -285.2549
  11   1.0000     -10.457302      -284.5577
  12   1.0000     -10.437342      -284.0145
  13   1.0000     -10.405272      -283.1419
  14   1.0000     -10.394967      -282.8614
  15   1.0000     -10.386708      -282.6367
  16   1.0000     -10.367722      -282.1201
  17   1.0000     -10.352444      -281.7043
  18   1.0000      -1.230390       -33.4806
  19   1.0000      -1.221838       -33.2479
  20   1.0000      -1.198049       -32.6006
  21   1.0000      -1.187403       -32.3109
  22   1.0000      -1.127438       -30.6792
  23   1.0000      -1.121955       -30.5299
  24   1.0000      -1.073794       -29.2194
  25   1.0000      -1.057622       -28.7794
  26   1.0000      -0.977477       -26.5985
  27   1.0000      -0.959246       -26.1024
  28   1.0000      -0.855838       -23.2885
  29   1.0000      -0.850773       -23.1507
  30   1.0000      -0.815148       -22.1813
  31   1.0000      -0.807856       -21.9829
  32   1.0000      -0.797862       -21.7109
  33   1.0000      -0.787049       -21.4167
  34   1.0000      -0.700569       -19.0635
  35   1.0000      -0.700142       -19.0518
  36   1.0000      -0.696005       -18.9393
  37   1.0000      -0.688939       -18.7470
  38   1.0000      -0.647102       -17.6085
  39   1.0000      -0.643203       -17.5025
  40   1.0000      -0.629544       -17.1308
  41   1.0000      -0.604895       -16.4600
  42   1.0000      -0.601771       -16.3750
  43   1.0000      -0.591249       -16.0887
  44   1.0000      -0.578239       -15.7347
  45   1.0000      -0.570118       -15.5137
  46   1.0000      -0.565947       -15.4002
  47   1.0000      -0.555194       -15.1076
  48   1.0000      -0.550717       -14.9858
  49   1.0000      -0.539601       -14.6833
  50   1.0000      -0.530121       -14.4253
  51   1.0000      -0.527689       -14.3591
  52   1.0000      -0.520600       -14.1662
  53   1.0000      -0.514396       -13.9974
  54   1.0000      -0.508391       -13.8340
  55   1.0000      -0.501149       -13.6370
  56   1.0000      -0.488015       -13.2796
  57   1.0000      -0.481740       -13.1088
  58   1.0000      -0.423182       -11.5154
  59   1.0000      -0.415361       -11.3026
  60   1.0000      -0.409547       -11.1443
  61   1.0000      -0.395074       -10.7505
  62   1.0000      -0.393605       -10.7105
  63   1.0000      -0.388243       -10.5646
  64   1.0000      -0.382987       -10.4216
  65   1.0000      -0.346440        -9.4271
  66   1.0000      -0.207071        -5.6347
  67   0.0000       0.009559         0.2601
  68   0.0000       0.017234         0.4690
  69   0.0000       0.028873         0.7857
  70   0.0000       0.037420         1.0183
  71   0.0000       0.040802         1.1103

                 SPIN DOWN ORBITALS
  NO   OCC          E(Eh)            E(eV)
   0   1.0000     -19.330882      -526.0200
   1   1.0000     -19.327357      -525.9241
   2   1.0000     -19.325528      -525.8744
   3   1.0000     -19.311430      -525.4907
   4   1.0000     -14.587588      -396.9484
   5   1.0000     -14.584984      -396.8776
   6   1.0000     -14.572856      -396.5476
   7   1.0000     -14.546003      -395.8169
   8   1.0000     -10.517032      -286.1830
   9   1.0000     -10.505787      -285.8770
  10   1.0000     -10.482826      -285.2522
  11   1.0000     -10.456983      -284.5490
  12   1.0000     -10.435830      -283.9734
  13   1.0000     -10.395811      -282.8844
  14   1.0000     -10.387021      -282.6452
  15   1.0000     -10.384652      -282.5807
  16   1.0000     -10.368188      -282.1327
  17   1.0000     -10.352389      -281.7028
  18   1.0000      -1.229967       -33.4691
  19   1.0000      -1.217556       -33.1314
  20   1.0000      -1.198133       -32.6029
  21   1.0000      -1.179148       -32.0862
  22   1.0000      -1.126297       -30.6481
  23   1.0000      -1.111371       -30.2419
  24   1.0000      -1.073431       -29.2096
  25   1.0000      -1.052479       -28.6394
  26   1.0000      -0.966639       -26.3036
  27   1.0000      -0.946020       -25.7425
  28   1.0000      -0.849864       -23.1260
  29   1.0000      -0.845111       -22.9966
  30   1.0000      -0.814131       -22.1536
  31   1.0000      -0.799205       -21.7475
  32   1.0000      -0.795522       -21.6473
  33   1.0000      -0.780522       -21.2391
  34   1.0000      -0.699172       -19.0254
  35   1.0000      -0.696852       -18.9623
  36   1.0000      -0.687978       -18.7208
  37   1.0000      -0.680882       -18.5278
  38   1.0000      -0.645872       -17.5751
  39   1.0000      -0.632632       -17.2148
  40   1.0000      -0.622352       -16.9351
  41   1.0000      -0.601410       -16.3652
  42   1.0000      -0.594194       -16.1689
  43   1.0000      -0.583141       -15.8681
  44   1.0000      -0.570563       -15.5258
  45   1.0000      -0.565215       -15.3803
  46   1.0000      -0.560152       -15.2425
  47   1.0000      -0.553927       -15.0731
  48   1.0000      -0.544053       -14.8044
  49   1.0000      -0.535975       -14.5846
  50   1.0000      -0.522234       -14.2107
  51   1.0000      -0.519578       -14.1384
  52   1.0000      -0.514967       -14.0130
  53   1.0000      -0.506919       -13.7940
  54   1.0000      -0.500183       -13.6107
  55   1.0000      -0.496457       -13.5093
  56   1.0000      -0.477041       -12.9810
  57   1.0000      -0.446409       -12.1474
  58   1.0000      -0.422670       -11.5014
  59   1.0000      -0.411122       -11.1872
  60   1.0000      -0.404338       -11.0026
  61   1.0000      -0.391328       -10.6486
  62   1.0000      -0.377255       -10.2656
  63   1.0000      -0.375562       -10.2196
  64   1.0000      -0.349714        -9.5162
  65   0.0000      -0.104331        -2.8390
  66   0.0000       0.009262         0.2520
  67   0.0000       0.021968         0.5978
  68   0.0000       0.026821         0.7298
  69   0.0000       0.034014         0.9256

----------------------------------------------------------------------------------------------------
          SPIN FLIP ABSORPTION SPECTRUM VIA TRANSITION ELECTRIC DIPOLE MOMENTS
----------------------------------------------------------------------------------------------------
     Transition      Energy     Energy  Wavelength fosc(D2)      D2        DX        DY        DZ
                      (eV)      (cm-1)    (nm)                 (au**2)    (au)      (au)      (au)
----------------------------------------------------------------------------------------------------
  1-3A  ->  2-3A    4.055683   32711.3   305.7   0.001129766   0.01137  -0.03547  -0.08142   0.05901

Dispersion correction             ... done (  0.1 sec)

MULLIKEN ATOMIC CHARGES AND SPIN DENSITIES
------------------------------------------
   0 O :   -0.707365    0.006018
   1 O :   -0.651614   -0.002521
   2 O :   -0.631623    0.004676
   3 O :   -0.664153    0.000912
   4 N :    0.075571    0.038550
   5 N :    0.007237   -0.003364
   6 N :   -0.019167   -0.006686
   7 N :   -0.011861   -0.000393
   8 C :    1.218792   -0.006366
   9 C :    0.379198    0.013521
  10 C :   -0.576156    0.050288
  11 C :    0.270179    0.000513
  12 C :   -1.467434   -0.008925
  13 C :   -1.493950    0.006996
  14 C :    0.216161   -0.081798
  15 C :    0.504687   -0.021268
  16 C :    0.526163    0.001820
  17 C :    0.478874    0.000004
  18 H :    0.258745    0.006392
  19 H :    0.208606   -0.002722
  20 H :    0.254508    0.002243
  21 H :    0.330194   -0.002631
  22 H :    0.425152    0.012120
  23 H :    0.381104   -0.000122
  24 H :    0.342330   -0.000356
  25 H :    0.225378   -0.000535
  26 H :    0.038297   -0.004222
  27 H :    0.021419   -0.000949
  28 H :    0.020451    0.000656
  29 H :    0.040278   -0.001851
Sum of atomic charges       :    0.0000000

LOEWDIN ATOMIC CHARGES AND SPIN DENSITIES
-----------------------------------------
   0 O :    0.069765    0.005643
   1 O :    0.109696   -0.002144
   2 O :    0.111608    0.003657
   3 O :    0.081915    0.000633
   4 N :    0.316523    0.020481
   5 N :    0.284220   -0.001357
   6 N :    0.322239   -0.005735
   7 N :    0.334947   -0.000777
   8 C :   -0.123912    0.004527
   9 C :   -0.155748    0.000578
  10 C :   -0.007152   -0.012608
  11 C :    0.055179    0.000657
  12 C :    0.198663    0.000294
  13 C :    0.189410   -0.000059
  14 C :   -0.428245   -0.006401
  15 C :   -0.398818   -0.000815
  16 C :   -0.464509   -0.002286
  17 C :   -0.489697   -0.000137
  18 H :    0.008059   -0.005786
  19 H :    0.041500   -0.000220
  20 H :   -0.011820    0.000589
  21 H :   -0.004227   -0.000493
  22 H :    0.016598    0.000619
  23 H :    0.008692    0.000033
  24 H :   -0.001765   -0.000077
  25 H :   -0.024432   -0.000039
  26 H :   -0.006265    0.002071
  27 H :   -0.019320   -0.000095
  28 H :   -0.008766   -0.000703
  29 H :   -0.004337   -0.000050

  Mayer bond orders larger than 0.100000
B(  0-O , 14-C ) :   1.2541 B(  1-O , 15-C ) :   1.4280 B(  2-O , 16-C ) :   1.5653
B(  3-O , 17-C ) :   1.5487 B(  4-N , 10-C ) :   0.8647 B(  4-N , 16-C ) :   0.9686
B(  4-N , 26-H ) :   1.1179 B(  5-N , 11-C ) :   0.9936 B(  5-N , 17-C ) :   1.0365
B(  5-N , 27-H ) :   1.1342 B(  6-N , 14-C ) :   0.9770 B(  6-N , 16-C ) :   0.9862
B(  6-N , 28-H ) :   1.1068 B(  7-N , 15-C ) :   1.0335 B(  7-N , 17-C ) :   0.9622
B(  7-N , 29-H ) :   1.0888 B(  8-C ,  9-C ) :   0.1253 B(  8-C , 10-C ) :   0.3100
B(  8-C , 12-C ) :   0.2467 B(  8-C , 14-C ) :   0.7712 B(  8-C , 18-H ) :  -0.1601
B(  8-C , 20-H ) :  -0.1249 B(  8-C , 21-H ) :  -0.1084 B(  9-C , 11-C ) :   0.8671
B(  9-C , 13-C ) :   0.5592 B(  9-C , 15-C ) :   0.7021 B(  9-C , 24-H ) :  -0.1206
B(  9-C , 25-H ) :  -0.1050 B( 10-C , 12-C ) :  -0.1245 B( 10-C , 18-H ) :   1.1617
B( 11-C , 13-C ) :  -0.2976 B( 11-C , 19-H ) :   1.0886 B( 12-C , 20-H ) :   1.0517
B( 12-C , 21-H ) :   1.0450 B( 12-C , 22-H ) :   0.7805 B( 13-C , 23-H ) :   0.8260
B( 13-C , 24-H ) :   1.0657 B( 13-C , 25-H ) :   0.9785

Dispersion correction           -0.060987710
FINAL SINGLE POINT ENERGY      -908.763647883971

DIPOLE MOMENT
-------------

Method             : TDA/CIS
Type of density    : Electron Density
Level              : Relaxed density
State              :   2
Multiplicity       :   3
Irrep              :   0
Energy             :     0.0000000000000000 Eh
Relativity type    :
Basis              : AO
                                X                 Y                 Z
Electronic contribution:     -2.518167337      -9.690037683      -5.712630621
Nuclear contribution   :      1.492683561      10.764385950       7.855437130
                        -----------------------------------------
Total Dipole Moment    :     -1.025483777       1.074348267       2.142806509
                        -----------------------------------------
Magnitude (a.u.)       :      2.607194068
Magnitude (Debye)      :      6.626960667

Rotational constants in cm-1:             0.019774             0.014807             0.011636
Rotational constants in MHz :           592.803325           443.915358           348.826687

                             ****ORCA TERMINATED NORMALLY****
TOTAL RUN TIME: 0 days 0 hours 5 minutes 52 seconds 365 msec
