                         Program Version 6.0.0  -   RELEASE  -
|  1> ! Engrad def2-TZVPPD wB97M-D3BJ
|  2> %pal nprocs 8 end%pal nprocs 32 end
|  3> %tddft Nroots 2 Iroot 2
|  4> sf true
|  5> end
|  6> *xyz 0 3
|  7> O   0.51987566 1.18624599 -0.01295612
|  8> C   0.47646483 -0.27553639 -0.00835827
|  9> C   -0.83069977 -0.97280844 0.02099375
| 10> H   1.01660062 -0.6044003 0.8352974
| 11> H   1.01372272 -0.6108691 -0.87707656
| 12> H   -1.43716386 -0.76895738 -0.85622837
| 13> H   -1.41689655 -1.02680527 0.9338526
| 14> *
| 15>
| 16>                          ****END OF INPUT****

CARTESIAN COORDINATES (ANGSTROEM)
---------------------------------
  O      0.519876    1.186246   -0.012956
  C      0.476465   -0.275536   -0.008358
  C     -0.830700   -0.972808    0.020994
  H      1.016601   -0.604400    0.835297
  H      1.013723   -0.610869   -0.877077
  H     -1.437164   -0.768957   -0.856228
  H     -1.416897   -1.026805    0.933853

 Total Charge           Charge          ....    0
 Multiplicity           Mult            ....    3
 Number of Electrons    NEL             ....   24
 Basis Dimension        Dim             ....  182

ORBITAL ENERGIES
----------------
                 SPIN UP ORBITALS
  NO   OCC          E(Eh)            E(eV)
   0   1.0000     -19.398565      -527.8618
   1   1.0000     -10.406494      -283.1751
   2   1.0000     -10.374363      -282.3008
   3   1.0000      -1.142352       -31.0850
   4   1.0000      -0.890444       -24.2302
   5   1.0000      -0.739650       -20.1269
   6   1.0000      -0.618605       -16.8331
   7   1.0000      -0.561506       -15.2794
   8   1.0000      -0.547664       -14.9027
   9   1.0000      -0.518244       -14.1021
  10   1.0000      -0.446484       -12.1494
  11   1.0000      -0.421120       -11.4592
  12   1.0000      -0.350691        -9.5428
  13   0.0000       0.040535         1.1030
  14   0.0000       0.062816         1.7093
  15   0.0000       0.077630         2.1124
  16   0.0000       0.087802         2.3892
  17   0.0000       0.113601         3.0912

                 SPIN DOWN ORBITALS
  NO   OCC          E(Eh)            E(eV)
   0   1.0000     -19.372465      -527.1516
   1   1.0000     -10.407657      -283.2067
   2   1.0000     -10.361310      -281.9456
   3   1.0000      -1.080329       -29.3973
   4   1.0000      -0.859425       -23.3862
   5   1.0000      -0.716551       -19.4983
   6   1.0000      -0.591384       -16.0924
   7   1.0000      -0.531972       -14.4757
   8   1.0000      -0.521114       -14.1802
   9   1.0000      -0.480255       -13.0684
  10   1.0000      -0.389348       -10.5947
  11   0.0000      -0.053377        -1.4525
  12   0.0000      -0.020643        -0.5617
  13   0.0000       0.039724         1.0810
  14   0.0000       0.063571         1.7298
  15   0.0000       0.078833         2.1451

----------------------------------------------------------------------------------------------------
          SPIN FLIP ABSORPTION SPECTRUM VIA TRANSITION ELECTRIC DIPOLE MOMENTS
----------------------------------------------------------------------------------------------------
     Transition      Energy     Energy  Wavelength fosc(D2)      D2        DX        DY        DZ
                      (eV)      (cm-1)    (nm)                 (au**2)    (au)      (au)      (au)
----------------------------------------------------------------------------------------------------
  1-3A  ->  2-3A    0.029932     241.4  41422.0   0.000017639   0.02405   0.09611   0.12163   0.00490

Dispersion correction             ... done (  0.1 sec)

MULLIKEN ATOMIC CHARGES AND SPIN DENSITIES
------------------------------------------
   0 O :   -0.308739    0.364482
   1 C :    0.025607    0.229957
   2 C :   -0.579956   -0.536068
   3 H :    0.235462    0.011745
   4 H :    0.218553    0.021065
   5 H :    0.198366   -0.036748
   6 H :    0.210707   -0.054432
Sum of atomic charges       :   -0.0000000

LOEWDIN ATOMIC CHARGES AND SPIN DENSITIES
-----------------------------------------
   0 O :    0.027815    0.340742
   1 C :   -0.192178   -0.007200
   2 C :    0.291367   -0.277578
   3 H :   -0.023763   -0.001757
   4 H :    0.010283    0.018987
   5 H :   -0.056977   -0.034264
   6 H :   -0.056547   -0.038930

  Mayer bond orders larger than 0.100000
B(  0-O ,  1-C ) :   0.8483 B(  1-C ,  2-C ) :   0.5879 B(  1-C ,  3-H ) :   0.9906
B(  1-C ,  4-H ) :   0.9388 B(  2-C ,  5-H ) :   1.0578 B(  2-C ,  6-H ) :   1.0534

Dispersion correction           -0.005507953
FINAL SINGLE POINT ENERGY      -153.738694006135

DIPOLE MOMENT
-------------

Method             : TDA/CIS
Type of density    : Electron Density
Level              : Relaxed density
State              :   2
Multiplicity       :   3
Irrep              :   0
Energy             :     0.0000000000000000 Eh
Relativity type    :
Basis              : AO
                                X                 Y                 Z
Electronic contribution:      0.931435200       2.243618285      -0.046978210
Nuclear contribution   :     -1.041567083      -2.888560725       0.035095518
                        -----------------------------------------
Total Dipole Moment    :     -0.110131883      -0.644942439      -0.011882692
                        -----------------------------------------
Magnitude (a.u.)       :      0.654385957
Magnitude (Debye)      :      1.663316916

Rotational constants in cm-1:             1.468242             0.317035             0.288280
Rotational constants in MHz :         44016.794168          9504.482921          8642.418647

                             ****ORCA TERMINATED NORMALLY****
TOTAL RUN TIME: 0 days 0 hours 0 minutes 15 seconds 949 msec
