                         Program Version 6.0.0  -   RELEASE  -
|  1> ! Engrad def2-TZVPPD wB97M-D3BJ
|  2> %pal nprocs 8 end%pal nprocs 64 end
|  3> %tddft Nroots 2 Iroot 2
|  4> sf true
|  5> end
|  6> *xyz 0 3
|  7> O   3.38726744 0.77254369 -0.29328047
|  8> O   -0.69659019 0.83834371 -2.475077
|  9> O   0.6106901 -2.87996664 -1.11768992
| 10> O   -3.60352022 -1.09098917 0.43527875
| 11> N   0.24976613 -1.5512499 0.69195258
| 12> N   -2.08688035 0.25386655 1.26148285
| 13> N   1.99826319 -1.01912801 -0.73019347
| 14> N   -1.93182897 -0.3346783 -0.99518266
| 15> C   1.74404349 0.28221236 1.27825791
| 16> C   -0.60022311 1.46206487 -0.19712096
| 17> C   0.3972045 -0.27826233 1.38728074
| 18> C   -0.75234175 0.81643737 1.10401655
| 19> C   2.06275934 1.48124664 2.11507576
| 20> C   -0.30069844 2.89328451 -0.32954777
| 21> C   2.45290516 0.06546621 0.01921377
| 22> C   -1.03961215 0.67471423 -1.31580016
| 23> C   0.91632033 -1.88893848 -0.43809278
| 24> C   -2.59319667 -0.47058059 0.23875
| 25> H   0.24379621 -0.51182164 2.44996997
| 26> H   -0.67145951 1.53588105 1.8831849
| 27> H   1.70713001 2.33132582 1.49811235
| 28> H   1.4901706 1.43277122 3.03459744
| 29> H   3.10230911 1.64330138 2.32491688
| 30> H   -1.17818081 3.46158258 -0.06628769
| 31> H   0.45986645 3.24163987 0.34379832
| 32> H   0.01446328 3.12687559 -1.34563477
| 33> H   -0.59741477 -2.10763588 0.80935462
| 34> H   -2.47000177 0.03888299 2.15411855
| 35> H   2.43259946 -1.12868642 -1.64763533
| 36> H   -2.19669063 -0.9412682 -1.76776148
| 37> *
| 38>
| 39>                          ****END OF INPUT****

CARTESIAN COORDINATES (ANGSTROEM)
---------------------------------
  O      3.387267    0.772544   -0.293280
  O     -0.696590    0.838344   -2.475077
  O      0.610690   -2.879967   -1.117690
  O     -3.603520   -1.090989    0.435279
  N      0.249766   -1.551250    0.691953
  N     -2.086880    0.253867    1.261483
  N      1.998263   -1.019128   -0.730193
  N     -1.931829   -0.334678   -0.995183
  C      1.744043    0.282212    1.278258
  C     -0.600223    1.462065   -0.197121
  C      0.397205   -0.278262    1.387281
  C     -0.752342    0.816437    1.104017
  C      2.062759    1.481247    2.115076
  C     -0.300698    2.893285   -0.329548
  C      2.452905    0.065466    0.019214
  C     -1.039612    0.674714   -1.315800
  C      0.916320   -1.888938   -0.438093
  C     -2.593197   -0.470581    0.238750
  H      0.243796   -0.511822    2.449970
  H     -0.671460    1.535881    1.883185
  H      1.707130    2.331326    1.498112
  H      1.490171    1.432771    3.034597
  H      3.102309    1.643301    2.324917
  H     -1.178181    3.461583   -0.066288
  H      0.459866    3.241640    0.343798
  H      0.014463    3.126876   -1.345635
  H     -0.597415   -2.107636    0.809355
  H     -2.470002    0.038883    2.154119
  H      2.432599   -1.128686   -1.647635
  H     -2.196691   -0.941268   -1.767761

 Total Charge           Charge          ....    0
 Multiplicity           Mult            ....    3
 Number of Electrons    NEL             ....  132
 Basis Dimension        Dim             ....  882

ORBITAL ENERGIES
----------------
                 SPIN UP ORBITALS
  NO   OCC          E(Eh)            E(eV)
   0   1.0000     -19.334723      -526.1246
   1   1.0000     -19.334627      -526.1219
   2   1.0000     -19.322596      -525.7946
   3   1.0000     -19.320527      -525.7383
   4   1.0000     -14.567213      -396.3940
   5   1.0000     -14.566595      -396.3772
   6   1.0000     -14.564911      -396.3314
   7   1.0000     -14.564293      -396.3145
   8   1.0000     -10.510519      -286.0058
   9   1.0000     -10.507037      -285.9110
  10   1.0000     -10.482535      -285.2443
  11   1.0000     -10.481031      -285.2034
  12   1.0000     -10.445222      -284.2289
  13   1.0000     -10.442555      -284.1564
  14   1.0000     -10.415975      -283.4331
  15   1.0000     -10.414964      -283.4056
  16   1.0000     -10.379931      -282.4523
  17   1.0000     -10.374214      -282.2967
  18   1.0000      -1.228040       -33.4167
  19   1.0000      -1.211690       -32.9718
  20   1.0000      -1.200580       -32.6694
  21   1.0000      -1.191239       -32.4153
  22   1.0000      -1.121120       -30.5072
  23   1.0000      -1.098645       -29.8956
  24   1.0000      -1.066613       -29.0240
  25   1.0000      -1.056147       -28.7392
  26   1.0000      -0.992307       -27.0020
  27   1.0000      -0.963706       -26.2238
  28   1.0000      -0.889202       -24.1964
  29   1.0000      -0.848498       -23.0888
  30   1.0000      -0.834749       -22.7147
  31   1.0000      -0.803579       -21.8665
  32   1.0000      -0.792040       -21.5525
  33   1.0000      -0.783493       -21.3199
  34   1.0000      -0.702893       -19.1267
  35   1.0000      -0.694837       -18.9075
  36   1.0000      -0.689945       -18.7743
  37   1.0000      -0.681353       -18.5406
  38   1.0000      -0.661127       -17.9902
  39   1.0000      -0.636618       -17.3233
  40   1.0000      -0.630112       -17.1462
  41   1.0000      -0.604510       -16.4496
  42   1.0000      -0.596171       -16.2226
  43   1.0000      -0.586707       -15.9651
  44   1.0000      -0.580294       -15.7906
  45   1.0000      -0.575016       -15.6470
  46   1.0000      -0.568419       -15.4675
  47   1.0000      -0.561774       -15.2867
  48   1.0000      -0.561354       -15.2752
  49   1.0000      -0.557253       -15.1636
  50   1.0000      -0.549904       -14.9637
  51   1.0000      -0.547452       -14.8969
  52   1.0000      -0.533768       -14.5246
  53   1.0000      -0.526429       -14.3249
  54   1.0000      -0.518757       -14.1161
  55   1.0000      -0.513586       -13.9754
  56   1.0000      -0.499065       -13.5802
  57   1.0000      -0.426888       -11.6162
  58   1.0000      -0.419277       -11.4091
  59   1.0000      -0.411421       -11.1953
  60   1.0000      -0.405004       -11.0207
  61   1.0000      -0.401672       -10.9301
  62   1.0000      -0.394720       -10.7409
  63   1.0000      -0.391968       -10.6660
  64   1.0000      -0.384170       -10.4538
  65   1.0000      -0.343015        -9.3339
  66   1.0000      -0.331874        -9.0308
  67   0.0000       0.006514         0.1772
  68   0.0000       0.027917         0.7596
  69   0.0000       0.034347         0.9346
  70   0.0000       0.035912         0.9772
  71   0.0000       0.054763         1.4902

                 SPIN DOWN ORBITALS
  NO   OCC          E(Eh)            E(eV)
   0   1.0000     -19.330951      -526.0219
   1   1.0000     -19.330566      -526.0115
   2   1.0000     -19.322374      -525.7885
   3   1.0000     -19.320465      -525.7366
   4   1.0000     -14.566817      -396.3832
   5   1.0000     -14.565874      -396.3576
   6   1.0000     -14.564212      -396.3124
   7   1.0000     -14.564078      -396.3087
   8   1.0000     -10.510565      -286.0070
   9   1.0000     -10.507072      -285.9120
  10   1.0000     -10.483373      -285.2671
  11   1.0000     -10.482079      -285.2319
  12   1.0000     -10.445020      -284.2234
  13   1.0000     -10.441785      -284.1354
  14   1.0000     -10.404475      -283.1202
  15   1.0000     -10.403410      -283.0912
  16   1.0000     -10.380402      -282.4651
  17   1.0000     -10.374683      -282.3095
  18   1.0000      -1.226739       -33.3813
  19   1.0000      -1.208339       -32.8806
  20   1.0000      -1.195239       -32.5241
  21   1.0000      -1.188626       -32.3441
  22   1.0000      -1.118029       -30.4231
  23   1.0000      -1.096589       -29.8397
  24   1.0000      -1.064603       -28.9693
  25   1.0000      -1.054568       -28.6963
  26   1.0000      -0.979076       -26.6420
  27   1.0000      -0.946907       -25.7667
  28   1.0000      -0.883885       -24.0517
  29   1.0000      -0.843611       -22.9558
  30   1.0000      -0.825458       -22.4618
  31   1.0000      -0.797922       -21.7126
  32   1.0000      -0.790418       -21.5084
  33   1.0000      -0.782190       -21.2845
  34   1.0000      -0.696114       -18.9422
  35   1.0000      -0.689351       -18.7582
  36   1.0000      -0.684273       -18.6200
  37   1.0000      -0.673903       -18.3378
  38   1.0000      -0.647878       -17.6297
  39   1.0000      -0.633475       -17.2377
  40   1.0000      -0.625866       -17.0307
  41   1.0000      -0.599185       -16.3047
  42   1.0000      -0.590098       -16.0574
  43   1.0000      -0.579572       -15.7709
  44   1.0000      -0.570835       -15.5332
  45   1.0000      -0.567822       -15.4512
  46   1.0000      -0.563850       -15.3432
  47   1.0000      -0.558696       -15.2029
  48   1.0000      -0.551359       -15.0032
  49   1.0000      -0.549229       -14.9453
  50   1.0000      -0.545413       -14.8414
  51   1.0000      -0.538666       -14.6578
  52   1.0000      -0.526340       -14.3224
  53   1.0000      -0.520191       -14.1551
  54   1.0000      -0.509369       -13.8606
  55   1.0000      -0.507208       -13.8018
  56   1.0000      -0.493343       -13.4245
  57   1.0000      -0.420197       -11.4341
  58   1.0000      -0.415844       -11.3157
  59   1.0000      -0.404833       -11.0161
  60   1.0000      -0.396145       -10.7797
  61   1.0000      -0.389939       -10.6108
  62   1.0000      -0.389562       -10.6005
  63   1.0000      -0.386996       -10.5307
  64   1.0000      -0.373880       -10.1738
  65   0.0000      -0.057723        -1.5707
  66   0.0000      -0.055019        -1.4971
  67   0.0000       0.005999         0.1632
  68   0.0000       0.027789         0.7562
  69   0.0000       0.034042         0.9263

----------------------------------------------------------------------------------------------------
          SPIN FLIP ABSORPTION SPECTRUM VIA TRANSITION ELECTRIC DIPOLE MOMENTS
----------------------------------------------------------------------------------------------------
     Transition      Energy     Energy  Wavelength fosc(D2)      D2        DX        DY        DZ
                      (eV)      (cm-1)    (nm)                 (au**2)    (au)      (au)      (au)
----------------------------------------------------------------------------------------------------
  1-3A  ->  2-1A    0.035547     286.7  34878.6   0.000000742   0.00085  -0.02511   0.00507  -0.01399

Dispersion correction             ... done (  0.1 sec)

MULLIKEN ATOMIC CHARGES AND SPIN DENSITIES
------------------------------------------
   0 O :   -0.650162    0.118484
   1 O :   -0.686720   -0.129860
   2 O :   -0.675092    0.000960
   3 O :   -0.641415   -0.002370
   4 N :   -0.200204    0.021090
   5 N :   -0.291048   -0.021550
   6 N :   -0.007346    0.013620
   7 N :    0.048734   -0.007795
   8 C :    0.040928    0.433510
   9 C :    1.320484    0.399124
  10 C :    0.184532   -0.074179
  11 C :    0.174222   -0.399265
  12 C :   -1.274428    0.031139
  13 C :   -1.291992    0.065976
  14 C :    0.477987    0.052985
  15 C :   -0.450380   -0.594938
  16 C :    0.462642    0.008255
  17 C :    0.349200    0.030300
  18 H :    0.511359    0.047060
  19 H :    0.458398   -0.015618
  20 H :    0.256302    0.021715
  21 H :    0.333041    0.001237
  22 H :    0.342139    0.011861
  23 H :    0.377232   -0.007874
  24 H :    0.254481    0.012908
  25 H :    0.336169   -0.016830
  26 H :    0.070692   -0.000888
  27 H :    0.072782    0.000726
  28 H :    0.051147   -0.003793
  29 H :    0.046317    0.004010
Sum of atomic charges       :   -0.0000000

LOEWDIN ATOMIC CHARGES AND SPIN DENSITIES
-----------------------------------------
   0 O :    0.102261    0.102719
   1 O :    0.087940   -0.120801
   2 O :    0.059076    0.000974
   3 O :    0.095658   -0.001701
   4 N :    0.276246   -0.000599
   5 N :    0.295948   -0.011226
   6 N :    0.329779    0.015596
   7 N :    0.333099   -0.016078
   8 C :   -0.029957    0.440939
   9 C :   -0.012381   -0.409775
  10 C :   -0.106324    0.033773
  11 C :   -0.102568   -0.020647
  12 C :    0.202519    0.059296
  13 C :    0.216469   -0.067043
  14 C :   -0.405080    0.062837
  15 C :   -0.427076   -0.073186
  16 C :   -0.452671   -0.000191
  17 C :   -0.502321   -0.000151
  18 H :    0.055308    0.009526
  19 H :    0.030445    0.001496
  20 H :   -0.005076    0.022766
  21 H :   -0.002275    0.000841
  22 H :   -0.001926    0.006804
  23 H :    0.014192   -0.025234
  24 H :   -0.026948   -0.008179
  25 H :    0.017033   -0.001279
  26 H :   -0.014020    0.000083
  27 H :   -0.033197   -0.001150
  28 H :    0.000344    0.001183
  29 H :    0.005500   -0.001593

  Mayer bond orders larger than 0.100000
B(  0-O , 14-C ) :   1.4904 B(  1-O , 15-C ) :   1.4186 B(  2-O , 16-C ) :   1.5071
B(  3-O , 17-C ) :   1.5965 B(  4-N ,  8-C ) :   0.1063 B(  4-N , 10-C ) :   0.4148
B(  4-N , 16-C ) :   1.0807 B(  4-N , 26-H ) :   1.0459 B(  5-N ,  9-C ) :   0.1978
B(  5-N , 10-C ) :   0.1014 B(  5-N , 17-C ) :   1.2268 B(  5-N , 27-H ) :   1.0538
B(  6-N , 10-C ) :   0.1284 B(  6-N , 14-C ) :   1.0388 B(  6-N , 16-C ) :   0.9024
B(  6-N , 28-H ) :   1.0966 B(  7-N , 10-C ) :  -0.1252 B(  7-N , 11-C ) :   0.1556
B(  7-N , 15-C ) :   0.8796 B(  7-N , 17-C ) :   0.9904 B(  7-N , 29-H ) :   1.1096
B(  8-C ,  9-C ) :   0.1314 B(  8-C , 10-C ) :   0.3069 B(  8-C , 11-C ) :   0.1462
B(  8-C , 12-C ) :   0.2815 B(  8-C , 14-C ) :   0.7992 B(  8-C , 16-C ) :   0.1046
B(  8-C , 18-H ) :  -0.2332 B(  8-C , 21-H ) :  -0.1622 B(  9-C , 10-C ) :   0.1206
B(  9-C , 13-C ) :   0.5759 B(  9-C , 15-C ) :  -0.1634 B(  9-C , 19-H ) :  -0.1459
B(  9-C , 25-H ) :  -0.1077 B( 10-C , 11-C ) :   0.5879 B( 10-C , 16-C ) :  -0.1533
B( 10-C , 18-H ) :   0.9136 B( 10-C , 19-H ) :  -0.1084 B( 11-C , 13-C ) :  -0.2483
B( 11-C , 15-C ) :   0.2575 B( 11-C , 17-C ) :  -0.2896 B( 11-C , 19-H ) :   1.0143
B( 12-C , 20-H ) :   0.8058 B( 12-C , 21-H ) :   1.1236 B( 12-C , 22-H ) :   1.0520
B( 13-C , 15-C ) :  -0.1219 B( 13-C , 23-H ) :   0.8348 B( 13-C , 24-H ) :   0.9721
B( 13-C , 25-H ) :   0.9977 B( 15-C , 17-C ) :  -0.1366

Dispersion correction           -0.059522684
FINAL SINGLE POINT ENERGY      -908.786779792150

DIPOLE MOMENT
-------------

Method             : TDA/CIS
Type of density    : Electron Density
Level              : Relaxed density
State              :   2
Multiplicity       :   3
Irrep              :   0
Energy             :     0.0000000000000000 Eh
Relativity type    :
Basis              : AO
                                X                 Y                 Z
Electronic contribution:     -2.216956361      -9.827746552      -6.377414835
Nuclear contribution   :      2.169356692      11.421286007       8.837831142
                        -----------------------------------------
Total Dipole Moment    :     -0.047599669       1.593539455       2.460416307
                        -----------------------------------------
Magnitude (a.u.)       :      2.931771159
Magnitude (Debye)      :      7.451970068

Rotational constants in cm-1:             0.020319             0.013762             0.012075
Rotational constants in MHz :           609.141872           412.588400           362.010348

                             ****ORCA TERMINATED NORMALLY****
TOTAL RUN TIME: 0 days 0 hours 4 minutes 33 seconds 994 msec
