                         Program Version 6.0.0  -   RELEASE  -
|  1> ! Engrad def2-TZVPPD wB97M-D3BJ
|  2> %pal nprocs 8 end%pal nprocs 64 end
|  3> %tddft
|  4>  Iroot 1 Nroots 3
|  5> sf true
|  6> end
|  7> *xyz 0 3
|  8> O   3.20536349 0.00782805 -1.94556247
|  9> O   -2.19950215 0.77810039 -1.72632706
| 10> O   -0.55591849 -2.5864312 -1.3072511
| 11> O   -2.92113173 -0.41644289 2.64484568
| 12> N   0.25316063 -1.3768651 0.46869943
| 13> N   -0.99582009 0.61192182 2.03125154
| 14> N   1.26398539 -1.16759756 -1.63683
| 15> N   -2.60593032 0.24148451 0.45227504
| 16> C   2.22253892 0.02234557 0.19569036
| 17> C   -0.54149643 1.32765764 -0.20522041
| 18> C   0.95030256 -0.2531406 0.92976011
| 19> C   0.04859562 1.02006893 1.08539855
| 20> C   3.39152293 0.62041512 0.91318984
| 21> C   0.14836191 1.99975606 -1.23257916
| 22> C   2.2879352 -0.31906957 -1.21712041
| 23> C   -1.75926455 0.6689495 -0.58806586
| 24> C   0.20861835 -1.77663528 -0.86041397
| 25> C   -2.22482534 0.06593954 1.73269966
| 26> H   1.20685348 -0.43914301 1.96341893
| 27> H   0.59931291 1.77700778 1.662697
| 28> H   3.1712373 0.66545696 1.99059206
| 29> H   4.24853868 0.0023053 0.67500765
| 30> H   3.61050152 1.64756577 0.66026362
| 31> H   -0.40919323 2.9326204 -1.52710203
| 32> H   1.18164012 2.33772087 -0.97066966
| 33> H   0.22620671 1.41789823 -2.11439102
| 34> H   -0.39610977 -1.86236654 1.12327815
| 35> H   -0.8342165 0.38866437 2.9920519
| 36> H   1.09685541 -1.32857475 -2.65726821
| 37> H   -3.54536498 -0.05542395 0.23100961
| 38> *
| 39>
| 40>                          ****END OF INPUT****

CARTESIAN COORDINATES (ANGSTROEM)
---------------------------------
  O      3.205363    0.007828   -1.945562
  O     -2.199502    0.778100   -1.726327
  O     -0.555918   -2.586431   -1.307251
  O     -2.921132   -0.416443    2.644846
  N      0.253161   -1.376865    0.468699
  N     -0.995820    0.611922    2.031252
  N      1.263985   -1.167598   -1.636830
  N     -2.605930    0.241485    0.452275
  C      2.222539    0.022346    0.195690
  C     -0.541496    1.327658   -0.205220
  C      0.950303   -0.253141    0.929760
  C      0.048596    1.020069    1.085399
  C      3.391523    0.620415    0.913190
  C      0.148362    1.999756   -1.232579
  C      2.287935   -0.319070   -1.217120
  C     -1.759265    0.668949   -0.588066
  C      0.208618   -1.776635   -0.860414
  C     -2.224825    0.065940    1.732700
  H      1.206853   -0.439143    1.963419
  H      0.599313    1.777008    1.662697
  H      3.171237    0.665457    1.990592
  H      4.248539    0.002305    0.675008
  H      3.610502    1.647566    0.660264
  H     -0.409193    2.932620   -1.527102
  H      1.181640    2.337721   -0.970670
  H      0.226207    1.417898   -2.114391
  H     -0.396110   -1.862367    1.123278
  H     -0.834216    0.388664    2.992052
  H      1.096855   -1.328575   -2.657268
  H     -3.545365   -0.055424    0.231010

 Total Charge           Charge          ....    0
 Multiplicity           Mult            ....    3
 Number of Electrons    NEL             ....  132
 Basis Dimension        Dim             ....  882

ORBITAL ENERGIES
----------------
                 SPIN UP ORBITALS
  NO   OCC          E(Eh)            E(eV)
   0   1.0000     -19.337848      -526.2096
   1   1.0000     -19.336631      -526.1765
   2   1.0000     -19.333094      -526.0802
   3   1.0000     -19.315655      -525.6057
   4   1.0000     -14.567543      -396.4030
   5   1.0000     -14.566507      -396.3748
   6   1.0000     -14.566316      -396.3696
   7   1.0000     -14.554057      -396.0360
   8   1.0000     -10.516187      -286.1600
   9   1.0000     -10.502652      -285.7917
  10   1.0000     -10.484850      -285.3073
  11   1.0000     -10.484050      -285.2855
  12   1.0000     -10.446241      -284.2567
  13   1.0000     -10.440608      -284.1034
  14   1.0000     -10.420666      -283.5607
  15   1.0000     -10.414830      -283.4019
  16   1.0000     -10.381209      -282.4871
  17   1.0000     -10.369938      -282.1804
  18   1.0000      -1.222904       -33.2769
  19   1.0000      -1.215079       -33.0640
  20   1.0000      -1.201251       -32.6877
  21   1.0000      -1.190048       -32.3829
  22   1.0000      -1.125846       -30.6358
  23   1.0000      -1.096483       -29.8368
  24   1.0000      -1.068113       -29.0648
  25   1.0000      -1.051690       -28.6179
  26   1.0000      -0.990525       -26.9536
  27   1.0000      -0.965324       -26.2678
  28   1.0000      -0.896020       -24.3820
  29   1.0000      -0.850434       -23.1415
  30   1.0000      -0.829632       -22.5754
  31   1.0000      -0.806067       -21.9342
  32   1.0000      -0.785216       -21.3668
  33   1.0000      -0.779783       -21.2190
  34   1.0000      -0.699644       -19.0383
  35   1.0000      -0.696584       -18.9550
  36   1.0000      -0.692443       -18.8423
  37   1.0000      -0.689303       -18.7569
  38   1.0000      -0.662612       -18.0306
  39   1.0000      -0.635846       -17.3022
  40   1.0000      -0.620828       -16.8936
  41   1.0000      -0.602817       -16.4035
  42   1.0000      -0.598007       -16.2726
  43   1.0000      -0.590778       -16.0759
  44   1.0000      -0.577214       -15.7068
  45   1.0000      -0.572006       -15.5651
  46   1.0000      -0.570646       -15.5281
  47   1.0000      -0.569028       -15.4840
  48   1.0000      -0.562472       -15.3056
  49   1.0000      -0.556800       -15.1513
  50   1.0000      -0.552092       -15.0232
  51   1.0000      -0.535656       -14.5759
  52   1.0000      -0.534199       -14.5363
  53   1.0000      -0.530337       -14.4312
  54   1.0000      -0.514499       -14.0002
  55   1.0000      -0.508886       -13.8475
  56   1.0000      -0.499176       -13.5833
  57   1.0000      -0.427097       -11.6219
  58   1.0000      -0.416862       -11.3434
  59   1.0000      -0.409626       -11.1465
  60   1.0000      -0.407787       -11.0964
  61   1.0000      -0.399881       -10.8813
  62   1.0000      -0.398392       -10.8408
  63   1.0000      -0.391003       -10.6397
  64   1.0000      -0.382437       -10.4066
  65   1.0000      -0.354330        -9.6418
  66   1.0000      -0.321572        -8.7504
  67   0.0000       0.008651         0.2354
  68   0.0000       0.029091         0.7916
  69   0.0000       0.033539         0.9126
  70   0.0000       0.034188         0.9303
  71   0.0000       0.053749         1.4626

                 SPIN DOWN ORBITALS
  NO   OCC          E(Eh)            E(eV)
   0   1.0000     -19.333260      -526.0848
   1   1.0000     -19.332974      -526.0770
   2   1.0000     -19.332697      -526.0694
   3   1.0000     -19.315550      -525.6028
   4   1.0000     -14.566883      -396.3850
   5   1.0000     -14.566262      -396.3681
   6   1.0000     -14.565930      -396.3591
   7   1.0000     -14.553839      -396.0301
   8   1.0000     -10.516229      -286.1611
   9   1.0000     -10.502702      -285.7930
  10   1.0000     -10.485823      -285.3338
  11   1.0000     -10.484968      -285.3105
  12   1.0000     -10.445778      -284.2441
  13   1.0000     -10.439895      -284.0840
  14   1.0000     -10.409157      -283.2476
  15   1.0000     -10.404014      -283.1076
  16   1.0000     -10.381772      -282.5024
  17   1.0000     -10.370404      -282.1930
  18   1.0000      -1.221714       -33.2445
  19   1.0000      -1.211788       -32.9744
  20   1.0000      -1.196017       -32.5453
  21   1.0000      -1.186129       -32.2762
  22   1.0000      -1.123070       -30.5603
  23   1.0000      -1.094372       -29.7794
  24   1.0000      -1.066117       -29.0105
  25   1.0000      -1.050116       -28.5751
  26   1.0000      -0.977447       -26.5977
  27   1.0000      -0.948629       -25.8135
  28   1.0000      -0.890157       -24.2224
  29   1.0000      -0.845038       -22.9947
  30   1.0000      -0.820657       -22.3312
  31   1.0000      -0.800933       -21.7945
  32   1.0000      -0.783596       -21.3227
  33   1.0000      -0.777870       -21.1669
  34   1.0000      -0.693963       -18.8837
  35   1.0000      -0.691383       -18.8135
  36   1.0000      -0.686548       -18.6819
  37   1.0000      -0.682869       -18.5818
  38   1.0000      -0.647553       -17.6208
  39   1.0000      -0.631844       -17.1933
  40   1.0000      -0.617301       -16.7976
  41   1.0000      -0.596668       -16.2361
  42   1.0000      -0.591811       -16.1040
  43   1.0000      -0.582911       -15.8618
  44   1.0000      -0.569293       -15.4913
  45   1.0000      -0.566220       -15.4076
  46   1.0000      -0.564621       -15.3641
  47   1.0000      -0.559607       -15.2277
  48   1.0000      -0.553471       -15.0607
  49   1.0000      -0.552396       -15.0315
  50   1.0000      -0.545489       -14.8435
  51   1.0000      -0.528448       -14.3798
  52   1.0000      -0.527494       -14.3539
  53   1.0000      -0.521754       -14.1976
  54   1.0000      -0.509023       -13.8512
  55   1.0000      -0.498349       -13.5608
  56   1.0000      -0.493693       -13.4341
  57   1.0000      -0.424211       -11.5434
  58   1.0000      -0.411805       -11.2058
  59   1.0000      -0.401126       -10.9152
  60   1.0000      -0.396433       -10.7875
  61   1.0000      -0.393360       -10.7039
  62   1.0000      -0.390728       -10.6323
  63   1.0000      -0.387339       -10.5400
  64   1.0000      -0.373652       -10.1676
  65   0.0000      -0.070789        -1.9263
  66   0.0000      -0.047768        -1.2998
  67   0.0000       0.008371         0.2278
  68   0.0000       0.028648         0.7796
  69   0.0000       0.033436         0.9098

----------------------------------------------------------------------------------------------------
          SPIN FLIP ABSORPTION SPECTRUM VIA TRANSITION ELECTRIC DIPOLE MOMENTS
----------------------------------------------------------------------------------------------------
     Transition      Energy     Energy  Wavelength fosc(D2)      D2        DX        DY        DZ
                      (eV)      (cm-1)    (nm)                 (au**2)    (au)      (au)      (au)
----------------------------------------------------------------------------------------------------
  1-3A  ->  2-3A    0.183187    1477.5  6768.2   0.000066405   0.01480   0.11461  -0.01564  -0.03763
  1-3A  ->  3-3A    2.311557   18644.0   536.4   0.001015994   0.01794  -0.06605   0.05647  -0.10193

Dispersion correction             ... done (  0.1 sec)

MULLIKEN ATOMIC CHARGES AND SPIN DENSITIES
------------------------------------------
   0 O :   -0.668465    0.048257
   1 O :   -0.672919   -0.053455
   2 O :   -0.615116    0.000423
   3 O :   -0.699865   -0.000423
   4 N :   -0.314015   -0.007260
   5 N :   -0.248308   -0.007272
   6 N :   -0.017616    0.004834
   7 N :    0.038165   -0.011942
   8 C :    0.067898    0.394216
   9 C :    0.575042    0.253165
  10 C :    0.422466   -0.146695
  11 C :    0.414019   -0.232499
  12 C :   -1.437729   -0.005710
  13 C :   -1.533841   -0.036765
  14 C :    0.412580   -0.048994
  15 C :    0.115050   -0.170314
  16 C :    0.378267   -0.002786
  17 C :    0.521808    0.015158
  18 H :    0.605784    0.007260
  19 H :    0.419087   -0.027402
  20 H :    0.337928    0.003111
  21 H :    0.373369    0.008400
  22 H :    0.260314    0.014220
  23 H :    0.390549    0.006924
  24 H :    0.279042   -0.006107
  25 H :    0.339033   -0.001193
  26 H :    0.091302   -0.000778
  27 H :    0.029433    0.002275
  28 H :    0.089813   -0.000536
  29 H :    0.046927    0.001889
Sum of atomic charges       :   -0.0000000

LOEWDIN ATOMIC CHARGES AND SPIN DENSITIES
-----------------------------------------
   0 O :    0.086846    0.041204
   1 O :    0.087999   -0.046177
   2 O :    0.110367    0.000000
   3 O :    0.043791   -0.000369
   4 N :    0.262749   -0.000176
   5 N :    0.270324   -0.000662
   6 N :    0.315171    0.005610
   7 N :    0.337070   -0.010398
   8 C :   -0.020828    0.171215
   9 C :   -0.067853   -0.135679
  10 C :   -0.153364    0.001286
  11 C :   -0.084339   -0.014287
  12 C :    0.198271    0.024243
  13 C :    0.172018   -0.024746
  14 C :   -0.444388    0.024254
  15 C :   -0.386274   -0.029615
  16 C :   -0.446811   -0.000943
  17 C :   -0.491024   -0.000979
  18 H :    0.046540   -0.000111
  19 H :    0.074376   -0.002693
  20 H :    0.003414   -0.000037
  21 H :    0.005046    0.005560
  22 H :   -0.002171    0.007273
  23 H :    0.059679   -0.009557
  24 H :    0.035663    0.000942
  25 H :   -0.011507   -0.004948
  26 H :    0.020111    0.000219
  27 H :   -0.044274    0.000045
  28 H :    0.023861    0.000382
  29 H :   -0.000463   -0.000856

  Mayer bond orders larger than 0.100000
B(  0-O , 14-C ) :   1.3846 B(  1-O , 15-C ) :   1.3616 B(  2-O , 16-C ) :   1.5530
B(  3-O , 17-C ) :   1.5078 B(  4-N ,  8-C ) :   0.2218 B(  4-N ,  9-C ) :   0.1777
B(  4-N , 10-C ) :   0.3730 B(  4-N , 15-C ) :   0.1241 B(  4-N , 16-C ) :   1.0153
B(  4-N , 26-H ) :   1.0734 B(  5-N , 10-C ) :   0.1096 B(  5-N , 11-C ) :   0.3893
B(  5-N , 17-C ) :   1.0546 B(  5-N , 27-H ) :   1.1188 B(  6-N ,  8-C ) :  -0.1420
B(  6-N , 10-C ) :   0.1663 B(  6-N , 14-C ) :   0.9869 B(  6-N , 16-C ) :   0.9315
B(  6-N , 28-H ) :   1.0666 B(  7-N , 11-C ) :   0.1063 B(  7-N , 15-C ) :   0.9322
B(  7-N , 17-C ) :   0.9957 B(  7-N , 29-H ) :   1.0923 B(  8-C ,  9-C ) :   0.2733
B(  8-C , 11-C ) :   0.1360 B(  8-C , 12-C ) :   0.5136 B(  8-C , 13-C ) :   0.1300
B(  8-C , 14-C ) :   0.7226 B(  8-C , 16-C ) :   0.1030 B(  8-C , 18-H ) :  -0.1957
B(  8-C , 20-H ) :  -0.1243 B(  9-C , 10-C ) :   0.2637 B(  9-C , 11-C ) :   0.6409
B(  9-C , 13-C ) :   0.1949 B(  9-C , 15-C ) :   0.5723 B(  9-C , 19-H ) :  -0.1986
B(  9-C , 24-H ) :  -0.1709 B( 10-C , 11-C ) :   0.3064 B( 10-C , 16-C ) :  -0.1324
B( 10-C , 18-H ) :   0.6934 B( 10-C , 19-H ) :  -0.1251 B( 11-C , 13-C ) :  -0.1877
B( 11-C , 18-H ) :  -0.1057 B( 11-C , 19-H ) :   1.0011 B( 12-C , 20-H ) :   0.9526
B( 12-C , 21-H ) :   0.8799 B( 12-C , 22-H ) :   0.9340 B( 13-C , 15-C ) :   0.1109
B( 13-C , 23-H ) :   0.8654 B( 13-C , 24-H ) :   1.0948 B( 13-C , 25-H ) :   0.8955

Dispersion correction           -0.059923854
FINAL SINGLE POINT ENERGY      -908.784169624494

DIPOLE MOMENT
-------------

Method             : TDA/CIS
Type of density    : Electron Density
Level              : Relaxed density
State              :   1
Multiplicity       :   3
Irrep              :   0
Energy             :     0.0000000000000000 Eh
Relativity type    :
Basis              : AO
                                X                 Y                 Z
Electronic contribution:     -8.010691308      -6.228667246      -2.540064245
Nuclear contribution   :      9.554901703       7.476147761       4.013821263
                        -----------------------------------------
Total Dipole Moment    :      1.544210395       1.247480515       1.473757019
                        -----------------------------------------
Magnitude (a.u.)       :      2.472398255
Magnitude (Debye)      :      6.284336939

Rotational constants in cm-1:             0.022976             0.012366             0.011458
Rotational constants in MHz :           688.807330           370.735302           343.506405

                             ****ORCA TERMINATED NORMALLY****
TOTAL RUN TIME: 0 days 0 hours 5 minutes 32 seconds 720 msec
