                         Program Version 6.0.0  -   RELEASE  -
|  1> ! Opt wB97M-D3BJ def2-TZVPPD
|  2> %pal nprocs 8 end %pal nprocs 64 end
|  3> %geom
|  4> Constraints
|  5>     {A 2 1 0 95.08474576271186 C }
|  6> end
|  7> MaxIter 200
|  8> end
|  9> *xyz 0 1
| 10> O   0.8768987054368329 1.021397491498687 0.0
| 11> C   0.7509 -0.4065 0.0
| 12> C   -0.7502 -0.4076 0.0
| 13> H   1.2625 -0.6786 0.9136
| 14> H   1.2625 -0.6787 -0.9136
| 15> H   -1.2614 -0.6806 -0.9136
| 16> H   -1.2614 -0.6805 0.9136
| 17> *
| 18>
| 19>                          ****END OF INPUT****
 Total Charge           Charge          ....    0
 Multiplicity           Mult            ....    1
 Number of Electrons    NEL             ....   24
Dispersion correction           -0.005533271
FINAL SINGLE POINT ENERGY      -153.775430319250
Dispersion correction             ... done (  0.1 sec)
Dispersion correction           -0.005616246
FINAL SINGLE POINT ENERGY      -153.793758457437
Dispersion correction             ... done (  0.1 sec)
Dispersion correction           -0.005661283
FINAL SINGLE POINT ENERGY      -153.803397997079
Dispersion correction             ... done (  0.1 sec)
FINAL SINGLE POINT ENERGY      -153.810566556667
FINAL SINGLE POINT ENERGY      -153.811595758834
FINAL SINGLE POINT ENERGY      -153.811635445653
Dispersion correction             ... done (  0.1 sec)
Dispersion correction           -0.005673062
FINAL SINGLE POINT ENERGY      -153.811640211404
Dispersion correction             ... done (  0.1 sec)
Dispersion correction           -0.005672557
FINAL SINGLE POINT ENERGY      -153.811640954686
Dispersion correction             ... done (  0.1 sec)
                    ***********************HURRAY********************

CARTESIAN COORDINATES (ANGSTROEM)
---------------------------------
  O      0.644612    0.993270   -0.000310
  C      0.759448   -0.340698   -0.000114
  C     -0.649660   -0.589288    0.000112
  H      1.268350   -0.748683    0.884453
  H      1.268168   -0.749152   -0.884569
  H     -1.205739   -0.538356   -0.924793
  H     -1.205380   -0.538196    0.925221

 Multiplicity           Mult            ....    1
 Number of Electrons    NEL             ....   24
 Basis Dimension        Dim             ....  182

ORBITAL ENERGIES
----------------

  NO   OCC          E(Eh)            E(eV)
   0   2.0000     -19.333708      -526.0969
   1   2.0000     -10.438487      -284.0457
   2   2.0000     -10.397020      -282.9173
   3   2.0000      -1.136100       -30.9148
   4   2.0000      -0.875755       -23.8305
   5   2.0000      -0.733924       -19.9711
   6   2.0000      -0.624930       -17.0052
   7   2.0000      -0.576746       -15.6940
   8   2.0000      -0.517271       -14.0757
   9   2.0000      -0.509870       -13.8743
  10   2.0000      -0.377036       -10.2597
  11   2.0000      -0.358383        -9.7521
  12   0.0000      -0.040207        -1.0941
  13   0.0000       0.038305         1.0423
  14   0.0000       0.061034         1.6608
  15   0.0000       0.076523         2.0823
  16   0.0000       0.097997         2.6666

MULLIKEN ATOMIC CHARGES
-----------------------
   0 O :   -0.500468
   1 C :   -0.092544
   2 C :   -0.278102
   3 H :    0.217411
   4 H :    0.217408
   5 H :    0.218160
   6 H :    0.218135
Sum of atomic charges:    0.0000000

LOEWDIN ATOMIC CHARGES
----------------------
   0 O :   -0.015673
   1 C :   -0.380710
   2 C :    0.364743
   3 H :    0.023543
   4 H :    0.023544
   5 H :   -0.007722
   6 H :   -0.007725

  Mayer bond orders larger than 0.100000
B(  0-O ,  1-C ) :   0.6931 B(  0-O ,  2-C ) :   0.9280 B(  1-C ,  2-C ) :   0.7721
B(  1-C ,  3-H ) :   1.0447 B(  1-C ,  4-H ) :   1.0447 B(  2-C ,  5-H ) :   0.9653
B(  2-C ,  6-H ) :   0.9653

Dispersion correction           -0.005672509
FINAL SINGLE POINT ENERGY      -153.811641066929

DIPOLE MOMENT
-------------

Method             : SCF
Type of density    : Electron Density
Multiplicity       :   1
Irrep              :   0
Energy             :  -153.8059685580570033 Eh
Relativity type    :
Basis              : AO
                                X                 Y                 Z
Electronic contribution:      0.254099789       1.398344940      -0.000403317
Nuclear contribution   :     -0.878405616      -2.582383446       0.000687639
                        -----------------------------------------
Total Dipole Moment    :     -0.624305827      -1.184038506       0.000284322
                        -----------------------------------------
Magnitude (a.u.)       :      1.338545864
Magnitude (Debye)      :      3.402313200

Rotational constants in cm-1:             1.120626             0.465653             0.377628
Rotational constants in MHz :         33595.523519         13959.919838         11321.014286

                             ****ORCA TERMINATED NORMALLY****
TOTAL RUN TIME: 0 days 0 hours 1 minutes 57 seconds 67 msec
