                         Program Version 6.0.0  -   RELEASE  -
|  1> ! EnGrad wB97M-D3BJ def2-TZVPPD
|  2> %pal nprocs 8 end%pal nprocs 16 end
|  3> %tddft
|  4>  sf true
|  5>  nroots 2 Iroot 2 end
|  6> *xyz 0 3
|  7> O   0.12562997443093 0.86775879562145 -0.00023878248495
|  8> C   0.67681061266889 -0.37589858139924 0.00010482243952
|  9> C   -0.72898013122725 -0.5619472807368 -0.00012637505243
| 10> H   1.22966733453784 -0.65124638319931 0.89948416085387
| 11> H   1.22935653468648 -0.65139243115023 -0.89946879557524
| 12> H   -1.26539381403149 -0.67358414289676 -0.9271090436574
| 13> H   -1.26489051106539 -0.67208997623911 0.92735401347663
| 14> *
| 15>
| 16>                          ****END OF INPUT****

CARTESIAN COORDINATES (ANGSTROEM)
---------------------------------
  O      0.125630    0.867759   -0.000239
  C      0.676811   -0.375899    0.000105
  C     -0.728980   -0.561947   -0.000126
  H      1.229667   -0.651246    0.899484
  H      1.229357   -0.651392   -0.899469
  H     -1.265394   -0.673584   -0.927109
  H     -1.264891   -0.672090    0.927354

 Total Charge           Charge          ....    0
 Multiplicity           Mult            ....    3
 Number of Electrons    NEL             ....   24
 Basis Dimension        Dim             ....  182

ORBITAL ENERGIES
----------------
                 SPIN UP ORBITALS
  NO   OCC          E(Eh)            E(eV)
   0   1.0000     -19.440821      -529.0116
   1   1.0000     -10.412925      -283.3501
   2   1.0000     -10.339828      -281.3610
   3   1.0000      -1.259867       -34.2827
   4   1.0000      -0.859274       -23.3820
   5   1.0000      -0.759002       -20.6535
   6   1.0000      -0.667812       -18.1721
   7   1.0000      -0.631607       -17.1869
   8   1.0000      -0.555122       -15.1056
   9   1.0000      -0.498677       -13.5697
  10   1.0000      -0.480075       -13.0635
  11   1.0000      -0.460863       -12.5407
  12   1.0000      -0.191461        -5.2099
  13   0.0000       0.038959         1.0601
  14   0.0000       0.062924         1.7123
  15   0.0000       0.071501         1.9456
  16   0.0000       0.086268         2.3475
  17   0.0000       0.112543         3.0625

                 SPIN DOWN ORBITALS
  NO   OCC          E(Eh)            E(eV)
   0   1.0000     -19.408475      -528.1314
   1   1.0000     -10.413592      -283.3682
   2   1.0000     -10.328752      -281.0596
   3   1.0000      -1.193500       -32.4768
   4   1.0000      -0.824658       -22.4401
   5   1.0000      -0.739581       -20.1250
   6   1.0000      -0.616966       -16.7885
   7   1.0000      -0.596482       -16.2311
   8   1.0000      -0.521248       -14.1839
   9   1.0000      -0.472711       -12.8631
  10   1.0000      -0.417353       -11.3567
  11   0.0000      -0.097238        -2.6460
  12   0.0000       0.034964         0.9514
  13   0.0000       0.057442         1.5631
  14   0.0000       0.059812         1.6276
  15   0.0000       0.066940         1.8215

----------------------------------------------------------------------------------------------------
          SPIN FLIP ABSORPTION SPECTRUM VIA TRANSITION ELECTRIC DIPOLE MOMENTS
----------------------------------------------------------------------------------------------------
     Transition      Energy     Energy  Wavelength fosc(D2)      D2        DX        DY        DZ
                      (eV)      (cm-1)    (nm)                 (au**2)    (au)      (au)      (au)
----------------------------------------------------------------------------------------------------
  1-3A  ->  2-3A    5.105143   41175.8   242.9   0.004382209   0.03504   0.00039   0.00027  -0.18718

Dispersion correction             ... done (  0.0 sec)

MULLIKEN ATOMIC CHARGES AND SPIN DENSITIES
------------------------------------------
   0 O :   -0.295399    0.492910
   1 C :    0.139246    0.285202
   2 C :   -0.101069   -0.249746
   3 H :    0.200822    0.019617
   4 H :    0.200519    0.019448
   5 H :   -0.072006   -0.283626
   6 H :   -0.072113   -0.283804
Sum of atomic charges       :    0.0000000

LOEWDIN ATOMIC CHARGES AND SPIN DENSITIES
-----------------------------------------
   0 O :    0.102584    0.568970
   1 C :   -0.115800    0.041667
   2 C :    0.099324   -0.436026
   3 H :    0.029728    0.013353
   4 H :    0.029749    0.013400
   5 H :   -0.072818   -0.100733
   6 H :   -0.072768   -0.100631

  Mayer bond orders larger than 0.100000
B(  0-O ,  1-C ) :   0.7859 B(  0-O ,  2-C ) :   0.6063 B(  1-C ,  2-C ) :   0.6121
B(  1-C ,  3-H ) :   0.9892 B(  1-C ,  4-H ) :   0.9890 B(  2-C ,  5-H ) :   1.1185
B(  2-C ,  6-H ) :   1.1188 B(  5-H ,  6-H ) :   0.2671

Dispersion correction           -0.005248889
FINAL SINGLE POINT ENERGY      -153.663354395483

DIPOLE MOMENT
-------------

Method             : TDA/CIS
Type of density    : Electron Density
Level              : Relaxed density
State              :   2
Multiplicity       :   3
Irrep              :   0
Energy             :     0.0000000000000000 Eh
Relativity type    :
Basis              : AO
                                X                 Y                 Z
Electronic contribution:      0.786248021       2.416270658      -0.000532513
Nuclear contribution   :     -0.177160145      -2.467415824       0.000567123
                        -----------------------------------------
Total Dipole Moment    :      0.609087876      -0.051145166       0.000034610
                        -----------------------------------------
Magnitude (a.u.)       :      0.611231438
Magnitude (Debye)      :      1.553626846

Rotational constants in cm-1:             0.913092             0.649764             0.447417
Rotational constants in MHz :         27373.818479         19479.439254         13413.213994

                             ****ORCA TERMINATED NORMALLY****
TOTAL RUN TIME: 0 days 0 hours 0 minutes 17 seconds 585 msec
