                         Program Version 6.0.0  -   RELEASE  -
|  1> ! EnGrad wB97M-D3BJ def2-TZVPPD
|  2> %pal nprocs 8 end%pal nprocs 16 end
|  3> %tddft
|  4>  sf true
|  5>  nroots 2 Iroot 1 end
|  6> *xyz 0 3
|  7> O   0.22106265848978 0.93529929370115 -0.00124259109557
|  8> C   0.65211202236855 -0.33953102261428 -0.00024147232399
|  9> C   -0.73337615390703 -0.64207014542134 0.0002605593293
| 10> H   1.20933477342964 -0.64459068214614 0.89179045751274
| 11> H   1.20955613424711 -0.64550195988155 -0.89178669781283
| 12> H   -1.27870928199814 -0.69242436038988 -0.92764585036569
| 13> H   -1.27778015262991 -0.68958112324796 0.92886559475602
| 14> *
| 15>
| 16>                          ****END OF INPUT****

CARTESIAN COORDINATES (ANGSTROEM)
---------------------------------
  O      0.221063    0.935299   -0.001243
  C      0.652112   -0.339531   -0.000241
  C     -0.733376   -0.642070    0.000261
  H      1.209335   -0.644591    0.891790
  H      1.209556   -0.645502   -0.891787
  H     -1.278709   -0.692424   -0.927646
  H     -1.277780   -0.689581    0.928866

 Total Charge           Charge          ....    0
 Multiplicity           Mult            ....    3
 Number of Electrons    NEL             ....   24
 Basis Dimension        Dim             ....  182

ORBITAL ENERGIES
----------------
                 SPIN UP ORBITALS
  NO   OCC          E(Eh)            E(eV)
   0   1.0000     -19.417764      -528.3842
   1   1.0000     -10.407904      -283.2135
   2   1.0000     -10.335042      -281.2308
   3   1.0000      -1.227586       -33.4043
   4   1.0000      -0.862804       -23.4781
   5   1.0000      -0.745087       -20.2749
   6   1.0000      -0.651601       -17.7310
   7   1.0000      -0.615154       -16.7392
   8   1.0000      -0.549728       -14.9589
   9   1.0000      -0.502504       -13.6738
  10   1.0000      -0.460992       -12.5442
  11   1.0000      -0.446239       -12.1428
  12   1.0000      -0.246432        -6.7057
  13   0.0000       0.040437         1.1003
  14   0.0000       0.063676         1.7327
  15   0.0000       0.072344         1.9686
  16   0.0000       0.085600         2.3293
  17   0.0000       0.115574         3.1449

                 SPIN DOWN ORBITALS
  NO   OCC          E(Eh)            E(eV)
   0   1.0000     -19.387844      -527.5701
   1   1.0000     -10.408953      -283.2420
   2   1.0000     -10.322684      -280.8945
   3   1.0000      -1.164911       -31.6988
   4   1.0000      -0.828304       -22.5393
   5   1.0000      -0.724666       -19.7192
   6   1.0000      -0.606210       -16.4958
   7   1.0000      -0.578333       -15.7372
   8   1.0000      -0.523528       -14.2459
   9   1.0000      -0.471664       -12.8346
  10   1.0000      -0.396912       -10.8005
  11   0.0000      -0.081624        -2.2211
  12   0.0000       0.038053         1.0355
  13   0.0000       0.043976         1.1966
  14   0.0000       0.063419         1.7257
  15   0.0000       0.070307         1.9132

----------------------------------------------------------------------------------------------------
          SPIN FLIP ABSORPTION SPECTRUM VIA TRANSITION ELECTRIC DIPOLE MOMENTS
----------------------------------------------------------------------------------------------------
     Transition      Energy     Energy  Wavelength fosc(D2)      D2        DX        DY        DZ
                      (eV)      (cm-1)    (nm)                 (au**2)    (au)      (au)      (au)
----------------------------------------------------------------------------------------------------
  1-3A  ->  2-3A    4.635066   37384.3   267.5   0.218618477   1.92519   0.82288   1.11716  -0.00136

Dispersion correction             ... done (  0.0 sec)

MULLIKEN ATOMIC CHARGES AND SPIN DENSITIES
------------------------------------------
   0 O :   -0.485850   -0.044522
   1 C :   -0.141769   -0.066923
   2 C :   -0.329076    0.017810
   3 H :    0.228399    0.031832
   4 H :    0.228434    0.031757
   5 H :    0.249865    0.014960
   6 H :    0.249997    0.015086
Sum of atomic charges       :   -0.0000000

LOEWDIN ATOMIC CHARGES AND SPIN DENSITIES
-----------------------------------------
   0 O :   -0.058216   -0.077077
   1 C :   -0.307523   -0.006820
   2 C :    0.306737    0.065037
   3 H :    0.029905    0.005467
   4 H :    0.029901    0.005448
   5 H :   -0.000396    0.003971
   6 H :   -0.000408    0.003975

  Mayer bond orders larger than 0.100000
B(  0-O ,  1-C ) :   0.7332 B(  0-O ,  2-C ) :   0.9142 B(  1-C ,  2-C ) :   0.7887
B(  1-C ,  3-H ) :   1.0311 B(  1-C ,  4-H ) :   1.0309 B(  2-C ,  5-H ) :   0.9348
B(  2-C ,  6-H ) :   0.9348

Dispersion correction           -0.005479077
FINAL SINGLE POINT ENERGY      -153.824344136635

DIPOLE MOMENT
-------------

Method             : TDA/CIS
Type of density    : Electron Density
Level              : Relaxed density
State              :   1
Multiplicity       :   3
Irrep              :   0
Energy             :     0.0000000000000000 Eh
Relativity type    :
Basis              : AO
                                X                 Y                 Z
Electronic contribution:     -0.023235908       1.258735726      -0.001540340
Nuclear contribution   :     -0.332957899      -2.534148896       0.002704599
                        -----------------------------------------
Total Dipole Moment    :     -0.356193807      -1.275413170       0.001164259
                        -----------------------------------------
Magnitude (a.u.)       :      1.324218312
Magnitude (Debye)      :      3.365895458

Rotational constants in cm-1:             0.997855             0.554997             0.415342
Rotational constants in MHz :         29914.948193         16638.382875         12451.640641

                             ****ORCA TERMINATED NORMALLY****
TOTAL RUN TIME: 0 days 0 hours 0 minutes 16 seconds 549 msec
