                         Program Version 6.0.0  -   RELEASE  -
|  1> ! Engrad def2-TZVPPD wB97M-D3BJ
|  2> %pal nprocs 8 end%pal nprocs 64 end
|  3>  %tddft nroots 2 Iroot 2
|  4> sf true
|  5> end
|  6> *xyz 0 3
|  7> O   2.51836094697121 1.23975762846279 -0.42229952288655
|  8> O   -0.80570113531787 0.81546112468307 -2.38931243044884
|  9> O   0.59586029855045 -2.73216554597413 -1.50855283034095
| 10> O   -2.49498860601411 -1.60057354428808 1.07164764430267
| 11> N   0.60332225916267 -2.08235085528349 0.67371480429945
| 12> N   -1.84622447594691 0.5484576726762 1.44551838754367
| 13> N   1.62596812448623 -0.78025389214707 -0.92704309702984
| 14> N   -1.69780132531753 -0.3475756218645 -0.66373186865121
| 15> C   1.41759895089714 0.06418769012333 1.31890043093222
| 16> C   -0.84234685436455 1.87498832290691 -0.26339097083576
| 17> C   0.810215594336 -1.09329228713542 1.60660602181903
| 18> C   -1.22543419663373 1.69464941383535 1.00509743700733
| 19> C   1.69875244153286 1.13534610948556 2.32132753762682
| 20> C   -0.17683953124889 3.11367118043073 -0.76840980561111
| 21> C   1.91189115193361 0.25905150052843 -0.04451699089038
| 22> C   -1.0946741943006 0.79056604903238 -1.21454954777663
| 23> C   0.91756895079905 -1.93223096586294 -0.65976014420387
| 24> C   -2.05581909161347 -0.55162362716347 0.64711326037954
| 25> H   0.43548873310221 -1.31741749733099 2.59393752594873
| 26> H   -1.07983270533507 2.45310246169658 1.75868131032001
| 27> H   1.38711811873888 2.10521421218058 1.93948256244341
| 28> H   1.18466314346454 0.93573342868874 3.25956759033032
| 29> H   2.76662126802972 1.20874431232639 2.52038108970645
| 30> H   -0.75127833118337 3.54871354922043 -1.58375852887415
| 31> H   -0.08070797249499 3.84911699644799 0.02723696991526
| 32> H   0.8147620684902 2.88086255142968 -1.14951922683871
| 33> H   -0.01477778551508 -2.84751169438874 0.88275918031415
| 34> H   -2.09898536752422 0.43610725994037 2.4100403197034
| 35> H   1.85067733039208 -0.62014957432845 -1.8970980470585
| 36> H   -1.82085780807646 -1.13358635832828 -1.28546906114597
| 37> *
| 38>
| 39>                          ****END OF INPUT****

CARTESIAN COORDINATES (ANGSTROEM)
---------------------------------
  O      2.518361    1.239758   -0.422300
  O     -0.805701    0.815461   -2.389312
  O      0.595860   -2.732166   -1.508553
  O     -2.494989   -1.600574    1.071648
  N      0.603322   -2.082351    0.673715
  N     -1.846224    0.548458    1.445518
  N      1.625968   -0.780254   -0.927043
  N     -1.697801   -0.347576   -0.663732
  C      1.417599    0.064188    1.318900
  C     -0.842347    1.874988   -0.263391
  C      0.810216   -1.093292    1.606606
  C     -1.225434    1.694649    1.005097
  C      1.698752    1.135346    2.321328
  C     -0.176840    3.113671   -0.768410
  C      1.911891    0.259052   -0.044517
  C     -1.094674    0.790566   -1.214550
  C      0.917569   -1.932231   -0.659760
  C     -2.055819   -0.551624    0.647113
  H      0.435489   -1.317417    2.593938
  H     -1.079833    2.453102    1.758681
  H      1.387118    2.105214    1.939483
  H      1.184663    0.935733    3.259568
  H      2.766621    1.208744    2.520381
  H     -0.751278    3.548714   -1.583759
  H     -0.080708    3.849117    0.027237
  H      0.814762    2.880863   -1.149519
  H     -0.014778   -2.847512    0.882759
  H     -2.098985    0.436107    2.410040
  H      1.850677   -0.620150   -1.897098
  H     -1.820858   -1.133586   -1.285469

 Total Charge           Charge          ....    0
 Multiplicity           Mult            ....    3
 Number of Electrons    NEL             ....  132
 Basis Dimension        Dim             ....  882

ORBITAL ENERGIES
----------------
                 SPIN UP ORBITALS
  NO   OCC          E(Eh)            E(eV)
   0   1.0000     -19.339310      -526.2494
   1   1.0000     -19.321851      -525.7743
   2   1.0000     -19.320406      -525.7350
   3   1.0000     -19.318976      -525.6960
   4   1.0000     -14.599030      -397.2598
   5   1.0000     -14.576440      -396.6451
   6   1.0000     -14.564302      -396.3148
   7   1.0000     -14.555561      -396.0769
   8   1.0000     -10.517054      -286.1836
   9   1.0000     -10.506145      -285.8867
  10   1.0000     -10.477249      -285.1004
  11   1.0000     -10.458681      -284.5952
  12   1.0000     -10.431320      -283.8507
  13   1.0000     -10.408978      -283.2427
  14   1.0000     -10.402617      -283.0696
  15   1.0000     -10.379131      -282.4305
  16   1.0000     -10.361718      -281.9567
  17   1.0000     -10.361077      -281.9392
  18   1.0000      -1.232623       -33.5414
  19   1.0000      -1.219797       -33.1924
  20   1.0000      -1.192772       -32.4570
  21   1.0000      -1.190681       -32.4001
  22   1.0000      -1.131052       -30.7775
  23   1.0000      -1.117494       -30.4086
  24   1.0000      -1.065547       -28.9950
  25   1.0000      -1.064643       -28.9704
  26   1.0000      -0.977446       -26.5977
  27   1.0000      -0.956826       -26.0366
  28   1.0000      -0.856610       -23.3096
  29   1.0000      -0.848911       -23.1000
  30   1.0000      -0.813323       -22.1316
  31   1.0000      -0.808294       -21.9948
  32   1.0000      -0.794821       -21.6282
  33   1.0000      -0.788762       -21.4633
  34   1.0000      -0.705505       -19.1978
  35   1.0000      -0.695066       -18.9137
  36   1.0000      -0.692431       -18.8420
  37   1.0000      -0.688664       -18.7395
  38   1.0000      -0.645428       -17.5630
  39   1.0000      -0.636438       -17.3183
  40   1.0000      -0.635233       -17.2856
  41   1.0000      -0.599409       -16.3107
  42   1.0000      -0.598975       -16.2989
  43   1.0000      -0.593381       -16.1467
  44   1.0000      -0.576076       -15.6758
  45   1.0000      -0.574565       -15.6347
  46   1.0000      -0.560808       -15.2604
  47   1.0000      -0.553659       -15.0658
  48   1.0000      -0.550902       -14.9908
  49   1.0000      -0.549033       -14.9400
  50   1.0000      -0.528642       -14.3851
  51   1.0000      -0.524553       -14.2738
  52   1.0000      -0.520553       -14.1650
  53   1.0000      -0.517430       -14.0800
  54   1.0000      -0.506073       -13.7710
  55   1.0000      -0.504068       -13.7164
  56   1.0000      -0.497208       -13.5297
  57   1.0000      -0.472895       -12.8681
  58   1.0000      -0.426739       -11.6121
  59   1.0000      -0.412957       -11.2371
  60   1.0000      -0.410522       -11.1709
  61   1.0000      -0.397201       -10.8084
  62   1.0000      -0.391583       -10.6555
  63   1.0000      -0.388385       -10.5685
  64   1.0000      -0.384853       -10.4724
  65   1.0000      -0.344696        -9.3797
  66   1.0000      -0.212004        -5.7689
  67   0.0000       0.011433         0.3111
  68   0.0000       0.021612         0.5881
  69   0.0000       0.033048         0.8993
  70   0.0000       0.039379         1.0715
  71   0.0000       0.040065         1.0902

                 SPIN DOWN ORBITALS
  NO   OCC          E(Eh)            E(eV)
   0   1.0000     -19.337492      -526.1999
   1   1.0000     -19.321812      -525.7732
   2   1.0000     -19.318920      -525.6945
   3   1.0000     -19.314083      -525.5629
   4   1.0000     -14.594503      -397.1366
   5   1.0000     -14.576369      -396.6432
   6   1.0000     -14.564300      -396.3148
   7   1.0000     -14.554605      -396.0509
   8   1.0000     -10.517367      -286.1921
   9   1.0000     -10.506156      -285.8870
  10   1.0000     -10.477249      -285.1004
  11   1.0000     -10.458251      -284.5835
  12   1.0000     -10.431221      -283.8479
  13   1.0000     -10.399595      -282.9874
  14   1.0000     -10.392047      -282.7820
  15   1.0000     -10.379139      -282.4307
  16   1.0000     -10.361593      -281.9533
  17   1.0000     -10.361476      -281.9501
  18   1.0000      -1.228599       -33.4319
  19   1.0000      -1.219599       -33.1870
  20   1.0000      -1.190829       -32.4041
  21   1.0000      -1.183128       -32.1945
  22   1.0000      -1.120716       -30.4962
  23   1.0000      -1.117236       -30.4015
  24   1.0000      -1.064585       -28.9688
  25   1.0000      -1.060193       -28.8493
  26   1.0000      -0.957786       -26.0627
  27   1.0000      -0.951303       -25.8863
  28   1.0000      -0.849326       -23.1113
  29   1.0000      -0.844596       -22.9826
  30   1.0000      -0.809042       -22.0152
  31   1.0000      -0.802543       -21.8383
  32   1.0000      -0.788772       -21.4636
  33   1.0000      -0.787376       -21.4256
  34   1.0000      -0.693977       -18.8841
  35   1.0000      -0.692377       -18.8405
  36   1.0000      -0.688659       -18.7394
  37   1.0000      -0.686561       -18.6823
  38   1.0000      -0.637894       -17.3580
  39   1.0000      -0.632793       -17.2192
  40   1.0000      -0.628621       -17.1056
  41   1.0000      -0.594451       -16.1758
  42   1.0000      -0.591360       -16.0917
  43   1.0000      -0.588872       -16.0240
  44   1.0000      -0.568936       -15.4815
  45   1.0000      -0.561972       -15.2920
  46   1.0000      -0.559004       -15.2113
  47   1.0000      -0.550472       -14.9791
  48   1.0000      -0.543090       -14.7782
  49   1.0000      -0.539232       -14.6732
  50   1.0000      -0.520339       -14.1592
  51   1.0000      -0.519432       -14.1345
  52   1.0000      -0.514399       -13.9975
  53   1.0000      -0.506099       -13.7717
  54   1.0000      -0.505549       -13.7567
  55   1.0000      -0.500014       -13.6061
  56   1.0000      -0.471224       -12.8227
  57   1.0000      -0.455010       -12.3814
  58   1.0000      -0.422741       -11.5034
  59   1.0000      -0.412346       -11.2205
  60   1.0000      -0.397399       -10.8138
  61   1.0000      -0.386264       -10.5108
  62   1.0000      -0.384816       -10.4714
  63   1.0000      -0.379897       -10.3375
  64   1.0000      -0.343377        -9.3438
  65   0.0000      -0.109496        -2.9795
  66   0.0000       0.011147         0.3033
  67   0.0000       0.023370         0.6359
  68   0.0000       0.031806         0.8655
  69   0.0000       0.038317         1.0427

----------------------------------------------------------------------------------------------------
          SPIN FLIP ABSORPTION SPECTRUM VIA TRANSITION ELECTRIC DIPOLE MOMENTS
----------------------------------------------------------------------------------------------------
     Transition      Energy     Energy  Wavelength fosc(D2)      D2        DX        DY        DZ
                      (eV)      (cm-1)    (nm)                 (au**2)    (au)      (au)      (au)
----------------------------------------------------------------------------------------------------
  1-3A  ->  2-3A    4.260762   34365.4   291.0   0.001312589   0.01257  -0.01701   0.03769   0.10423

Dispersion correction             ... done (  0.1 sec)

MULLIKEN ATOMIC CHARGES AND SPIN DENSITIES
------------------------------------------
   0 O :   -0.684588   -0.000304
   1 O :   -0.685580    0.007307
   2 O :   -0.647011   -0.000116
   3 O :   -0.646288    0.002503
   4 N :   -0.047599   -0.001132
   5 N :    0.102528    0.030715
   6 N :    0.063151   -0.004482
   7 N :    0.021693   -0.011701
   8 C :    0.832683   -0.028207
   9 C :    1.280833    0.061730
  10 C :    0.089437    0.007181
  11 C :   -0.580876    0.045689
  12 C :   -1.487420   -0.000013
  13 C :   -1.317327   -0.024672
  14 C :    0.257900    0.017559
  15 C :    0.238763   -0.129242
  16 C :    0.366078    0.000575
  17 C :    0.448480   -0.003525
  18 H :    0.179330    0.001669
  19 H :    0.147307    0.003984
  20 H :    0.242441    0.000690
  21 H :    0.336042   -0.000222
  22 H :    0.375802   -0.001170
  23 H :    0.363804    0.008482
  24 H :    0.330846   -0.002218
  25 H :    0.254132    0.017655
  26 H :    0.059618    0.000181
  27 H :    0.041609   -0.000708
  28 H :    0.036504   -0.000333
  29 H :    0.027712    0.002126
Sum of atomic charges       :    0.0000000

LOEWDIN ATOMIC CHARGES AND SPIN DENSITIES
-----------------------------------------
   0 O :    0.085163   -0.000337
   1 O :    0.081712    0.005815
   2 O :    0.088767   -0.000191
   3 O :    0.093147    0.001789
   4 N :    0.279912   -0.000105
   5 N :    0.313009    0.020301
   6 N :    0.346586   -0.000202
   7 N :    0.320842   -0.007033
   8 C :   -0.146072   -0.000643
   9 C :   -0.095029    0.006634
  10 C :    0.043901   -0.000021
  11 C :   -0.001978   -0.012781
  12 C :    0.170094   -0.000777
  13 C :    0.219714    0.001867
  14 C :   -0.396062   -0.000042
  15 C :   -0.433020   -0.007736
  16 C :   -0.482819   -0.000037
  17 C :   -0.482967   -0.003040
  18 H :    0.041408    0.000033
  19 H :    0.005505   -0.006028
  20 H :   -0.016867   -0.000178
  21 H :   -0.004400   -0.000055
  22 H :    0.002271   -0.000219
  23 H :    0.013917    0.000900
  24 H :   -0.002168   -0.000315
  25 H :   -0.002111    0.001106
  26 H :   -0.020342   -0.000013
  27 H :   -0.007995    0.002152
  28 H :   -0.001795   -0.000049
  29 H :   -0.012321   -0.000797

  Mayer bond orders larger than 0.100000
B(  0-O , 14-C ) :   1.4564 B(  1-O , 15-C ) :   1.2691 B(  2-O , 16-C ) :   1.5552
B(  3-O , 17-C ) :   1.5344 B(  4-N , 10-C ) :   0.8269 B(  4-N , 16-C ) :   1.0213
B(  4-N , 26-H ) :   1.1102 B(  5-N , 11-C ) :   0.9136 B(  5-N , 17-C ) :   0.9813
B(  5-N , 27-H ) :   1.0964 B(  6-N , 14-C ) :   1.0473 B(  6-N , 16-C ) :   0.9046
B(  6-N , 28-H ) :   1.1054 B(  7-N , 15-C ) :   0.8247 B(  7-N , 16-C ) :   0.1104
B(  7-N , 17-C ) :   0.9592 B(  7-N , 29-H ) :   1.1262 B(  8-C , 10-C ) :   1.0606
B(  8-C , 12-C ) :   0.3763 B(  8-C , 14-C ) :   0.7148 B(  9-C , 11-C ) :   0.4746
B(  9-C , 13-C ) :   0.3828 B(  9-C , 15-C ) :   0.8189 B(  9-C , 19-H ) :  -0.1399
B(  9-C , 24-H ) :  -0.1177 B( 10-C , 12-C ) :  -0.2008 B( 10-C , 18-H ) :   1.1223
B( 11-C , 13-C ) :  -0.1714 B( 11-C , 14-C ) :   0.1116 B( 11-C , 19-H ) :   1.1978
B( 12-C , 14-C ) :  -0.1089 B( 12-C , 20-H ) :   1.0168 B( 12-C , 21-H ) :   1.0145
B( 12-C , 22-H ) :   0.8790 B( 13-C , 23-H ) :   0.8629 B( 13-C , 24-H ) :   1.0472
B( 13-C , 25-H ) :   0.9375

Dispersion correction           -0.060165245
FINAL SINGLE POINT ENERGY      -908.769944681863

DIPOLE MOMENT
-------------

Method             : TDA/CIS
Type of density    : Electron Density
Level              : Relaxed density
State              :   2
Multiplicity       :   3
Irrep              :   0
Energy             :     0.0000000000000000 Eh
Relativity type    :
Basis              : AO
                                X                 Y                 Z
Electronic contribution:     -2.877388061      -9.777355327      -5.726346587
Nuclear contribution   :      2.532250581      10.641104893       8.287545570
                        -----------------------------------------
Total Dipole Moment    :     -0.345137480       0.863749566       2.561198982
                        -----------------------------------------
Magnitude (a.u.)       :      2.724871267
Magnitude (Debye)      :      6.926072336

Rotational constants in cm-1:             0.016937             0.016404             0.014086
Rotational constants in MHz :           507.744469           491.772125           422.300935

                             ****ORCA TERMINATED NORMALLY****
TOTAL RUN TIME: 0 days 0 hours 5 minutes 44 seconds 525 msec
