                         Program Version 6.0.0  -   RELEASE  -
|  1> ! Engrad def2-TZVPPD wB97M-D3BJ
|  2> %pal nprocs 8 end%pal nprocs 32 end
|  3> %tddft Nroots 2 Iroot 2
|  4> sf true
|  5> end
|  6> *xyz 0 3
|  7> O   -0.24128692 0.94827611 -0.50270615
|  8> C   0.46035594 -1.15685199 0.05279824
|  9> C   -0.23006396 0.03095169 0.47941525
| 10> H   1.57262024 -1.25659205 0.05674326
| 11> H   -0.15247089 -1.95601538 -0.47614956
| 12> H   -1.29180924 -0.20590775 0.71024937
| 13> H   0.03990567 0.60391233 1.34748696
| 14> *
| 15>
| 16>                          ****END OF INPUT****

CARTESIAN COORDINATES (ANGSTROEM)
---------------------------------
  O     -0.241287    0.948276   -0.502706
  C      0.460356   -1.156852    0.052798
  C     -0.230064    0.030952    0.479415
  H      1.572620   -1.256592    0.056743
  H     -0.152471   -1.956015   -0.476150
  H     -1.291809   -0.205908    0.710249
  H      0.039906    0.603912    1.347487

 Total Charge           Charge          ....    0
 Multiplicity           Mult            ....    3
 Number of Electrons    NEL             ....   24
 Basis Dimension        Dim             ....  182

ORBITAL ENERGIES
----------------
                 SPIN UP ORBITALS
  NO   OCC          E(Eh)            E(eV)
   0   1.0000     -19.382161      -527.4154
   1   1.0000     -10.406152      -283.1658
   2   1.0000     -10.371704      -282.2284
   3   1.0000      -1.179999       -32.1094
   4   1.0000      -0.876591       -23.8532
   5   1.0000      -0.735905       -20.0250
   6   1.0000      -0.626819       -17.0566
   7   1.0000      -0.588188       -16.0054
   8   1.0000      -0.554446       -15.0872
   9   1.0000      -0.514803       -14.0085
  10   1.0000      -0.422519       -11.4973
  11   1.0000      -0.415119       -11.2960
  12   1.0000      -0.327569        -8.9136
  13   0.0000       0.040629         1.1056
  14   0.0000       0.060557         1.6478
  15   0.0000       0.074826         2.0361
  16   0.0000       0.088996         2.4217
  17   0.0000       0.115830         3.1519

                 SPIN DOWN ORBITALS
  NO   OCC          E(Eh)            E(eV)
   0   1.0000     -19.357338      -526.7399
   1   1.0000     -10.407376      -283.1991
   2   1.0000     -10.358643      -281.8730
   3   1.0000      -1.126650       -30.6577
   4   1.0000      -0.842168       -22.9165
   5   1.0000      -0.709851       -19.3160
   6   1.0000      -0.589244       -16.0342
   7   1.0000      -0.561960       -15.2917
   8   1.0000      -0.526941       -14.3388
   9   1.0000      -0.476671       -12.9709
  10   1.0000      -0.381042       -10.3687
  11   0.0000      -0.050481        -1.3736
  12   0.0000      -0.002758        -0.0750
  13   0.0000       0.039734         1.0812
  14   0.0000       0.061378         1.6702
  15   0.0000       0.074850         2.0368

----------------------------------------------------------------------------------------------------
          SPIN FLIP ABSORPTION SPECTRUM VIA TRANSITION ELECTRIC DIPOLE MOMENTS
----------------------------------------------------------------------------------------------------
     Transition      Energy     Energy  Wavelength fosc(D2)      D2        DX        DY        DZ
                      (eV)      (cm-1)    (nm)                 (au**2)    (au)      (au)      (au)
----------------------------------------------------------------------------------------------------
  1-3A  ->  2-3A    0.239758    1933.8  5171.2   0.000050775   0.00864  -0.00450  -0.09138  -0.01657

Dispersion correction             ... done (  0.1 sec)

MULLIKEN ATOMIC CHARGES AND SPIN DENSITIES
------------------------------------------
   0 O :   -0.351098    0.747249
   1 C :   -0.229164   -0.797646
   2 C :   -0.027570    0.159612
   3 H :    0.109625   -0.097658
   4 H :    0.098982   -0.077656
   5 H :    0.178054    0.052713
   6 H :    0.221171    0.013386
Sum of atomic charges       :    0.0000000

LOEWDIN ATOMIC CHARGES AND SPIN DENSITIES
-----------------------------------------
   0 O :    0.068071    0.697271
   1 C :    0.259097   -0.628435
   2 C :   -0.321005    0.012536
   3 H :   -0.044550   -0.075742
   4 H :   -0.025734   -0.071225
   5 H :    0.048346    0.042760
   6 H :    0.015775    0.022835

  Mayer bond orders larger than 0.100000
B(  0-O ,  2-C ) :   0.9267 B(  1-C ,  2-C ) :   0.7980 B(  1-C ,  3-H ) :   1.0464
B(  1-C ,  4-H ) :   1.0550 B(  2-C ,  5-H ) :   0.9596 B(  2-C ,  6-H ) :   0.9382

Dispersion correction           -0.005521031
FINAL SINGLE POINT ENERGY      -153.742683628962

DIPOLE MOMENT
-------------

Method             : TDA/CIS
Type of density    : Electron Density
Level              : Relaxed density
State              :   2
Multiplicity       :   3
Irrep              :   0
Energy             :     0.0000000000000000 Eh
Relativity type    :
Basis              : AO
                                X                 Y                 Z
Electronic contribution:     -0.313735711       2.127511823      -1.037184809
Nuclear contribution   :      0.233359604      -2.524897969       1.529517511
                        -----------------------------------------
Total Dipole Moment    :     -0.080376107      -0.397386145       0.492332702
                        -----------------------------------------
Magnitude (a.u.)       :      0.637783315
Magnitude (Debye)      :      1.621116354

Rotational constants in cm-1:             1.370422             0.374682             0.332448
Rotational constants in MHz :         41084.218060         11232.671367          9966.553932

                             ****ORCA TERMINATED NORMALLY****
TOTAL RUN TIME: 0 days 0 hours 0 minutes 17 seconds 247 msec
