                         Program Version 6.0.0  -   RELEASE  -
|  1> ! EnGrad wB97M-D3BJ def2-TZVPPD
|  2> %pal nprocs 8 end%pal nprocs 16 end
|  3> %tddft
|  4>  sf true
|  5>  nroots 2 Iroot 1 end
|  6> *xyz 0 3
|  7> O   0.53246252478905 1.10123561950444 0.21154692229094
|  8> C   0.58649344946657 -0.21097201249424 0.01471913349268
|  9> C   -0.75448685350188 -0.74295687905916 0.009707259492
| 10> H   1.1927415745829 -0.79005339417166 0.75551656196678
| 11> H   1.07068521538712 -0.46449982942061 -0.95063654266344
| 12> H   -1.22779155450544 -1.1650555003602 -0.8696166498983
| 13> H   -1.39790435621831 -0.44609800399857 0.82876331531934
| 14> *
| 15>
| 16>                          ****END OF INPUT****

CARTESIAN COORDINATES (ANGSTROEM)
---------------------------------
  O      0.532463    1.101236    0.211547
  C      0.586493   -0.210972    0.014719
  C     -0.754487   -0.742957    0.009707
  H      1.192742   -0.790053    0.755517
  H      1.070685   -0.464500   -0.950637
  H     -1.227792   -1.165056   -0.869617
  H     -1.397904   -0.446098    0.828763

 Total Charge           Charge          ....    0
 Multiplicity           Mult            ....    3
 Number of Electrons    NEL             ....   24
 Basis Dimension        Dim             ....  182

ORBITAL ENERGIES
----------------
                 SPIN UP ORBITALS
  NO   OCC          E(Eh)            E(eV)
   0   1.0000     -19.389928      -527.6268
   1   1.0000     -10.409797      -283.2650
   2   1.0000     -10.357986      -281.8551
   3   1.0000      -1.188645       -32.3447
   4   1.0000      -0.881612       -23.9899
   5   1.0000      -0.733256       -19.9529
   6   1.0000      -0.624307       -16.9883
   7   1.0000      -0.598131       -16.2760
   8   1.0000      -0.561823       -15.2880
   9   1.0000      -0.511535       -13.9196
  10   1.0000      -0.437012       -11.8917
  11   1.0000      -0.415345       -11.3021
  12   1.0000      -0.320012        -8.7080
  13   0.0000       0.041209         1.1214
  14   0.0000       0.062360         1.6969
  15   0.0000       0.076185         2.0731
  16   0.0000       0.086450         2.3524
  17   0.0000       0.113945         3.1006

                 SPIN DOWN ORBITALS
  NO   OCC          E(Eh)            E(eV)
   0   1.0000     -19.366109      -526.9786
   1   1.0000     -10.411195      -283.3030
   2   1.0000     -10.344734      -281.4945
   3   1.0000      -1.136364       -30.9220
   4   1.0000      -0.847949       -23.0739
   5   1.0000      -0.707002       -19.2385
   6   1.0000      -0.593552       -16.1514
   7   1.0000      -0.555203       -15.1078
   8   1.0000      -0.536855       -14.6086
   9   1.0000      -0.483243       -13.1497
  10   1.0000      -0.382818       -10.4170
  11   0.0000      -0.063629        -1.7314
  12   0.0000       0.003413         0.0929
  13   0.0000       0.040096         1.0911
  14   0.0000       0.062665         1.7052
  15   0.0000       0.075924         2.0660

----------------------------------------------------------------------------------------------------
          SPIN FLIP ABSORPTION SPECTRUM VIA TRANSITION ELECTRIC DIPOLE MOMENTS
----------------------------------------------------------------------------------------------------
     Transition      Energy     Energy  Wavelength fosc(D2)      D2        DX        DY        DZ
                      (eV)      (cm-1)    (nm)                 (au**2)    (au)      (au)      (au)
----------------------------------------------------------------------------------------------------
  1-3A  ->  2-3A    0.611461    4931.8  2027.7   0.000110503   0.00738  -0.04103   0.00126   0.07544

Dispersion correction             ... done (  0.0 sec)

MULLIKEN ATOMIC CHARGES AND SPIN DENSITIES
------------------------------------------
   0 O :   -0.511986   -0.422298
   1 C :   -0.066607   -0.048501
   2 C :   -0.369437    0.369289
   3 H :    0.225485    0.066953
   4 H :    0.224715   -0.052957
   5 H :    0.215258    0.044601
   6 H :    0.282572    0.042913
Sum of atomic charges       :    0.0000000

LOEWDIN ATOMIC CHARGES AND SPIN DENSITIES
-----------------------------------------
   0 O :   -0.036537   -0.424268
   1 C :   -0.393687    0.001754
   2 C :    0.382807    0.367668
   3 H :    0.044183    0.021984
   4 H :    0.032350   -0.052468
   5 H :   -0.012122    0.043075
   6 H :   -0.016994    0.042253

  Mayer bond orders larger than 0.100000
B(  0-O ,  1-C ) :   0.9696 B(  0-O ,  2-C ) :   0.5034 B(  1-C ,  2-C ) :   0.8156
B(  1-C ,  3-H ) :   0.9818 B(  1-C ,  4-H ) :   0.9956 B(  2-C ,  5-H ) :   0.9607
B(  2-C ,  6-H ) :   0.9379

Dispersion correction           -0.005609362
FINAL SINGLE POINT ENERGY      -153.767401294637

DIPOLE MOMENT
-------------

Method             : TDA/CIS
Type of density    : Electron Density
Level              : Relaxed density
State              :   1
Multiplicity       :   3
Irrep              :   0
Energy             :     0.0000000000000000 Eh
Relativity type    :
Basis              : AO
                                X                 Y                 Z
Electronic contribution:      0.257936635       1.511623803       0.298657392
Nuclear contribution   :     -0.856753971      -2.952113426      -0.512456635
                        -----------------------------------------
Total Dipole Moment    :     -0.598817335      -1.440489623      -0.213799244
                        -----------------------------------------
Magnitude (a.u.)       :      1.574580157
Magnitude (Debye)      :      4.002264694

Rotational constants in cm-1:             1.356794             0.390713             0.336146
Rotational constants in MHz :         40675.674601         11713.267702         10077.402186

                             ****ORCA TERMINATED NORMALLY****
TOTAL RUN TIME: 0 days 0 hours 0 minutes 19 seconds 551 msec
