                         Program Version 6.0.0  -   RELEASE  -
|  1> ! opt def2-TZVPPD wB97M-D3BJ
|  2> %pal nprocs 8 end%pal nprocs 32 end
|  3> %geom Constraints
|  4> {B 9 8 2.9 C}
|  5> {A 8 9 11 61.42857142857143 C}
|  6> end
|  7> MaxIter 300
|  8> end
|  9> *xyz 0 1
| 10> O   2.98579685529314 0.88758230159078 -0.86184571092411
| 11> O   -0.03983205397054 0.68929041702508 -2.10362336723772
| 12> O   0.93431434349854 -3.13274393337945 -0.68767288184107
| 13> O   -3.75829998830163 -0.84727300865116 -0.0472717177755
| 14> N   0.21184538946282 -1.54604804365365 0.7617588924445
| 15> N   -2.13631993928911 0.03188773433438 1.27350571071531
| 16> N   2.02598672506387 -1.14318467211666 -0.64531219127023
| 17> N   -1.91814233924584 0.03137116037665 -1.04498946748291
| 18> C   1.18097737274226 0.71693507080484 0.70173889017321
| 19> C   -0.20686880480777 1.27024627933494 0.21345042231937
| 20> C   0.41441080275909 -0.34173258966541 1.52336266615173
| 21> C   -0.82922175114212 0.58960593673968 1.44434972027296
| 22> C   1.92822011286806 1.69488653817281 1.5963734975385
| 23> C   -0.37809776891576 2.77134929626422 0.04819649358288
| 24> C   2.1403947470937 0.1972384729179 -0.35038567829864
| 25> C   -0.67361678962426 0.6214190571346 -1.0793014500539
| 26> C   1.04142578622994 -2.02697492875068 -0.21027082435993
| 27> C   -2.68467002550422 -0.30396816036989 0.07167054343891
| 28> H   0.80817443950001 -0.54572267081061 2.51895215321335
| 29> H   -0.83785272399001 1.27240685039143 2.28901317073582
| 30> H   2.31167340578204 2.52284411740894 1.00913016264629
| 31> H   1.28982602448342 2.08257620823614 2.38710022492991
| 32> H   2.77390820759972 1.19140411795486 2.06045858523949
| 33> H   -1.41857211141493 3.00964947214868 -0.16882755561625
| 34> H   -0.09065531563179 3.29799318042223 0.95389844358819
| 35> H   0.23426221611057 3.12492645074476 -0.77764887675592
| 36> H   -0.46772570547622 -2.21560145172536 1.0787081584806
| 37> H   -2.71769301149571 -0.17090724573546 2.06627440900372
| 38> H   2.60065167263658 -1.49057255715425 -1.3966820077142
| 39> H   -2.27169977231386 -0.32388339999036 -1.91951041514436
| 40> *
| 41>
| 42>                          ****END OF INPUT****
 Total Charge           Charge          ....    0
 Multiplicity           Mult            ....    1
 Number of Electrons    NEL             ....  132
Dispersion correction           -0.053073234
FINAL SINGLE POINT ENERGY      -908.707757935889
Dispersion correction             ... done (  0.0 sec)
Dispersion correction           -0.054047125
FINAL SINGLE POINT ENERGY      -908.735837088879
Dispersion correction             ... done (  0.0 sec)
Dispersion correction           -0.054988939
FINAL SINGLE POINT ENERGY      -908.755678060378
Dispersion correction             ... done (  0.0 sec)
FINAL SINGLE POINT ENERGY      -908.773243284973
FINAL SINGLE POINT ENERGY      -908.781621136592
FINAL SINGLE POINT ENERGY      -908.784635158119
FINAL SINGLE POINT ENERGY      -908.786534839036
FINAL SINGLE POINT ENERGY      -908.787727282570
FINAL SINGLE POINT ENERGY      -908.788538495672
FINAL SINGLE POINT ENERGY      -908.789065233872
FINAL SINGLE POINT ENERGY      -908.791224389607
FINAL SINGLE POINT ENERGY      -908.791369718652
FINAL SINGLE POINT ENERGY      -908.791442363910
FINAL SINGLE POINT ENERGY      -908.791486911419
FINAL SINGLE POINT ENERGY      -908.791503837453
FINAL SINGLE POINT ENERGY      -908.791512424292
FINAL SINGLE POINT ENERGY      -908.791517233084
Dispersion correction             ... done (  0.0 sec)
Dispersion correction           -0.058788917
FINAL SINGLE POINT ENERGY      -908.791519665775
Dispersion correction             ... done (  0.0 sec)
Dispersion correction           -0.058786397
FINAL SINGLE POINT ENERGY      -908.791520843725
Dispersion correction             ... done (  0.0 sec)
                    ***********************HURRAY********************

CARTESIAN COORDINATES (ANGSTROEM)
---------------------------------
  O      3.323733    0.501682   -0.648175
  O     -0.692130    1.283761   -2.432155
  O      0.451007   -2.975665   -0.733986
  O     -3.176688   -1.587985   -0.031853
  N      0.280658   -1.508161    0.987958
  N     -2.085683    0.056637    1.106684
  N      1.711214   -1.087165   -0.792932
  N     -1.618149   -0.346994   -1.139659
  C      1.700195    0.456270    1.057962
  C     -0.711990    1.592479   -0.082385
  C      0.392339   -0.171351    1.526990
  C     -0.828032    0.763828    1.211602
  C      2.352642    1.492019    1.876277
  C     -0.689683    3.062511   -0.046162
  C      2.325924   -0.007563   -0.172251
  C     -0.974624    0.874467   -1.325383
  C      0.776206   -1.931532   -0.217033
  C     -2.356038   -0.703175   -0.010631
  H      0.430911   -0.277966    2.615826
  H     -0.908687    1.467621    2.038448
  H      3.252669    1.850809    1.388530
  H      1.681753    2.338626    2.058588
  H      2.606693    1.089714    2.862767
  H     -1.638158    3.445753    0.350065
  H      0.094193    3.427871    0.622633
  H     -0.542794    3.466308   -1.043187
  H     -0.417937   -2.125611    1.363677
  H     -2.594747   -0.230735    1.924956
  H      2.132765   -1.418284   -1.644854
  H     -1.824963   -0.883168   -1.967717

 Multiplicity           Mult            ....    1
 Number of Electrons    NEL             ....  132
 Basis Dimension        Dim             ....  882

ORBITAL ENERGIES
----------------

  NO   OCC          E(Eh)            E(eV)
   0   2.0000     -19.333912      -526.1025
   1   2.0000     -19.327541      -525.9291
   2   2.0000     -19.324061      -525.8344
   3   2.0000     -19.313720      -525.5530
   4   2.0000     -14.565192      -396.3390
   5   2.0000     -14.563339      -396.2886
   6   2.0000     -14.554601      -396.0508
   7   2.0000     -14.554508      -396.0483
   8   2.0000     -10.509340      -285.9737
   9   2.0000     -10.499259      -285.6994
  10   2.0000     -10.484397      -285.2949
  11   2.0000     -10.478690      -285.1397
  12   2.0000     -10.442580      -284.1570
  13   2.0000     -10.441018      -284.1145
  14   2.0000     -10.432481      -283.8823
  15   2.0000     -10.429151      -283.7916
  16   2.0000     -10.379225      -282.4331
  17   2.0000     -10.377191      -282.3777
  18   2.0000      -1.224093       -33.3093
  19   2.0000      -1.212622       -32.9971
  20   2.0000      -1.198071       -32.6012
  21   2.0000      -1.188484       -32.3403
  22   2.0000      -1.118436       -30.4342
  23   2.0000      -1.094733       -29.7892
  24   2.0000      -1.065066       -28.9819
  25   2.0000      -1.052960       -28.6525
  26   2.0000      -0.974242       -26.5105
  27   2.0000      -0.948300       -25.8045
  28   2.0000      -0.888766       -24.1846
  29   2.0000      -0.837557       -22.7911
  30   2.0000      -0.826720       -22.4962
  31   2.0000      -0.799977       -21.7685
  32   2.0000      -0.784995       -21.3608
  33   2.0000      -0.776964       -21.1423
  34   2.0000      -0.697826       -18.9888
  35   2.0000      -0.691556       -18.8182
  36   2.0000      -0.684479       -18.6256
  37   2.0000      -0.661668       -18.0049
  38   2.0000      -0.651660       -17.7326
  39   2.0000      -0.642210       -17.4754
  40   2.0000      -0.618314       -16.8252
  41   2.0000      -0.600456       -16.3392
  42   2.0000      -0.586350       -15.9554
  43   2.0000      -0.580896       -15.8070
  44   2.0000      -0.574873       -15.6431
  45   2.0000      -0.569959       -15.5094
  46   2.0000      -0.565273       -15.3819
  47   2.0000      -0.558194       -15.1892
  48   2.0000      -0.555849       -15.1254
  49   2.0000      -0.549589       -14.9551
  50   2.0000      -0.546331       -14.8664
  51   2.0000      -0.542857       -14.7719
  52   2.0000      -0.529552       -14.4098
  53   2.0000      -0.519649       -14.1404
  54   2.0000      -0.511069       -13.9069
  55   2.0000      -0.506288       -13.7768
  56   2.0000      -0.487372       -13.2621
  57   2.0000      -0.422100       -11.4859
  58   2.0000      -0.414796       -11.2872
  59   2.0000      -0.407470       -11.0878
  60   2.0000      -0.397060       -10.8046
  61   2.0000      -0.391718       -10.6592
  62   2.0000      -0.391159       -10.6440
  63   2.0000      -0.384668       -10.4673
  64   2.0000      -0.376974       -10.2580
  65   2.0000      -0.290108        -7.8942
  66   0.0000      -0.106087        -2.8868
  67   0.0000       0.005327         0.1450
  68   0.0000       0.027848         0.7578
  69   0.0000       0.031702         0.8626
  70   0.0000       0.038336         1.0432

MULLIKEN ATOMIC CHARGES
-----------------------
   0 O :   -0.678575
   1 O :   -0.659126
   2 O :   -0.661186
   3 O :   -0.627190
   4 N :   -0.283201
   5 N :   -0.346546
   6 N :    0.062741
   7 N :    0.064768
   8 C :    0.151165
   9 C :    0.423660
  10 C :    0.096176
  11 C :    0.659293
  12 C :   -1.295168
  13 C :   -1.455419
  14 C :    0.457682
  15 C :    0.148513
  16 C :    0.430487
  17 C :    0.313648
  18 H :    0.652901
  19 H :    0.474594
  20 H :    0.287743
  21 H :    0.277702
  22 H :    0.345537
  23 H :    0.352374
  24 H :    0.226797
  25 H :    0.367581
  26 H :    0.059597
  27 H :    0.097403
  28 H :    0.023109
  29 H :    0.032941
Sum of atomic charges:   -0.0000000

LOEWDIN ATOMIC CHARGES
----------------------
   0 O :    0.090011
   1 O :    0.106962
   2 O :    0.090442
   3 O :    0.103221
   4 N :    0.277290
   5 N :    0.278276
   6 N :    0.326017
   7 N :    0.329751
   8 C :    0.007457
   9 C :    0.010390
  10 C :   -0.119450
  11 C :   -0.118256
  12 C :    0.186944
  13 C :    0.186552
  14 C :   -0.406638
  15 C :   -0.407038
  16 C :   -0.496584
  17 C :   -0.486062
  18 H :    0.046226
  19 H :    0.047354
  20 H :   -0.002653
  21 H :   -0.004033
  22 H :    0.013151
  23 H :    0.017884
  24 H :   -0.005765
  25 H :    0.002457
  26 H :   -0.029735
  27 H :   -0.029089
  28 H :   -0.010057
  29 H :   -0.005025

  Mayer bond orders larger than 0.100000
B(  0-O , 14-C ) :   1.3018 B(  1-O , 15-C ) :   1.4190 B(  2-O , 16-C ) :   1.5362
B(  3-O , 17-C ) :   1.5684 B(  4-N ,  8-C ) :   0.2698 B(  4-N , 10-C ) :   0.3481
B(  4-N , 16-C ) :   1.0371 B(  4-N , 26-H ) :   1.1003 B(  5-N ,  9-C ) :   0.3356
B(  5-N , 10-C ) :   0.1190 B(  5-N , 17-C ) :   1.1731 B(  5-N , 27-H ) :   1.0239
B(  6-N ,  8-C ) :  -0.1258 B(  6-N , 10-C ) :   0.1125 B(  6-N , 14-C ) :   1.0973
B(  6-N , 16-C ) :   0.9220 B(  6-N , 28-H ) :   1.1049 B(  7-N , 11-C ) :   0.1352
B(  7-N , 15-C ) :   0.9786 B(  7-N , 17-C ) :   0.9858 B(  7-N , 29-H ) :   1.0836
B(  8-C ,  9-C ) :   0.5761 B(  8-C , 10-C ) :   0.1464 B(  8-C , 12-C ) :   0.5613
B(  8-C , 14-C ) :   0.8140 B(  8-C , 15-C ) :   0.1200 B(  8-C , 16-C ) :   0.1184
B(  8-C , 18-H ) :  -0.1909 B(  8-C , 20-H ) :  -0.1185 B(  9-C , 10-C ) :   0.2019
B(  9-C , 13-C ) :   0.3796 B(  9-C , 14-C ) :   0.1533 B(  9-C , 15-C ) :   0.7698
B(  9-C , 25-H ) :  -0.1009 B( 10-C , 11-C ) :   0.6770 B( 10-C , 16-C ) :  -0.1624
B( 10-C , 18-H ) :   0.7009 B( 11-C , 13-C ) :  -0.1617 B( 11-C , 15-C ) :  -0.2404
B( 11-C , 17-C ) :  -0.2167 B( 11-C , 19-H ) :   0.9212 B( 12-C , 20-H ) :   1.0737
B( 12-C , 21-H ) :   0.8894 B( 12-C , 22-H ) :   0.8732 B( 13-C , 23-H ) :   0.8688
B( 13-C , 24-H ) :   1.0581 B( 13-C , 25-H ) :   0.9186

Dispersion correction           -0.058784232
FINAL SINGLE POINT ENERGY      -908.791521404734

DIPOLE MOMENT
-------------

Method             : SCF
Type of density    : Electron Density
Multiplicity       :   1
Irrep              :   0
Energy             :  -908.7327371727834588 Eh
Relativity type    :
Basis              : AO
                                X                 Y                 Z
Electronic contribution:     -2.423106268     -10.078435707      -7.309799117
Nuclear contribution   :      2.090293949      11.676545410       9.983502940
                        -----------------------------------------
Total Dipole Moment    :     -0.332812318       1.598109703       2.673703822
                        -----------------------------------------
Magnitude (a.u.)       :      3.132636396
Magnitude (Debye)      :      7.962528927

Rotational constants in cm-1:             0.019317             0.014796             0.012324
Rotational constants in MHz :           579.119629           443.558485           369.465351

                             ****ORCA TERMINATED NORMALLY****
TOTAL RUN TIME: 0 days 1 hours 0 minutes 15 seconds 222 msec
