                         Program Version 6.0.0  -   RELEASE  -
|  1> ! EnGrad wB97M-D3BJ def2-TZVPPD
|  2> %pal nprocs 8 end%pal nprocs 16 end
|  3> %tddft
|  4>  sf true
|  5>  nroots 2 Iroot 1 end
|  6> *xyz 0 3
|  7> O   0.06988424912635 0.82773780832439 -8.437649955e-05
|  8> C   0.69654339356255 -0.40027545816402 8.518516759e-05
|  9> C   -0.72781655741658 -0.50757614322786 -0.00011282781946
| 10> H   1.24261873519864 -0.65378694010116 0.90603193145925
| 11> H   1.24243119341592 -0.65396835473702 -0.90595536939957
| 12> H   -1.26087681450408 -0.66547014201549 -0.92391057112193
| 13> H   -1.2605841993828 -0.66506077007884 0.92394602821367
| 14> *
| 15>
| 16>                          ****END OF INPUT****

CARTESIAN COORDINATES (ANGSTROEM)
---------------------------------
  O      0.069884    0.827738   -0.000084
  C      0.696543   -0.400275    0.000085
  C     -0.727817   -0.507576   -0.000113
  H      1.242619   -0.653787    0.906032
  H      1.242431   -0.653968   -0.905955
  H     -1.260877   -0.665470   -0.923911
  H     -1.260584   -0.665061    0.923946

 Total Charge           Charge          ....    0
 Multiplicity           Mult            ....    3
 Number of Electrons    NEL             ....   24
 Basis Dimension        Dim             ....  182

ORBITAL ENERGIES
----------------
                 SPIN UP ORBITALS
  NO   OCC          E(Eh)            E(eV)
   0   1.0000     -19.466132      -529.7004
   1   1.0000     -10.422384      -283.6075
   2   1.0000     -10.362775      -281.9854
   3   1.0000      -1.290441       -35.1147
   4   1.0000      -0.863760       -23.5041
   5   1.0000      -0.777262       -21.1504
   6   1.0000      -0.685536       -18.6544
   7   1.0000      -0.648398       -17.6438
   8   1.0000      -0.570313       -15.5190
   9   1.0000      -0.505946       -13.7675
  10   1.0000      -0.497259       -13.5311
  11   1.0000      -0.472150       -12.8478
  12   1.0000      -0.152089        -4.1386
  13   0.0000       0.036961         1.0058
  14   0.0000       0.061239         1.6664
  15   0.0000       0.070583         1.9207
  16   0.0000       0.087321         2.3761
  17   0.0000       0.109875         2.9899

                 SPIN DOWN ORBITALS
  NO   OCC          E(Eh)            E(eV)
   0   1.0000     -19.433293      -528.8068
   1   1.0000     -10.422612      -283.6137
   2   1.0000     -10.354061      -281.7483
   3   1.0000      -1.223684       -33.2981
   4   1.0000      -0.830001       -22.5855
   5   1.0000      -0.758623       -20.6432
   6   1.0000      -0.630505       -17.1569
   7   1.0000      -0.615901       -16.7595
   8   1.0000      -0.531914       -14.4741
   9   1.0000      -0.482734       -13.1359
  10   1.0000      -0.439684       -11.9644
  11   0.0000      -0.114929        -3.1274
  12   0.0000       0.033107         0.9009
  13   0.0000       0.056993         1.5509
  14   0.0000       0.063373         1.7245
  15   0.0000       0.064587         1.7575

----------------------------------------------------------------------------------------------------
          SPIN FLIP ABSORPTION SPECTRUM VIA TRANSITION ELECTRIC DIPOLE MOMENTS
----------------------------------------------------------------------------------------------------
     Transition      Energy     Energy  Wavelength fosc(D2)      D2        DX        DY        DZ
                      (eV)      (cm-1)    (nm)                 (au**2)    (au)      (au)      (au)
----------------------------------------------------------------------------------------------------
  1-3A  ->  2-3A    6.248277   50395.8   198.4   0.008036939   0.05250   0.00017   0.00011  -0.22913

Dispersion correction             ... done (  0.0 sec)

MULLIKEN ATOMIC CHARGES AND SPIN DENSITIES
------------------------------------------
   0 O :   -0.377547    0.067741
   1 C :   -0.101544   -0.112961
   2 C :   -0.477989    0.047521
   3 H :    0.190748    0.021124
   4 H :    0.190661    0.021175
   5 H :    0.287871   -0.022317
   6 H :    0.287800   -0.022285
Sum of atomic charges       :    0.0000000

LOEWDIN ATOMIC CHARGES AND SPIN DENSITIES
-----------------------------------------
   0 O :   -0.068392    0.038798
   1 C :   -0.125003   -0.008995
   2 C :    0.124227   -0.021452
   3 H :    0.022158    0.003659
   4 H :    0.022160    0.003662
   5 H :    0.012433   -0.007836
   6 H :    0.012417   -0.007835

  Mayer bond orders larger than 0.100000
B(  0-O ,  1-C ) :   0.8112 B(  0-O ,  2-C ) :   0.8804 B(  1-C ,  2-C ) :   0.6991
B(  1-C ,  3-H ) :   1.0247 B(  1-C ,  4-H ) :   1.0247 B(  2-C ,  5-H ) :   0.9176
B(  2-C ,  6-H ) :   0.9177

Dispersion correction           -0.005237101
FINAL SINGLE POINT ENERGY      -153.866271046642

DIPOLE MOMENT
-------------

Method             : TDA/CIS
Type of density    : Electron Density
Level              : Relaxed density
State              :   1
Multiplicity       :   3
Irrep              :   0
Energy             :     0.0000000000000000 Eh
Relativity type    :
Basis              : AO
                                X                 Y                 Z
Electronic contribution:     -0.088359634       1.175822618      -0.000197255
Nuclear contribution   :     -0.093483864      -2.435516140       0.000238033
                        -----------------------------------------
Total Dipole Moment    :     -0.181843498      -1.259693522       0.000040778
                        -----------------------------------------
Magnitude (a.u.)       :      1.272750891
Magnitude (Debye)      :      3.235075669

Rotational constants in cm-1:             0.868302             0.713014             0.464323
Rotational constants in MHz :         26031.037987         21375.623486         13920.061861

                             ****ORCA TERMINATED NORMALLY****
TOTAL RUN TIME: 0 days 0 hours 0 minutes 19 seconds 379 msec
