                         Program Version 6.0.0  -   RELEASE  -
|  1> ! Engrad def2-TZVPPD wB97M-D3BJ
|  2> %pal nprocs 8 end%pal nprocs 64 end
|  3> %tddft Nroots 2 Iroot 2
|  4> sf true
|  5> end
|  6> *xyz 0 3
|  7> O   3.64380438 0.35856532 -0.43460045
|  8> O   -1.18458385 1.21793616 -2.61973494
|  9> O   0.47903059 -2.74724416 -0.79718849
| 10> O   -3.0665952 -1.7138752 0.20894124
| 11> N   0.33551791 -1.30387359 0.9543356
| 12> N   -2.0638994 0.12410556 1.10444156
| 13> N   1.74832813 -0.84844025 -0.82027397
| 14> N   -1.74659364 -0.41794439 -1.1302464
| 15> C   1.96575042 0.39299536 1.22625034
| 16> C   -1.01019073 1.69536636 -0.31073108
| 17> C   0.43672254 0.05059148 1.44588574
| 18> C   -0.88640685 0.96642326 1.03714197
| 19> C   2.7651723 1.00978154 2.29269942
| 20> C   -1.06119629 3.15861037 -0.40528774
| 21> C   2.5425914 0.00741267 -0.03970606
| 22> C   -1.30341684 0.86446692 -1.46281485
| 23> C   0.81993209 -1.71373069 -0.26520891
| 24> C   -2.344566 -0.75105513 0.08032246
| 25> H   0.30174117 -0.01200062 2.52407548
| 26> H   -0.95224524 1.71607142 1.81826475
| 27> H   3.80738655 1.08362343 1.99490217
| 28> H   2.40032779 2.00905462 2.55588316
| 29> H   2.67892241 0.409351 3.21722452
| 30> H   -2.00832576 3.53354408 0.017719
| 31> H   -0.26695401 3.63203718 0.18182219
| 32> H   -1.00554987 3.47358894 -1.44120102
| 33> H   -0.32535142 -1.94219818 1.3691156
| 34> H   -2.48253407 -0.10539147 1.98521104
| 35> H   2.16270848 -1.16284089 -1.67384414
| 36> H   -1.93972979 -1.04889933 -1.89309157
| 37> *
| 38>
| 39>                          ****END OF INPUT****

CARTESIAN COORDINATES (ANGSTROEM)
---------------------------------
  O      3.643804    0.358565   -0.434600
  O     -1.184584    1.217936   -2.619735
  O      0.479031   -2.747244   -0.797188
  O     -3.066595   -1.713875    0.208941
  N      0.335518   -1.303874    0.954336
  N     -2.063899    0.124106    1.104442
  N      1.748328   -0.848440   -0.820274
  N     -1.746594   -0.417944   -1.130246
  C      1.965750    0.392995    1.226250
  C     -1.010191    1.695366   -0.310731
  C      0.436723    0.050591    1.445886
  C     -0.886407    0.966423    1.037142
  C      2.765172    1.009782    2.292699
  C     -1.061196    3.158610   -0.405288
  C      2.542591    0.007413   -0.039706
  C     -1.303417    0.864467   -1.462815
  C      0.819932   -1.713731   -0.265209
  C     -2.344566   -0.751055    0.080322
  H      0.301741   -0.012001    2.524075
  H     -0.952245    1.716071    1.818265
  H      3.807387    1.083623    1.994902
  H      2.400328    2.009055    2.555883
  H      2.678922    0.409351    3.217225
  H     -2.008326    3.533544    0.017719
  H     -0.266954    3.632037    0.181822
  H     -1.005550    3.473589   -1.441201
  H     -0.325351   -1.942198    1.369116
  H     -2.482534   -0.105391    1.985211
  H      2.162708   -1.162841   -1.673844
  H     -1.939730   -1.048899   -1.893092

 Total Charge           Charge          ....    0
 Multiplicity           Mult            ....    3
 Number of Electrons    NEL             ....  132
 Basis Dimension        Dim             ....  882

ORBITAL ENERGIES
----------------
                 SPIN UP ORBITALS
  NO   OCC          E(Eh)            E(eV)
   0   1.0000     -19.337100      -526.1892
   1   1.0000     -19.332152      -526.0546
   2   1.0000     -19.320568      -525.7394
   3   1.0000     -19.315378      -525.5981
   4   1.0000     -14.563280      -396.2870
   5   1.0000     -14.557574      -396.1317
   6   1.0000     -14.557235      -396.1225
   7   1.0000     -14.555297      -396.0698
   8   1.0000     -10.504250      -285.8352
   9   1.0000     -10.499353      -285.7019
  10   1.0000     -10.480838      -285.1981
  11   1.0000     -10.476888      -285.0906
  12   1.0000     -10.451076      -284.3882
  13   1.0000     -10.449690      -284.3505
  14   1.0000     -10.426209      -283.7116
  15   1.0000     -10.415058      -283.4081
  16   1.0000     -10.377689      -282.3913
  17   1.0000     -10.372372      -282.2466
  18   1.0000      -1.219582       -33.1865
  19   1.0000      -1.214672       -33.0529
  20   1.0000      -1.195040       -32.5187
  21   1.0000      -1.194027       -32.4911
  22   1.0000      -1.115822       -30.3631
  23   1.0000      -1.097142       -29.8547
  24   1.0000      -1.062566       -28.9139
  25   1.0000      -1.053160       -28.6579
  26   1.0000      -0.965552       -26.2740
  27   1.0000      -0.955499       -26.0005
  28   1.0000      -0.883780       -24.0489
  29   1.0000      -0.839891       -22.8546
  30   1.0000      -0.826916       -22.5015
  31   1.0000      -0.804013       -21.8783
  32   1.0000      -0.781192       -21.2573
  33   1.0000      -0.774514       -21.0756
  34   1.0000      -0.696502       -18.9528
  35   1.0000      -0.692508       -18.8441
  36   1.0000      -0.675319       -18.3764
  37   1.0000      -0.660871       -17.9832
  38   1.0000      -0.654038       -17.7973
  39   1.0000      -0.641480       -17.4556
  40   1.0000      -0.619669       -16.8621
  41   1.0000      -0.602093       -16.3838
  42   1.0000      -0.593796       -16.1580
  43   1.0000      -0.586452       -15.9582
  44   1.0000      -0.571683       -15.5563
  45   1.0000      -0.568496       -15.4696
  46   1.0000      -0.561704       -15.2847
  47   1.0000      -0.559116       -15.2143
  48   1.0000      -0.556355       -15.1392
  49   1.0000      -0.549005       -14.9392
  50   1.0000      -0.545828       -14.8527
  51   1.0000      -0.541995       -14.7484
  52   1.0000      -0.535088       -14.5605
  53   1.0000      -0.520725       -14.1696
  54   1.0000      -0.514969       -14.0130
  55   1.0000      -0.505421       -13.7532
  56   1.0000      -0.489530       -13.3208
  57   1.0000      -0.422102       -11.4860
  58   1.0000      -0.419110       -11.4046
  59   1.0000      -0.415955       -11.3187
  60   1.0000      -0.399719       -10.8769
  61   1.0000      -0.399285       -10.8651
  62   1.0000      -0.390728       -10.6323
  63   1.0000      -0.389091       -10.5877
  64   1.0000      -0.377496       -10.2722
  65   1.0000      -0.340206        -9.2575
  66   1.0000      -0.331898        -9.0314
  67   0.0000       0.004447         0.1210
  68   0.0000       0.027029         0.7355
  69   0.0000       0.031413         0.8548
  70   0.0000       0.038587         1.0500
  71   0.0000       0.055015         1.4970

                 SPIN DOWN ORBITALS
  NO   OCC          E(Eh)            E(eV)
   0   1.0000     -19.332056      -526.0520
   1   1.0000     -19.327778      -525.9356
   2   1.0000     -19.320319      -525.7326
   3   1.0000     -19.315068      -525.5897
   4   1.0000     -14.562460      -396.2647
   5   1.0000     -14.557335      -396.1252
   6   1.0000     -14.556979      -396.1155
   7   1.0000     -14.554588      -396.0505
   8   1.0000     -10.504265      -285.8356
   9   1.0000     -10.499371      -285.7024
  10   1.0000     -10.481931      -285.2278
  11   1.0000     -10.477918      -285.1187
  12   1.0000     -10.451176      -284.3910
  13   1.0000     -10.449850      -284.3549
  14   1.0000     -10.414707      -283.3986
  15   1.0000     -10.403392      -283.0907
  16   1.0000     -10.378284      -282.4075
  17   1.0000     -10.372962      -282.2626
  18   1.0000      -1.217871       -33.1400
  19   1.0000      -1.212216       -32.9861
  20   1.0000      -1.189613       -32.3710
  21   1.0000      -1.188705       -32.3463
  22   1.0000      -1.113359       -30.2960
  23   1.0000      -1.094513       -29.7832
  24   1.0000      -1.060915       -28.8690
  25   1.0000      -1.051571       -28.6147
  26   1.0000      -0.950903       -25.8754
  27   1.0000      -0.938611       -25.5409
  28   1.0000      -0.880250       -23.9528
  29   1.0000      -0.834394       -22.7050
  30   1.0000      -0.818331       -22.2679
  31   1.0000      -0.798968       -21.7410
  32   1.0000      -0.779896       -21.2220
  33   1.0000      -0.772965       -21.0335
  34   1.0000      -0.690017       -18.7763
  35   1.0000      -0.686024       -18.6677
  36   1.0000      -0.670613       -18.2483
  37   1.0000      -0.655520       -17.8376
  38   1.0000      -0.644035       -17.5251
  39   1.0000      -0.637237       -17.3401
  40   1.0000      -0.616943       -16.7879
  41   1.0000      -0.597375       -16.2554
  42   1.0000      -0.584245       -15.8981
  43   1.0000      -0.577289       -15.7088
  44   1.0000      -0.566514       -15.4156
  45   1.0000      -0.560033       -15.2393
  46   1.0000      -0.556282       -15.1372
  47   1.0000      -0.553628       -15.0650
  48   1.0000      -0.545670       -14.8484
  49   1.0000      -0.542150       -14.7527
  50   1.0000      -0.540622       -14.7111
  51   1.0000      -0.533504       -14.5174
  52   1.0000      -0.529354       -14.4045
  53   1.0000      -0.508922       -13.8485
  54   1.0000      -0.505913       -13.7666
  55   1.0000      -0.499270       -13.5858
  56   1.0000      -0.483318       -13.1517
  57   1.0000      -0.417169       -11.3517
  58   1.0000      -0.415971       -11.3191
  59   1.0000      -0.407598       -11.0913
  60   1.0000      -0.388478       -10.5710
  61   1.0000      -0.387305       -10.5391
  62   1.0000      -0.384820       -10.4715
  63   1.0000      -0.383639       -10.4393
  64   1.0000      -0.371639       -10.1128
  65   0.0000      -0.057241        -1.5576
  66   0.0000      -0.048454        -1.3185
  67   0.0000       0.004218         0.1148
  68   0.0000       0.026823         0.7299
  69   0.0000       0.031269         0.8509

----------------------------------------------------------------------------------------------------
          SPIN FLIP ABSORPTION SPECTRUM VIA TRANSITION ELECTRIC DIPOLE MOMENTS
----------------------------------------------------------------------------------------------------
     Transition      Energy     Energy  Wavelength fosc(D2)      D2        DX        DY        DZ
                      (eV)      (cm-1)    (nm)                 (au**2)    (au)      (au)      (au)
----------------------------------------------------------------------------------------------------
  1-3A  ->  2-3A    0.005481      44.2  226207.0   0.000000002   0.00002  -0.00074  -0.00325   0.00215

Dispersion correction             ... done (  0.1 sec)

MULLIKEN ATOMIC CHARGES AND SPIN DENSITIES
------------------------------------------
   0 O :   -0.649143    0.179446
   1 O :   -0.678124   -0.156271
   2 O :   -0.659026    0.010962
   3 O :   -0.643828   -0.007943
   4 N :   -0.270467    0.017276
   5 N :   -0.295688   -0.023873
   6 N :    0.088812    0.002515
   7 N :    0.059795   -0.016453
   8 C :   -0.115477    0.409042
   9 C :    1.263989    0.263348
  10 C :    0.391028    0.067276
  11 C :    0.062304   -0.367644
  12 C :   -1.378469   -0.005206
  13 C :   -1.392769    0.036886
  14 C :    0.557828    0.156977
  15 C :   -0.211301   -0.603730
  16 C :    0.321726   -0.016058
  17 C :    0.393060    0.025469
  18 H :    0.561887    0.018608
  19 H :    0.400565   -0.025913
  20 H :    0.330499    0.008667
  21 H :    0.269802    0.026083
  22 H :    0.301216    0.023219
  23 H :    0.359177   -0.017416
  24 H :    0.343504    0.009392
  25 H :    0.327098   -0.020240
  26 H :    0.084955    0.001818
  27 H :    0.095281    0.001498
  28 H :    0.049734   -0.001187
  29 H :    0.032031    0.003452
Sum of atomic charges       :    0.0000000

LOEWDIN ATOMIC CHARGES AND SPIN DENSITIES
-----------------------------------------
   0 O :    0.095631    0.161883
   1 O :    0.085168   -0.145242
   2 O :    0.090878    0.010505
   3 O :    0.092509   -0.007775
   4 N :    0.252959    0.017125
   5 N :    0.265200   -0.021002
   6 N :    0.331430    0.002964
   7 N :    0.323236   -0.012855
   8 C :   -0.002111    0.512504
   9 C :    0.006231   -0.497006
  10 C :   -0.039434    0.016334
  11 C :   -0.068089   -0.030677
  12 C :    0.172766    0.083104
  13 C :    0.177200   -0.083269
  14 C :   -0.391493    0.083325
  15 C :   -0.424688   -0.089054
  16 C :   -0.494247    0.000911
  17 C :   -0.495982   -0.001584
  18 H :    0.030853   -0.000397
  19 H :    0.036295    0.000828
  20 H :   -0.005296   -0.001285
  21 H :    0.006263    0.023633
  22 H :    0.014441    0.022260
  23 H :    0.023324   -0.029379
  24 H :    0.006957   -0.013867
  25 H :   -0.002388   -0.000853
  26 H :   -0.027384    0.001881
  27 H :   -0.032852   -0.002255
  28 H :   -0.021604    0.000322
  29 H :   -0.005773   -0.001082

  Mayer bond orders larger than 0.100000
B(  0-O , 14-C ) :   1.4275 B(  1-O , 15-C ) :   1.4164 B(  2-O , 16-C ) :   1.4992
B(  3-O , 17-C ) :   1.5514 B(  4-N ,  8-C ) :   0.2779 B(  4-N , 10-C ) :   0.1795
B(  4-N , 16-C ) :   1.0447 B(  4-N , 26-H ) :   1.0693 B(  5-N ,  9-C ) :   0.2332
B(  5-N , 10-C ) :   0.1782 B(  5-N , 11-C ) :   0.1317 B(  5-N , 17-C ) :   1.1013
B(  5-N , 27-H ) :   1.0233 B(  6-N , 14-C ) :   1.0585 B(  6-N , 16-C ) :   1.0152
B(  6-N , 28-H ) :   1.0494 B(  7-N , 11-C ) :   0.1077 B(  7-N , 15-C ) :   0.8957
B(  7-N , 17-C ) :   1.0218 B(  7-N , 29-H ) :   1.0894 B(  8-C , 10-C ) :  -0.4047
B(  8-C , 12-C ) :   0.5241 B(  8-C , 14-C ) :   0.7350 B(  8-C , 16-C ) :   0.1534
B(  8-C , 18-H ) :  -0.1423 B(  8-C , 20-H ) :  -0.1179 B(  9-C , 10-C ) :   0.1328
B(  9-C , 13-C ) :   0.4418 B(  9-C , 15-C ) :   0.2750 B( 10-C , 11-C ) :   0.6665
B( 10-C , 16-C ) :  -0.1711 B( 10-C , 18-H ) :   0.7387 B( 10-C , 19-H ) :  -0.1360
B( 11-C , 15-C ) :   0.1335 B( 11-C , 17-C ) :  -0.1494 B( 11-C , 19-H ) :   1.0083
B( 12-C , 14-C ) :  -0.1235 B( 12-C , 20-H ) :   0.9822 B( 12-C , 21-H ) :   0.9452
B( 12-C , 22-H ) :   0.9355 B( 13-C , 23-H ) :   0.8821 B( 13-C , 24-H ) :   0.8889
B( 13-C , 25-H ) :   0.9791 B( 15-C , 17-C ) :  -0.1129

Dispersion correction           -0.056258766
FINAL SINGLE POINT ENERGY      -908.782906094163

DIPOLE MOMENT
-------------

Method             : TDA/CIS
Type of density    : Electron Density
Level              : Relaxed density
State              :   2
Multiplicity       :   3
Irrep              :   0
Energy             :     0.0000000000000000 Eh
Relativity type    :
Basis              : AO
                                X                 Y                 Z
Electronic contribution:     -2.303556040      -9.020605858      -7.328668488
Nuclear contribution   :      2.245499491      10.836128181      10.069787270
                        -----------------------------------------
Total Dipole Moment    :     -0.058056550       1.815522323       2.741118782
                        -----------------------------------------
Magnitude (a.u.)       :      3.288346704
Magnitude (Debye)      :      8.358313076

Rotational constants in cm-1:             0.019637             0.012894             0.011421
Rotational constants in MHz :           588.709595           386.561767           342.395867

                             ****ORCA TERMINATED NORMALLY****
TOTAL RUN TIME: 0 days 0 hours 4 minutes 25 seconds 555 msec
