                         Program Version 6.0.0  -   RELEASE  -
|  1> ! EnGrad wB97M-D3BJ def2-TZVPPD
|  2> %pal nprocs 8 end%pal nprocs 16 end
|  3> %tddft
|  4>  sf true
|  5>  nroots 2 Iroot 1 end
|  6> *xyz 0 3
|  7> O   -0.05051878786533 0.76085237494352 -3.568280191e-05
|  8> C   0.76259643788566 -0.47508603547787 -8.5480742e-06
|  9> C   -0.73719671647828 -0.39588164692683 1.815222596e-05
| 10> H   1.28269492694698 -0.65312897820892 0.92796189241092
| 11> H   1.28270952469442 -0.65320117736239 -0.92795496371465
| 12> H   -1.26901526596127 -0.65100992718189 -0.91327523962103
| 13> H   -1.26907011922216 -0.65094460978562 0.91329438957491
| 14> *
| 15>
| 16>                          ****END OF INPUT****

CARTESIAN COORDINATES (ANGSTROEM)
---------------------------------
  O     -0.050519    0.760852   -0.000036
  C      0.762596   -0.475086   -0.000009
  C     -0.737197   -0.395882    0.000018
  H      1.282695   -0.653129    0.927962
  H      1.282710   -0.653201   -0.927955
  H     -1.269015   -0.651010   -0.913275
  H     -1.269070   -0.650945    0.913294

 Total Charge           Charge          ....    0
 Multiplicity           Mult            ....    3
 Number of Electrons    NEL             ....   24
 Basis Dimension        Dim             ....  182

ORBITAL ENERGIES
----------------
                 SPIN UP ORBITALS
  NO   OCC          E(Eh)            E(eV)
   0   1.0000     -19.492134      -530.4079
   1   1.0000     -10.433905      -283.9210
   2   1.0000     -10.392718      -282.8002
   3   1.0000      -1.332500       -36.2592
   4   1.0000      -0.856824       -23.3154
   5   1.0000      -0.806930       -21.9577
   6   1.0000      -0.708921       -19.2907
   7   1.0000      -0.666608       -18.1393
   8   1.0000      -0.601246       -16.3607
   9   1.0000      -0.520342       -14.1592
  10   1.0000      -0.510267       -13.8851
  11   1.0000      -0.461027       -12.5452
  12   1.0000      -0.124660        -3.3922
  13   0.0000       0.032989         0.8977
  14   0.0000       0.058490         1.5916
  15   0.0000       0.068047         1.8517
  16   0.0000       0.083056         2.2601
  17   0.0000       0.107149         2.9157

                 SPIN DOWN ORBITALS
  NO   OCC          E(Eh)            E(eV)
   0   1.0000     -19.461287      -529.5686
   1   1.0000     -10.433326      -283.9052
   2   1.0000     -10.386473      -282.6303
   3   1.0000      -1.271976       -34.6122
   4   1.0000      -0.824387       -22.4327
   5   1.0000      -0.786787       -21.4096
   6   1.0000      -0.646452       -17.5908
   7   1.0000      -0.638241       -17.3674
   8   1.0000      -0.562724       -15.3125
   9   1.0000      -0.501191       -13.6381
  10   1.0000      -0.435285       -11.8447
  11   0.0000      -0.137628        -3.7450
  12   0.0000       0.031229         0.8498
  13   0.0000       0.057366         1.5610
  14   0.0000       0.064155         1.7457
  15   0.0000       0.069644         1.8951

----------------------------------------------------------------------------------------------------
          SPIN FLIP ABSORPTION SPECTRUM VIA TRANSITION ELECTRIC DIPOLE MOMENTS
----------------------------------------------------------------------------------------------------
     Transition      Energy     Energy  Wavelength fosc(D2)      D2        DX        DY        DZ
                      (eV)      (cm-1)    (nm)                 (au**2)    (au)      (au)      (au)
----------------------------------------------------------------------------------------------------
  1-3A  ->  2-3A    6.853853   55280.1   180.9   0.006297277   0.03750   0.00001   0.00001   0.19366

Dispersion correction             ... done (  0.0 sec)

MULLIKEN ATOMIC CHARGES AND SPIN DENSITIES
------------------------------------------
   0 O :   -0.371203    0.074886
   1 C :   -0.461945    0.006349
   2 C :   -0.084006   -0.101821
   3 H :    0.290142   -0.021670
   4 H :    0.270135   -0.000362
   5 H :    0.184332    0.015686
   6 H :    0.172545    0.026932
Sum of atomic charges       :   -0.0000000

LOEWDIN ATOMIC CHARGES AND SPIN DENSITIES
-----------------------------------------
   0 O :   -0.085155    0.050720
   1 C :    0.111664   -0.034690
   2 C :   -0.081575   -0.001863
   3 H :    0.012752   -0.011858
   4 H :    0.012616   -0.011748
   5 H :    0.015126    0.004437
   6 H :    0.014571    0.005002

  Mayer bond orders larger than 0.100000
B(  0-O ,  1-C ) :   0.9260 B(  0-O ,  2-C ) :   0.8479 B(  1-C ,  2-C ) :   0.7887
B(  1-C ,  3-H ) :   0.9472 B(  1-C ,  4-H ) :   0.9496 B(  2-C ,  5-H ) :   1.0139
B(  2-C ,  6-H ) :   1.0007

Dispersion correction           -0.005203744
FINAL SINGLE POINT ENERGY      -153.872708410440

DIPOLE MOMENT
-------------

Method             : TDA/CIS
Type of density    : Electron Density
Level              : Relaxed density
State              :   1
Multiplicity       :   3
Irrep              :   0
Energy             :     0.0000000000000000 Eh
Relativity type    :
Basis              : AO
                                X                 Y                 Z
Electronic contribution:      0.109744939       1.015086591      -0.007701079
Nuclear contribution   :      0.065560282      -2.357315249       0.000060649
                        -----------------------------------------
Total Dipole Moment    :      0.175305221      -1.342228657      -0.007640431
                        -----------------------------------------
Magnitude (a.u.)       :      1.353649905
Magnitude (Debye)      :      3.440704621

Rotational constants in cm-1:             0.910153             0.703118             0.472702
Rotational constants in MHz :         27285.686619         21078.944047         14171.249463

                             ****ORCA TERMINATED NORMALLY****
TOTAL RUN TIME: 0 days 0 hours 0 minutes 21 seconds 894 msec
