                         Program Version 6.0.0  -   RELEASE  -
|  1> ! EnGrad wB97M-D3BJ def2-TZVPPD
|  2> %pal nprocs 8 end%pal nprocs 16 end
|  3> %tddft
|  4>  sf true
|  5>  nroots 2 Iroot 1 end
|  6> *xyz 0 3
|  7> O   0.68207964005087 1.33062640518368 0.09004579437233
|  8> C   0.56318602648471 0.18803799830865 -0.25990527963682
|  9> C   -0.4467613802668 -0.80788777301737 0.22183429554986
| 10> H   0.07717339195857 -1.67176345692054 0.63206673064448
| 11> H   1.25724958537657 -0.21728041879347 -1.02427864102958
| 12> H   -1.0262960830011 -1.1629243183741 -0.63090674149456
| 13> H   -1.10443118060282 -0.37720843638686 0.97114384159427
| 14> *
| 15>
| 16>                          ****END OF INPUT****

CARTESIAN COORDINATES (ANGSTROEM)
---------------------------------
  O      0.682080    1.330626    0.090046
  C      0.563186    0.188038   -0.259905
  C     -0.446761   -0.807888    0.221834
  H      0.077173   -1.671763    0.632067
  H      1.257250   -0.217280   -1.024279
  H     -1.026296   -1.162924   -0.630907
  H     -1.104431   -0.377208    0.971144

 Total Charge           Charge          ....    0
 Multiplicity           Mult            ....    3
 Number of Electrons    NEL             ....   24
 Basis Dimension        Dim             ....  182

ORBITAL ENERGIES
----------------
                 SPIN UP ORBITALS
  NO   OCC          E(Eh)            E(eV)
   0   1.0000     -19.409059      -528.1473
   1   1.0000     -10.379414      -282.4382
   2   1.0000     -10.367418      -282.1118
   3   1.0000      -1.245712       -33.8975
   4   1.0000      -0.883573       -24.0432
   5   1.0000      -0.717592       -19.5267
   6   1.0000      -0.634161       -17.2564
   7   1.0000      -0.587683       -15.9917
   8   1.0000      -0.581789       -15.8313
   9   1.0000      -0.515472       -14.0267
  10   1.0000      -0.514228       -13.9929
  11   1.0000      -0.432311       -11.7638
  12   1.0000      -0.219779        -5.9805
  13   0.0000       0.040465         1.1011
  14   0.0000       0.060190         1.6378
  15   0.0000       0.078323         2.1313
  16   0.0000       0.087851         2.3905
  17   0.0000       0.107564         2.9270

                 SPIN DOWN ORBITALS
  NO   OCC          E(Eh)            E(eV)
   0   1.0000     -19.381514      -527.3978
   1   1.0000     -10.369156      -282.1591
   2   1.0000     -10.365290      -282.0539
   3   1.0000      -1.188267       -32.3344
   4   1.0000      -0.864407       -23.5217
   5   1.0000      -0.672665       -18.3042
   6   1.0000      -0.585952       -15.9446
   7   1.0000      -0.540989       -14.7211
   8   1.0000      -0.535554       -14.5732
   9   1.0000      -0.499132       -13.5821
  10   1.0000      -0.471408       -12.8277
  11   0.0000      -0.083285        -2.2663
  12   0.0000       0.040961         1.1146
  13   0.0000       0.059853         1.6287
  14   0.0000       0.078146         2.1265
  15   0.0000       0.084307         2.2941

----------------------------------------------------------------------------------------------------
          SPIN FLIP ABSORPTION SPECTRUM VIA TRANSITION ELECTRIC DIPOLE MOMENTS
----------------------------------------------------------------------------------------------------
     Transition      Energy     Energy  Wavelength fosc(D2)      D2        DX        DY        DZ
                      (eV)      (cm-1)    (nm)                 (au**2)    (au)      (au)      (au)
----------------------------------------------------------------------------------------------------
  1-3A  ->  2-3A    4.600763   37107.7   269.5   0.000125772   0.00112   0.02091  -0.00960   0.02422

Dispersion correction             ... done (  0.0 sec)

MULLIKEN ATOMIC CHARGES AND SPIN DENSITIES
------------------------------------------
   0 O :   -0.511114    0.056127
   1 C :    0.205342   -0.176420
   2 C :   -0.688623    0.046927
   3 H :    0.232312   -0.004875
   4 H :    0.290880    0.078503
   5 H :    0.230910   -0.004765
   6 H :    0.240293    0.004504
Sum of atomic charges       :    0.0000000

LOEWDIN ATOMIC CHARGES AND SPIN DENSITIES
-----------------------------------------
   0 O :    0.044417    0.021950
   1 C :   -0.228568   -0.015165
   2 C :    0.177257   -0.001912
   3 H :   -0.008610   -0.001314
   4 H :    0.030047   -0.003349
   5 H :   -0.008516   -0.001292
   6 H :   -0.006026    0.001082

  Mayer bond orders larger than 0.100000
B(  0-O ,  1-C ) :   1.7879 B(  1-C ,  2-C ) :   0.7384 B(  1-C ,  4-H ) :   0.9337
B(  2-C ,  3-H ) :   0.9918 B(  2-C ,  5-H ) :   0.9917 B(  2-C ,  6-H ) :   0.9610

Dispersion correction           -0.005530304
FINAL SINGLE POINT ENERGY      -153.924600704522

DIPOLE MOMENT
-------------

Method             : TDA/CIS
Type of density    : Electron Density
Level              : Relaxed density
State              :   1
Multiplicity       :   3
Irrep              :   0
Energy             :     0.0000000000000000 Eh
Relativity type    :
Basis              : AO
                                X                 Y                 Z
Electronic contribution:      1.435916651       2.871751507      -0.107225628
Nuclear contribution   :     -1.721197241      -4.085814940      -0.127049104
                        -----------------------------------------
Total Dipole Moment    :     -0.285280590      -1.214063434      -0.234274732
                        -----------------------------------------
Magnitude (a.u.)       :      1.268944319
Magnitude (Debye)      :      3.225400133

Rotational constants in cm-1:             1.991810             0.334097             0.301976
Rotational constants in MHz :         59712.974995         10015.990962          9053.007662

                             ****ORCA TERMINATED NORMALLY****
TOTAL RUN TIME: 0 days 0 hours 0 minutes 16 seconds 400 msec
