                         Program Version 6.0.0  -   RELEASE  -
|  1> ! Opt wB97M-D3BJ def2-TZVPPD
|  2> %pal nprocs 8 end %pal nprocs 64 end
|  3> %geom
|  4> Constraints
|  5>     {A 2 1 0 96.61016949152543 C }
|  6> end
|  7> MaxIter 200
|  8> end
|  9> *xyz 0 1
| 10> O   0.9148654286805528 1.0175373092716367 0.0
| 11> C   0.7509 -0.4065 0.0
| 12> C   -0.7502 -0.4076 0.0
| 13> H   1.2625 -0.6786 0.9136
| 14> H   1.2625 -0.6787 -0.9136
| 15> H   -1.2614 -0.6806 -0.9136
| 16> H   -1.2614 -0.6805 0.9136
| 17> *
| 18>
| 19>                          ****END OF INPUT****
 Total Charge           Charge          ....    0
 Multiplicity           Mult            ....    1
 Number of Electrons    NEL             ....   24
Dispersion correction           -0.005524826
FINAL SINGLE POINT ENERGY      -153.770106726858
Dispersion correction             ... done (  0.1 sec)
Dispersion correction           -0.005607950
FINAL SINGLE POINT ENERGY      -153.788635908539
Dispersion correction             ... done (  0.1 sec)
Dispersion correction           -0.005656314
FINAL SINGLE POINT ENERGY      -153.798603013082
Dispersion correction             ... done (  0.1 sec)
FINAL SINGLE POINT ENERGY      -153.806190698477
FINAL SINGLE POINT ENERGY      -153.807439921319
FINAL SINGLE POINT ENERGY      -153.807485719825
Dispersion correction             ... done (  0.1 sec)
Dispersion correction           -0.005670042
FINAL SINGLE POINT ENERGY      -153.807490871415
Dispersion correction             ... done (  0.1 sec)
Dispersion correction           -0.005669428
FINAL SINGLE POINT ENERGY      -153.807491752253
Dispersion correction             ... done (  0.1 sec)
                    ***********************HURRAY********************

CARTESIAN COORDINATES (ANGSTROEM)
---------------------------------
  O      0.678432    0.997942   -0.000201
  C      0.762538   -0.338056   -0.000100
  C     -0.647838   -0.592137    0.000108
  H      1.267374   -0.754300    0.883548
  H      1.267131   -0.754600   -0.883757
  H     -1.205111   -0.537151   -0.924364
  H     -1.204759   -0.536659    0.924766

 Multiplicity           Mult            ....    1
 Number of Electrons    NEL             ....   24
 Basis Dimension        Dim             ....  182

ORBITAL ENERGIES
----------------

  NO   OCC          E(Eh)            E(eV)
   0   2.0000     -19.332567      -526.0659
   1   2.0000     -10.440610      -284.1035
   2   2.0000     -10.397054      -282.9182
   3   2.0000      -1.133738       -30.8506
   4   2.0000      -0.877967       -23.8907
   5   2.0000      -0.733759       -19.9666
   6   2.0000      -0.624871       -17.0036
   7   2.0000      -0.575886       -15.6706
   8   2.0000      -0.517640       -14.0857
   9   2.0000      -0.510517       -13.8919
  10   2.0000      -0.374651       -10.1948
  11   2.0000      -0.357075        -9.7165
  12   0.0000      -0.045859        -1.2479
  13   0.0000       0.037789         1.0283
  14   0.0000       0.061092         1.6624
  15   0.0000       0.076482         2.0812
  16   0.0000       0.098040         2.6678

MULLIKEN ATOMIC CHARGES
-----------------------
   0 O :   -0.503879
   1 C :   -0.096623
   2 C :   -0.268809
   3 H :    0.216832
   4 H :    0.216816
   5 H :    0.217823
   6 H :    0.217840
Sum of atomic charges:    0.0000000

LOEWDIN ATOMIC CHARGES
----------------------
   0 O :   -0.015834
   1 C :   -0.387800
   2 C :    0.373043
   3 H :    0.023205
   4 H :    0.023212
   5 H :   -0.007911
   6 H :   -0.007915

  Mayer bond orders larger than 0.100000
B(  0-O ,  1-C ) :   0.7027 B(  0-O ,  2-C ) :   0.9201 B(  1-C ,  2-C ) :   0.7748
B(  1-C ,  3-H ) :   1.0438 B(  1-C ,  4-H ) :   1.0438 B(  2-C ,  5-H ) :   0.9659
B(  2-C ,  6-H ) :   0.9659

Dispersion correction           -0.005669416
FINAL SINGLE POINT ENERGY      -153.807491901617

DIPOLE MOMENT
-------------

Method             : SCF
Type of density    : Electron Density
Multiplicity       :   1
Irrep              :   0
Energy             :  -153.8018224855595122 Eh
Relativity type    :
Basis              : AO
                                X                 Y                 Z
Electronic contribution:      0.268242153       1.393745776      -0.000247510
Nuclear contribution   :     -0.929875240      -2.595584518       0.000429164
                        -----------------------------------------
Total Dipole Moment    :     -0.661633087      -1.201838742       0.000181654
                        -----------------------------------------
Magnitude (a.u.)       :      1.371923735
Magnitude (Debye)      :      3.487153007

Rotational constants in cm-1:             1.139695             0.455275             0.372760
Rotational constants in MHz :         34167.192975         13648.787175         11175.076185

                             ****ORCA TERMINATED NORMALLY****
TOTAL RUN TIME: 0 days 0 hours 1 minutes 58 seconds 614 msec
