                         Program Version 6.0.0  -   RELEASE  -
|  1> ! Engrad def2-TZVPPD wB97M-D3BJ
|  2> %pal nprocs 8 end%pal nprocs 64 end
|  3> %tddft
|  4>  Iroot 1 Nroots 3
|  5> sf true
|  6> end
|  7> *xyz 0 3
|  8> O   -0.37058732 0.90231191 0.3035742
|  9> C   0.65541467 -0.04038865 0.57914242
| 10> C   0.99887287 -0.75231242 -0.66951072
| 11> H   0.49084605 -0.81456524 1.34521586
| 12> H   1.49620235 0.70366736 0.71693321
| 13> H   1.42219956 -1.71235532 -0.88005891
| 14> H   1.03765307 -0.18605048 -1.59756096
| 15> *
| 16>
| 17>                          ****END OF INPUT****

CARTESIAN COORDINATES (ANGSTROEM)
---------------------------------
  O     -0.370587    0.902312    0.303574
  C      0.655415   -0.040389    0.579142
  C      0.998873   -0.752312   -0.669511
  H      0.490846   -0.814565    1.345216
  H      1.496202    0.703667    0.716933
  H      1.422200   -1.712355   -0.880059
  H      1.037653   -0.186050   -1.597561

 Total Charge           Charge          ....    0
 Multiplicity           Mult            ....    3
 Number of Electrons    NEL             ....   24
 Basis Dimension        Dim             ....  182

ORBITAL ENERGIES
----------------
                 SPIN UP ORBITALS
  NO   OCC          E(Eh)            E(eV)
   0   1.0000     -19.393733      -527.7303
   1   1.0000     -10.423473      -283.6371
   2   1.0000     -10.367248      -282.1072
   3   1.0000      -1.156010       -31.4566
   4   1.0000      -0.881196       -23.9786
   5   1.0000      -0.734505       -19.9869
   6   1.0000      -0.619164       -16.8483
   7   1.0000      -0.587241       -15.9796
   8   1.0000      -0.551948       -15.0193
   9   1.0000      -0.493204       -13.4208
  10   1.0000      -0.451669       -12.2905
  11   1.0000      -0.420564       -11.4441
  12   1.0000      -0.321964        -8.7611
  13   0.0000       0.040518         1.1026
  14   0.0000       0.061901         1.6844
  15   0.0000       0.077373         2.1054
  16   0.0000       0.086974         2.3667
  17   0.0000       0.108389         2.9494

                 SPIN DOWN ORBITALS
  NO   OCC          E(Eh)            E(eV)
   0   1.0000     -19.369236      -527.0637
   1   1.0000     -10.424785      -283.6728
   2   1.0000     -10.353527      -281.7338
   3   1.0000      -1.099626       -29.9223
   4   1.0000      -0.847904       -23.0726
   5   1.0000      -0.708220       -19.2716
   6   1.0000      -0.595892       -16.2150
   7   1.0000      -0.542619       -14.7654
   8   1.0000      -0.524758       -14.2794
   9   1.0000      -0.478008       -13.0073
  10   1.0000      -0.390594       -10.6286
  11   0.0000      -0.050470        -1.3734
  12   0.0000      -0.000787        -0.0214
  13   0.0000       0.040275         1.0959
  14   0.0000       0.061849         1.6830
  15   0.0000       0.077549         2.1102

----------------------------------------------------------------------------------------------------
          SPIN FLIP ABSORPTION SPECTRUM VIA TRANSITION ELECTRIC DIPOLE MOMENTS
----------------------------------------------------------------------------------------------------
     Transition      Energy     Energy  Wavelength fosc(D2)      D2        DX        DY        DZ
                      (eV)      (cm-1)    (nm)                 (au**2)    (au)      (au)      (au)
----------------------------------------------------------------------------------------------------
  1-3A  ->  2-3A    0.048364     390.1  25635.4   0.000307819   0.25978   0.24231  -0.41358  -0.17326
  1-3A  ->  3-1A    0.781934    6306.7  1585.6   0.020675429   1.07926   0.67179  -0.68899  -0.39147

Dispersion correction             ... done (  0.1 sec)

MULLIKEN ATOMIC CHARGES AND SPIN DENSITIES
------------------------------------------
   0 O :   -0.431935   -0.064551
   1 C :   -0.067260   -0.030097
   2 C :   -0.386689    0.058992
   3 H :    0.250241   -0.034189
   4 H :    0.189241    0.049334
   5 H :    0.230921    0.002569
   6 H :    0.215481    0.017941
Sum of atomic charges       :    0.0000000

LOEWDIN ATOMIC CHARGES AND SPIN DENSITIES
-----------------------------------------
   0 O :   -0.074620   -0.091290
   1 C :   -0.220568    0.012721
   2 C :    0.301992    0.057730
   3 H :    0.034061   -0.018801
   4 H :    0.062392    0.029087
   5 H :   -0.063455    0.001646
   6 H :   -0.039802    0.008906

  Mayer bond orders larger than 0.100000
B(  0-O ,  1-C ) :   0.9280 B(  0-O ,  2-C ) :   0.2356 B(  1-C ,  2-C ) :   0.9253
B(  1-C ,  3-H ) :   0.9265 B(  1-C ,  4-H ) :   0.9125 B(  2-C ,  5-H ) :   0.9802
B(  2-C ,  6-H ) :   0.9748

Dispersion correction           -0.005514295
FINAL SINGLE POINT ENERGY      -153.741389163986

DIPOLE MOMENT
-------------

Method             : TDA/CIS
Type of density    : Electron Density
Level              : Relaxed density
State              :   1
Multiplicity       :   3
Irrep              :   0
Energy             :     0.0000000000000000 Eh
Relativity type    :
Basis              : AO
                                X                 Y                 Z
Electronic contribution:     -1.649998331       1.269947295       0.645126849
Nuclear contribution   :      2.590919199      -2.118858847      -0.672022329
                        -----------------------------------------
Total Dipole Moment    :      0.940920869      -0.848911551      -0.026895480
                        -----------------------------------------
Magnitude (a.u.)       :      1.267559178
Magnitude (Debye)      :      3.221879384

Rotational constants in cm-1:             1.376338             0.355933             0.305457
Rotational constants in MHz :         41261.568821         10670.614832          9157.367589

                             ****ORCA TERMINATED NORMALLY****
TOTAL RUN TIME: 0 days 0 hours 0 minutes 26 seconds 92 msec
