                         Program Version 6.0.0  -   RELEASE  -
|  1> ! Engrad def2-TZVPPD wB97M-D3BJ
|  2> %pal nprocs 8 end%pal nprocs 64 end
|  3> %tddft Nroots 2 Iroot 2
|  4> sf true
|  5> end
|  6> *xyz 0 3
|  7> O   3.32208775 0.75579879 -0.26270047
|  8> O   -0.67707824 0.82904199 -2.51434696
|  9> O   0.67913516 -2.82794181 -1.14815576
| 10> O   -3.55026492 -1.08560976 0.39192406
| 11> N   0.21998374 -1.60432601 0.70148247
| 12> N   -2.00756697 0.35551396 1.257282
| 13> N   2.01502559 -1.05407143 -0.6735095
| 14> N   -1.91856534 -0.31199954 -0.9811233
| 15> C   1.48233113 0.41843978 1.16638657
| 16> C   -0.48807332 1.42456473 -0.21966119
| 17> C   0.33435523 -0.41458705 1.4856188
| 18> C   -0.57085098 0.74342458 1.15090213
| 19> C   1.96423306 1.47105933 2.08543275
| 20> C   -0.37673315 2.89541572 -0.32482919
| 21> C   2.35165588 0.0894158 0.03456254
| 22> C   -0.9793903 0.64327001 -1.35330866
| 23> C   0.94062615 -1.89309075 -0.42964943
| 24> C   -2.56581987 -0.39667355 0.25535956
| 25> H   0.26623066 -0.65766289 2.55137926
| 26> H   -0.41666862 1.50433466 1.90900725
| 27> H   1.81133391 2.47269728 1.67438058
| 28> H   1.48886616 1.41495169 3.05926852
| 29> H   3.04116575 1.3722959 2.19584444
| 30> H   -1.27482787 3.37261256 0.08149495
| 31> H   0.46967561 3.27232625 0.25986073
| 32> H   -0.25776772 3.19009493 -1.3674679
| 33> H   -0.59659418 -2.17875808 0.81591033
| 34> H   -2.45269908 0.19842245 2.13991649
| 35> H   2.54616532 -1.24760614 -1.50969314
| 36> H   -2.31885977 -0.86985012 -1.71865216
| 37> *
| 38>
| 39>                          ****END OF INPUT****

CARTESIAN COORDINATES (ANGSTROEM)
---------------------------------
  O      3.322088    0.755799   -0.262700
  O     -0.677078    0.829042   -2.514347
  O      0.679135   -2.827942   -1.148156
  O     -3.550265   -1.085610    0.391924
  N      0.219984   -1.604326    0.701482
  N     -2.007567    0.355514    1.257282
  N      2.015026   -1.054071   -0.673509
  N     -1.918565   -0.312000   -0.981123
  C      1.482331    0.418440    1.166387
  C     -0.488073    1.424565   -0.219661
  C      0.334355   -0.414587    1.485619
  C     -0.570851    0.743425    1.150902
  C      1.964233    1.471059    2.085433
  C     -0.376733    2.895416   -0.324829
  C      2.351656    0.089416    0.034563
  C     -0.979390    0.643270   -1.353309
  C      0.940626   -1.893091   -0.429649
  C     -2.565820   -0.396674    0.255360
  H      0.266231   -0.657663    2.551379
  H     -0.416669    1.504335    1.909007
  H      1.811334    2.472697    1.674381
  H      1.488866    1.414952    3.059269
  H      3.041166    1.372296    2.195844
  H     -1.274828    3.372613    0.081495
  H      0.469676    3.272326    0.259861
  H     -0.257768    3.190095   -1.367468
  H     -0.596594   -2.178758    0.815910
  H     -2.452699    0.198422    2.139916
  H      2.546165   -1.247606   -1.509693
  H     -2.318860   -0.869850   -1.718652

 Total Charge           Charge          ....    0
 Multiplicity           Mult            ....    3
 Number of Electrons    NEL             ....  132
 Basis Dimension        Dim             ....  882

ORBITAL ENERGIES
----------------
                 SPIN UP ORBITALS
  NO   OCC          E(Eh)            E(eV)
   0   1.0000     -19.334107      -526.1078
   1   1.0000     -19.330720      -526.0156
   2   1.0000     -19.322878      -525.8023
   3   1.0000     -19.318051      -525.6709
   4   1.0000     -14.563105      -396.2822
   5   1.0000     -14.562115      -396.2553
   6   1.0000     -14.561513      -396.2389
   7   1.0000     -14.560736      -396.2178
   8   1.0000     -10.505798      -285.8773
   9   1.0000     -10.505362      -285.8654
  10   1.0000     -10.481561      -285.2178
  11   1.0000     -10.480136      -285.1790
  12   1.0000     -10.449640      -284.3492
  13   1.0000     -10.442182      -284.1462
  14   1.0000     -10.418892      -283.5125
  15   1.0000     -10.414461      -283.3919
  16   1.0000     -10.378505      -282.4135
  17   1.0000     -10.376453      -282.3576
  18   1.0000      -1.222774       -33.2734
  19   1.0000      -1.218500       -33.1571
  20   1.0000      -1.197808       -32.5940
  21   1.0000      -1.196868       -32.5684
  22   1.0000      -1.125131       -30.6164
  23   1.0000      -1.098503       -29.8918
  24   1.0000      -1.067428       -29.0462
  25   1.0000      -1.057829       -28.7850
  26   1.0000      -1.004883       -27.3442
  27   1.0000      -0.953210       -25.9382
  28   1.0000      -0.896703       -24.4005
  29   1.0000      -0.841971       -22.9112
  30   1.0000      -0.831430       -22.6244
  31   1.0000      -0.802483       -21.8367
  32   1.0000      -0.787284       -21.4231
  33   1.0000      -0.783946       -21.3323
  34   1.0000      -0.710384       -19.3305
  35   1.0000      -0.699401       -19.0317
  36   1.0000      -0.694952       -18.9106
  37   1.0000      -0.677808       -18.4441
  38   1.0000      -0.660552       -17.9745
  39   1.0000      -0.637660       -17.3516
  40   1.0000      -0.624662       -16.9979
  41   1.0000      -0.600119       -16.3301
  42   1.0000      -0.595068       -16.1926
  43   1.0000      -0.588571       -16.0158
  44   1.0000      -0.583292       -15.8722
  45   1.0000      -0.576563       -15.6891
  46   1.0000      -0.566610       -15.4183
  47   1.0000      -0.565733       -15.3944
  48   1.0000      -0.557701       -15.1758
  49   1.0000      -0.553310       -15.0563
  50   1.0000      -0.549292       -14.9470
  51   1.0000      -0.545310       -14.8386
  52   1.0000      -0.537945       -14.6382
  53   1.0000      -0.524110       -14.2618
  54   1.0000      -0.513386       -13.9699
  55   1.0000      -0.510878       -13.9017
  56   1.0000      -0.497277       -13.5316
  57   1.0000      -0.425034       -11.5658
  58   1.0000      -0.420988       -11.4557
  59   1.0000      -0.411740       -11.2040
  60   1.0000      -0.404760       -11.0141
  61   1.0000      -0.399316       -10.8659
  62   1.0000      -0.393589       -10.7101
  63   1.0000      -0.391082       -10.6419
  64   1.0000      -0.383418       -10.4333
  65   1.0000      -0.350432        -9.5357
  66   1.0000      -0.312404        -8.5009
  67   0.0000       0.006858         0.1866
  68   0.0000       0.027985         0.7615
  69   0.0000       0.032785         0.8921
  70   0.0000       0.036165         0.9841
  71   0.0000       0.054504         1.4831

                 SPIN DOWN ORBITALS
  NO   OCC          E(Eh)            E(eV)
   0   1.0000     -19.330617      -526.0128
   1   1.0000     -19.327036      -525.9154
   2   1.0000     -19.322501      -525.7920
   3   1.0000     -19.318090      -525.6720
   4   1.0000     -14.562345      -396.2616
   5   1.0000     -14.561399      -396.2358
   6   1.0000     -14.560534      -396.2123
   7   1.0000     -14.560422      -396.2092
   8   1.0000     -10.505817      -285.8778
   9   1.0000     -10.505413      -285.8668
  10   1.0000     -10.482492      -285.2431
  11   1.0000     -10.480779      -285.1965
  12   1.0000     -10.448872      -284.3283
  13   1.0000     -10.442233      -284.1476
  14   1.0000     -10.406418      -283.1730
  15   1.0000     -10.402877      -283.0767
  16   1.0000     -10.379085      -282.4293
  17   1.0000     -10.377063      -282.3742
  18   1.0000      -1.221055       -33.2266
  19   1.0000      -1.216949       -33.1149
  20   1.0000      -1.193351       -32.4727
  21   1.0000      -1.192587       -32.4519
  22   1.0000      -1.121449       -30.5162
  23   1.0000      -1.095935       -29.8219
  24   1.0000      -1.065335       -28.9892
  25   1.0000      -1.055839       -28.7308
  26   1.0000      -0.992545       -27.0085
  27   1.0000      -0.935977       -25.4692
  28   1.0000      -0.890101       -24.2209
  29   1.0000      -0.836273       -22.7562
  30   1.0000      -0.822499       -22.3813
  31   1.0000      -0.797438       -21.6994
  32   1.0000      -0.785489       -21.3742
  33   1.0000      -0.781917       -21.2770
  34   1.0000      -0.704750       -19.1772
  35   1.0000      -0.691375       -18.8133
  36   1.0000      -0.687069       -18.6961
  37   1.0000      -0.667999       -18.1772
  38   1.0000      -0.650872       -17.7111
  39   1.0000      -0.633835       -17.2475
  40   1.0000      -0.620049       -16.8724
  41   1.0000      -0.595177       -16.1956
  42   1.0000      -0.589076       -16.0296
  43   1.0000      -0.583413       -15.8755
  44   1.0000      -0.576038       -15.6748
  45   1.0000      -0.566647       -15.4192
  46   1.0000      -0.563121       -15.3233
  47   1.0000      -0.562384       -15.3033
  48   1.0000      -0.551377       -15.0037
  49   1.0000      -0.545267       -14.8375
  50   1.0000      -0.539933       -14.6923
  51   1.0000      -0.537083       -14.6148
  52   1.0000      -0.532481       -14.4895
  53   1.0000      -0.515366       -14.0238
  54   1.0000      -0.508152       -13.8275
  55   1.0000      -0.502711       -13.6795
  56   1.0000      -0.490332       -13.3426
  57   1.0000      -0.419650       -11.4193
  58   1.0000      -0.417504       -11.3609
  59   1.0000      -0.407314       -11.0836
  60   1.0000      -0.394259       -10.7283
  61   1.0000      -0.389797       -10.6069
  62   1.0000      -0.388005       -10.5582
  63   1.0000      -0.385304       -10.4847
  64   1.0000      -0.374662       -10.1951
  65   0.0000      -0.068371        -1.8605
  66   0.0000      -0.027425        -0.7463
  67   0.0000       0.006352         0.1729
  68   0.0000       0.028003         0.7620
  69   0.0000       0.032617         0.8876

----------------------------------------------------------------------------------------------------
          SPIN FLIP ABSORPTION SPECTRUM VIA TRANSITION ELECTRIC DIPOLE MOMENTS
----------------------------------------------------------------------------------------------------
     Transition      Energy     Energy  Wavelength fosc(D2)      D2        DX        DY        DZ
                      (eV)      (cm-1)    (nm)                 (au**2)    (au)      (au)      (au)
----------------------------------------------------------------------------------------------------
  1-3A  ->  2-3A    0.486721    3925.7  2547.3   0.000050390   0.00423   0.01116   0.04606  -0.04450

Dispersion correction             ... done (  0.1 sec)

MULLIKEN ATOMIC CHARGES AND SPIN DENSITIES
------------------------------------------
   0 O :   -0.693340    0.032496
   1 O :   -0.661583   -0.030432
   2 O :   -0.658855   -0.000240
   3 O :   -0.644314   -0.000392
   4 N :   -0.203394    0.007277
   5 N :   -0.349528   -0.008522
   6 N :   -0.019037    0.004183
   7 N :    0.066386   -0.003121
   8 C :    0.315043    0.404993
   9 C :    0.885207    0.276600
  10 C :    0.720294   -0.192266
  11 C :    0.187418   -0.181386
  12 C :   -1.592476    0.034220
  13 C :   -1.449713    0.032873
  14 C :    0.289422   -0.158872
  15 C :   -0.235629   -0.301487
  16 C :    0.497826    0.022112
  17 C :    0.355966    0.013439
  18 H :    0.336028    0.001015
  19 H :    0.657540    0.004604
  20 H :    0.255349    0.006045
  21 H :    0.362739    0.001859
  22 H :    0.397111    0.008843
  23 H :    0.363134    0.007433
  24 H :    0.263917    0.028601
  25 H :    0.363525   -0.012307
  26 H :    0.034780    0.000056
  27 H :    0.096148    0.000955
  28 H :    0.027773   -0.000236
  29 H :    0.032259    0.001657
Sum of atomic charges       :    0.0000000

LOEWDIN ATOMIC CHARGES AND SPIN DENSITIES
-----------------------------------------
   0 O :    0.092471    0.027816
   1 O :    0.098607   -0.030255
   2 O :    0.095150   -0.000459
   3 O :    0.086272   -0.000183
   4 N :    0.302471   -0.000429
   5 N :    0.301723   -0.004555
   6 N :    0.338387    0.003359
   7 N :    0.325200   -0.004685
   8 C :   -0.077829    0.129875
   9 C :    0.004934   -0.123837
  10 C :   -0.126256    0.012534
  11 C :   -0.126800   -0.001214
  12 C :    0.190087    0.018176
  13 C :    0.203853   -0.020901
  14 C :   -0.395395    0.015007
  15 C :   -0.416425   -0.021891
  16 C :   -0.481730   -0.000143
  17 C :   -0.495207   -0.000151
  18 H :    0.076825    0.003152
  19 H :    0.041489    0.000291
  20 H :    0.000831    0.005600
  21 H :    0.004826    0.000273
  22 H :    0.012843    0.004275
  23 H :    0.019481   -0.007219
  24 H :   -0.008224   -0.003308
  25 H :    0.009357   -0.000234
  26 H :   -0.026869   -0.000056
  27 H :   -0.038964   -0.000689
  28 H :   -0.003805    0.000355
  29 H :   -0.007302   -0.000503

  Mayer bond orders larger than 0.100000
B(  0-O , 12-C ) :   0.1050 B(  0-O , 14-C ) :   1.2661 B(  1-O , 15-C ) :   1.4303
B(  2-O , 16-C ) :   1.5177 B(  3-O , 17-C ) :   1.5816 B(  4-N ,  8-C ) :   0.1759
B(  4-N ,  9-C ) :   0.1147 B(  4-N , 10-C ) :   0.5068 B(  4-N , 16-C ) :   1.0246
B(  4-N , 26-H ) :   1.0929 B(  5-N ,  9-C ) :   0.2154 B(  5-N , 10-C ) :   0.1754
B(  5-N , 11-C ) :  -0.2015 B(  5-N , 15-C ) :   0.1221 B(  5-N , 17-C ) :   1.2273
B(  5-N , 27-H ) :   1.0266 B(  6-N , 14-C ) :   0.9906 B(  6-N , 16-C ) :   0.9292
B(  6-N , 28-H ) :   1.1040 B(  7-N , 10-C ) :  -0.1323 B(  7-N , 11-C ) :   0.1649
B(  7-N , 15-C ) :   0.9478 B(  7-N , 17-C ) :   0.9821 B(  7-N , 29-H ) :   1.1030
B(  8-C ,  9-C ) :   0.2057 B(  8-C , 10-C ) :   0.3026 B(  8-C , 11-C ) :   0.5725
B(  8-C , 12-C ) :   0.3677 B(  8-C , 14-C ) :   0.6913 B(  8-C , 18-H ) :  -0.2657
B(  8-C , 21-H ) :  -0.1893 B(  9-C , 11-C ) :   0.8079 B(  9-C , 13-C ) :   0.3103
B(  9-C , 15-C ) :   0.3459 B(  9-C , 25-H ) :  -0.1006 B( 10-C , 11-C ) :   0.2079
B( 10-C , 12-C ) :  -0.4463 B( 10-C , 15-C ) :  -0.1012 B( 10-C , 18-H ) :   1.1537
B( 10-C , 19-H ) :  -0.1336 B( 11-C , 12-C ) :   0.2308 B( 11-C , 13-C ) :  -0.1811
B( 11-C , 15-C ) :  -0.1014 B( 11-C , 17-C ) :  -0.2175 B( 11-C , 18-H ) :  -0.1796
B( 11-C , 19-H ) :   0.7331 B( 12-C , 20-H ) :   0.8376 B( 12-C , 21-H ) :   1.1306
B( 12-C , 22-H ) :   0.8642 B( 13-C , 23-H ) :   0.8522 B( 13-C , 24-H ) :   1.0283
B( 13-C , 25-H ) :   0.9615

Dispersion correction           -0.059831637
FINAL SINGLE POINT ENERGY      -908.771823697749

DIPOLE MOMENT
-------------

Method             : TDA/CIS
Type of density    : Electron Density
Level              : Relaxed density
State              :   2
Multiplicity       :   3
Irrep              :   0
Energy             :     0.0000000000000000 Eh
Relativity type    :
Basis              : AO
                                X                 Y                 Z
Electronic contribution:     -2.209221913      -9.752381296      -6.652654091
Nuclear contribution   :      2.144043270      11.157891782       9.229992706
                        -----------------------------------------
Total Dipole Moment    :     -0.065178644       1.405510486       2.577338615
                        -----------------------------------------
Magnitude (a.u.)       :      2.936389333
Magnitude (Debye)      :      7.463708535

Rotational constants in cm-1:             0.020259             0.014254             0.012486
Rotational constants in MHz :           607.347936           427.315757           374.321010

                             ****ORCA TERMINATED NORMALLY****
TOTAL RUN TIME: 0 days 0 hours 4 minutes 41 seconds 352 msec
