                         Program Version 6.0.0  -   RELEASE  -
|  1> ! Engrad def2-TZVPPD wB97M-D3BJ
|  2> %pal nprocs 8 end%pal nprocs 64 end
|  3> %tddft
|  4>  Iroot 1 Nroots 3
|  5> sf true
|  6> end
|  7> *xyz 0 3
|  8> O   3.00425231 -1.29070132 -2.10397958
|  9> O   -2.42316669 1.12811529 -1.49394646
| 10> O   -1.34514306 -2.34603936 -1.11467477
| 11> O   -2.26473959 0.76538027 3.07249101
| 12> N   -0.1853536 -1.30958085 0.43482897
| 13> N   -0.35984926 1.3738249 2.02697195
| 14> N   0.75221926 -1.64901479 -1.61865503
| 15> N   -2.37314573 0.83654624 0.79149605
| 16> C   2.15065004 -0.6383712 0.02281056
| 17> C   -0.28642098 1.27281225 -0.43216267
| 18> C   0.92155594 -0.53418968 0.87721021
| 19> C   0.45629091 0.98257323 0.8314435
| 20> C   3.44965581 -0.02686663 0.49792021
| 21> C   0.43567444 1.65197364 -1.61934853
| 22> C   2.06702858 -1.1819932 -1.2988679
| 23> C   -1.77460719 1.11146268 -0.49542713
| 24> C   -0.34928356 -1.77547346 -0.76261659
| 25> C   -1.68064582 0.95378365 2.03081832
| 26> H   1.18131463 -0.77366914 1.92229733
| 27> H   1.37082356 1.64501137 0.82067611
| 28> H   3.63368901 -0.4386702 1.47415554
| 29> H   4.17999202 -0.21848292 -0.20111719
| 30> H   3.46626799 1.0630181 0.52194483
| 31> H   0.17701208 2.65637026 -1.97847373
| 32> H   1.46018838 1.50894349 -1.56625958
| 33> H   0.03341584 1.10517447 -2.43004972
| 34> H   -0.81138139 -1.78434091 1.08929637
| 35> H   0.17542204 1.05052802 2.84577349
| 36> H   0.58656736 -1.99806391 -2.56581762
| 37> H   -3.34544958 0.81859034 0.90066399
| 38> *
| 39>
| 40>                          ****END OF INPUT****

CARTESIAN COORDINATES (ANGSTROEM)
---------------------------------
  O      3.004252   -1.290701   -2.103980
  O     -2.423167    1.128115   -1.493946
  O     -1.345143   -2.346039   -1.114675
  O     -2.264740    0.765380    3.072491
  N     -0.185354   -1.309581    0.434829
  N     -0.359849    1.373825    2.026972
  N      0.752219   -1.649015   -1.618655
  N     -2.373146    0.836546    0.791496
  C      2.150650   -0.638371    0.022811
  C     -0.286421    1.272812   -0.432163
  C      0.921556   -0.534190    0.877210
  C      0.456291    0.982573    0.831443
  C      3.449656   -0.026867    0.497920
  C      0.435674    1.651974   -1.619349
  C      2.067029   -1.181993   -1.298868
  C     -1.774607    1.111463   -0.495427
  C     -0.349284   -1.775473   -0.762617
  C     -1.680646    0.953784    2.030818
  H      1.181315   -0.773669    1.922297
  H      1.370824    1.645011    0.820676
  H      3.633689   -0.438670    1.474156
  H      4.179992   -0.218483   -0.201117
  H      3.466268    1.063018    0.521945
  H      0.177012    2.656370   -1.978474
  H      1.460188    1.508943   -1.566260
  H      0.033416    1.105174   -2.430050
  H     -0.811381   -1.784341    1.089296
  H      0.175422    1.050528    2.845773
  H      0.586567   -1.998064   -2.565818
  H     -3.345450    0.818590    0.900664

 Total Charge           Charge          ....    0
 Multiplicity           Mult            ....    3
 Number of Electrons    NEL             ....  132
 Basis Dimension        Dim             ....  882

ORBITAL ENERGIES
----------------
                 SPIN UP ORBITALS
  NO   OCC          E(Eh)            E(eV)
   0   1.0000     -19.343133      -526.3534
   1   1.0000     -19.339590      -526.2570
   2   1.0000     -19.323435      -525.8174
   3   1.0000     -19.310351      -525.4614
   4   1.0000     -14.566386      -396.3715
   5   1.0000     -14.562791      -396.2737
   6   1.0000     -14.561470      -396.2377
   7   1.0000     -14.557791      -396.1376
   8   1.0000     -10.507094      -285.9126
   9   1.0000     -10.495224      -285.5896
  10   1.0000     -10.490750      -285.4678
  11   1.0000     -10.486253      -285.3455
  12   1.0000     -10.455618      -284.5118
  13   1.0000     -10.445051      -284.2243
  14   1.0000     -10.429829      -283.8101
  15   1.0000     -10.415216      -283.4124
  16   1.0000     -10.377508      -282.3863
  17   1.0000     -10.360867      -281.9335
  18   1.0000      -1.225770       -33.3549
  19   1.0000      -1.219605       -33.1871
  20   1.0000      -1.206694       -32.8358
  21   1.0000      -1.192478       -32.4490
  22   1.0000      -1.125641       -30.6302
  23   1.0000      -1.092408       -29.7259
  24   1.0000      -1.057588       -28.7784
  25   1.0000      -1.052104       -28.6292
  26   1.0000      -0.989033       -26.9129
  27   1.0000      -0.963602       -26.2210
  28   1.0000      -0.895301       -24.3624
  29   1.0000      -0.850168       -23.1343
  30   1.0000      -0.829448       -22.5704
  31   1.0000      -0.803252       -21.8576
  32   1.0000      -0.781552       -21.2671
  33   1.0000      -0.768012       -20.8987
  34   1.0000      -0.704279       -19.1644
  35   1.0000      -0.698444       -19.0056
  36   1.0000      -0.691590       -18.8191
  37   1.0000      -0.676875       -18.4187
  38   1.0000      -0.659744       -17.9525
  39   1.0000      -0.632147       -17.2016
  40   1.0000      -0.618076       -16.8187
  41   1.0000      -0.607162       -16.5217
  42   1.0000      -0.599305       -16.3079
  43   1.0000      -0.587004       -15.9732
  44   1.0000      -0.580724       -15.8023
  45   1.0000      -0.574429       -15.6310
  46   1.0000      -0.569212       -15.4890
  47   1.0000      -0.561385       -15.2761
  48   1.0000      -0.559383       -15.2216
  49   1.0000      -0.558124       -15.1873
  50   1.0000      -0.556194       -15.1348
  51   1.0000      -0.537689       -14.6313
  52   1.0000      -0.534032       -14.5317
  53   1.0000      -0.525802       -14.3078
  54   1.0000      -0.521437       -14.1890
  55   1.0000      -0.515867       -14.0374
  56   1.0000      -0.501995       -13.6600
  57   1.0000      -0.431303       -11.7363
  58   1.0000      -0.419752       -11.4220
  59   1.0000      -0.417339       -11.3564
  60   1.0000      -0.406120       -11.0511
  61   1.0000      -0.400100       -10.8873
  62   1.0000      -0.392746       -10.6872
  63   1.0000      -0.390429       -10.6241
  64   1.0000      -0.382057       -10.3963
  65   1.0000      -0.353066        -9.6074
  66   1.0000      -0.326780        -8.8921
  67   0.0000       0.008218         0.2236
  68   0.0000       0.025302         0.6885
  69   0.0000       0.033384         0.9084
  70   0.0000       0.035754         0.9729
  71   0.0000       0.054176         1.4742

                 SPIN DOWN ORBITALS
  NO   OCC          E(Eh)            E(eV)
   0   1.0000     -19.338333      -526.2228
   1   1.0000     -19.336193      -526.1645
   2   1.0000     -19.323291      -525.8135
   3   1.0000     -19.310328      -525.4607
   4   1.0000     -14.565919      -396.3588
   5   1.0000     -14.562710      -396.2715
   6   1.0000     -14.560557      -396.2129
   7   1.0000     -14.557412      -396.1273
   8   1.0000     -10.507140      -285.9138
   9   1.0000     -10.495272      -285.5909
  10   1.0000     -10.491865      -285.4982
  11   1.0000     -10.487174      -285.3705
  12   1.0000     -10.455306      -284.5033
  13   1.0000     -10.444630      -284.2128
  14   1.0000     -10.418721      -283.5078
  15   1.0000     -10.403607      -283.0965
  16   1.0000     -10.378075      -282.4018
  17   1.0000     -10.361315      -281.9457
  18   1.0000      -1.224723       -33.3264
  19   1.0000      -1.217169       -33.1208
  20   1.0000      -1.203761       -32.7560
  21   1.0000      -1.185695       -32.2644
  22   1.0000      -1.123468       -30.5711
  23   1.0000      -1.090424       -29.6719
  24   1.0000      -1.055286       -28.7158
  25   1.0000      -1.050695       -28.5909
  26   1.0000      -0.976212       -26.5641
  27   1.0000      -0.946829       -25.7645
  28   1.0000      -0.890367       -24.2281
  29   1.0000      -0.843374       -22.9494
  30   1.0000      -0.820121       -22.3166
  31   1.0000      -0.797760       -21.7082
  32   1.0000      -0.779769       -21.2186
  33   1.0000      -0.766550       -20.8589
  34   1.0000      -0.699834       -19.0435
  35   1.0000      -0.692133       -18.8339
  36   1.0000      -0.686071       -18.6689
  37   1.0000      -0.670216       -18.2375
  38   1.0000      -0.648418       -17.6443
  39   1.0000      -0.627566       -17.0769
  40   1.0000      -0.614090       -16.7102
  41   1.0000      -0.599553       -16.3147
  42   1.0000      -0.592418       -16.1205
  43   1.0000      -0.579788       -15.7768
  44   1.0000      -0.576328       -15.6827
  45   1.0000      -0.569136       -15.4870
  46   1.0000      -0.563056       -15.3215
  47   1.0000      -0.557967       -15.1831
  48   1.0000      -0.553176       -15.0527
  49   1.0000      -0.550765       -14.9871
  50   1.0000      -0.542015       -14.7490
  51   1.0000      -0.528581       -14.3834
  52   1.0000      -0.528077       -14.3697
  53   1.0000      -0.518310       -14.1039
  54   1.0000      -0.515380       -14.0242
  55   1.0000      -0.505776       -13.7629
  56   1.0000      -0.494493       -13.4559
  57   1.0000      -0.427105       -11.6221
  58   1.0000      -0.415251       -11.2996
  59   1.0000      -0.412364       -11.2210
  60   1.0000      -0.392958       -10.6929
  61   1.0000      -0.389478       -10.5982
  62   1.0000      -0.388858       -10.5814
  63   1.0000      -0.386494       -10.5170
  64   1.0000      -0.375662       -10.2223
  65   0.0000      -0.072665        -1.9773
  66   0.0000      -0.046632        -1.2689
  67   0.0000       0.007659         0.2084
  68   0.0000       0.025227         0.6865
  69   0.0000       0.033115         0.9011

----------------------------------------------------------------------------------------------------
          SPIN FLIP ABSORPTION SPECTRUM VIA TRANSITION ELECTRIC DIPOLE MOMENTS
----------------------------------------------------------------------------------------------------
     Transition      Energy     Energy  Wavelength fosc(D2)      D2        DX        DY        DZ
                      (eV)      (cm-1)    (nm)                 (au**2)    (au)      (au)      (au)
----------------------------------------------------------------------------------------------------
  1-3A  ->  2-3A    0.100906     813.9  12287.1   0.000033763   0.01366   0.09039  -0.03593  -0.06478
  1-3A  ->  3-3A    2.139329   17254.9   579.5   0.002126993   0.04058   0.18127  -0.06731  -0.05651

Dispersion correction             ... done (  0.1 sec)

MULLIKEN ATOMIC CHARGES AND SPIN DENSITIES
------------------------------------------
   0 O :   -0.692378   -0.048097
   1 O :   -0.612677    0.034295
   2 O :   -0.679667   -0.000561
   3 O :   -0.635736   -0.000050
   4 N :   -0.193364   -0.003237
   5 N :   -0.412187    0.001516
   6 N :    0.028958   -0.015620
   7 N :    0.093968    0.003940
   8 C :    0.333574    0.319287
   9 C :    0.000718    0.356282
  10 C :    0.383262   -0.199904
  11 C :    0.455593   -0.138033
  12 C :   -1.495158   -0.007580
  13 C :   -1.456223    0.000944
  14 C :    0.103569   -0.293323
  15 C :    0.347812   -0.070539
  16 C :    0.518833    0.031421
  17 C :    0.341581    0.004356
  18 H :    0.663469   -0.028953
  19 H :    0.574417    0.012679
  20 H :    0.400235    0.008065
  21 H :    0.370133   -0.004073
  22 H :    0.276297    0.007278
  23 H :    0.357668    0.012124
  24 H :    0.326502    0.003684
  25 H :    0.313288    0.011486
  26 H :    0.035423   -0.001868
  27 H :    0.189511    0.000246
  28 H :    0.046320    0.003913
  29 H :    0.016260    0.000322
Sum of atomic charges       :    0.0000000

LOEWDIN ATOMIC CHARGES AND SPIN DENSITIES
-----------------------------------------
   0 O :    0.058591   -0.042024
   1 O :    0.125785    0.029357
   2 O :    0.106066   -0.000775
   3 O :    0.080421   -0.000117
   4 N :    0.262339    0.003518
   5 N :    0.270540    0.000058
   6 N :    0.335231   -0.010765
   7 N :    0.346421    0.003196
   8 C :   -0.012579   -0.127098
   9 C :   -0.022584    0.150099
  10 C :   -0.094141   -0.011734
  11 C :   -0.106629    0.003740
  12 C :    0.227865   -0.017793
  13 C :    0.206147    0.025814
  14 C :   -0.390856   -0.027790
  15 C :   -0.375904    0.017574
  16 C :   -0.551323    0.000435
  17 C :   -0.480941   -0.000175
  18 H :    0.072122   -0.003021
  19 H :    0.060867    0.001135
  20 H :    0.000459   -0.003250
  21 H :   -0.051783    0.000065
  22 H :    0.006096   -0.004950
  23 H :    0.038157    0.009665
  24 H :   -0.034794   -0.000768
  25 H :   -0.009604    0.006191
  26 H :    0.017594    0.000152
  27 H :   -0.023927   -0.000227
  28 H :    0.001028   -0.000839
  29 H :   -0.060664    0.000325

  Mayer bond orders larger than 0.100000
B(  0-O , 14-C ) :   1.2412 B(  1-O , 15-C ) :   1.4213 B(  2-O , 16-C ) :   1.4610
B(  3-O , 17-C ) :   1.5815 B(  4-N ,  8-C ) :   0.1139 B(  4-N ,  9-C ) :   0.1382
B(  4-N , 10-C ) :   0.6592 B(  4-N , 16-C ) :   1.1088 B(  4-N , 26-H ) :   1.0770
B(  5-N ,  9-C ) :   0.4157 B(  5-N , 10-C ) :   0.1210 B(  5-N , 11-C ) :  -0.1096
B(  5-N , 17-C ) :   1.1255 B(  5-N , 19-H ) :  -0.2130 B(  5-N , 27-H ) :   0.9273
B(  6-N ,  8-C ) :  -0.1755 B(  6-N , 10-C ) :   0.1637 B(  6-N , 14-C ) :   1.0566
B(  6-N , 16-C ) :   0.8715 B(  6-N , 28-H ) :   1.1060 B(  7-N , 15-C ) :   1.0879
B(  7-N , 17-C ) :   0.9852 B(  7-N , 29-H ) :   1.1022 B(  8-C ,  9-C ) :   0.1075
B(  8-C , 10-C ) :   0.3889 B(  8-C , 11-C ) :   0.4523 B(  8-C , 12-C ) :   0.4991
B(  8-C , 14-C ) :   0.7078 B(  8-C , 18-H ) :  -0.1913 B(  9-C , 11-C ) :   0.4246
B(  9-C , 13-C ) :   0.4871 B(  9-C , 15-C ) :   0.5987 B(  9-C , 17-C ) :   0.1000
B(  9-C , 19-H ) :  -0.2987 B(  9-C , 24-H ) :  -0.1317 B( 10-C , 11-C ) :   0.4133
B( 10-C , 16-C ) :  -0.1139 B( 10-C , 18-H ) :   0.7111 B( 11-C , 13-C ) :  -0.2170
B( 11-C , 17-C ) :  -0.1691 B( 11-C , 18-H ) :  -0.2131 B( 11-C , 19-H ) :   0.9439
B( 12-C , 20-H ) :   0.8839 B( 12-C , 21-H ) :   0.9991 B( 12-C , 22-H ) :   0.8632
B( 13-C , 23-H ) :   0.8478 B( 13-C , 24-H ) :   1.0093 B( 13-C , 25-H ) :   0.9504

Dispersion correction           -0.059730254
FINAL SINGLE POINT ENERGY      -908.775453309671

DIPOLE MOMENT
-------------

Method             : TDA/CIS
Type of density    : Electron Density
Level              : Relaxed density
State              :   1
Multiplicity       :   3
Irrep              :   0
Energy             :     0.0000000000000000 Eh
Relativity type    :
Basis              : AO
                                X                 Y                 Z
Electronic contribution:     -9.512646260      -4.020150339       0.138322829
Nuclear contribution   :     11.386023065       4.852546243       1.066925793
                        -----------------------------------------
Total Dipole Moment    :      1.873376805       0.832395904       1.205248622
                        -----------------------------------------
Magnitude (a.u.)       :      2.378034448
Magnitude (Debye)      :      6.044483204

Rotational constants in cm-1:             0.022685             0.012494             0.011028
Rotational constants in MHz :           680.088946           374.560279           330.618992

                             ****ORCA TERMINATED NORMALLY****
TOTAL RUN TIME: 0 days 0 hours 5 minutes 9 seconds 685 msec
