                         Program Version 6.0.0  -   RELEASE  -
|  1> ! Engrad def2-TZVPPD wB97M-D3BJ
|  2> %pal nprocs 8 end%pal nprocs 64 end
|  3> %tddft
|  4>  Iroot 2 Nroots 3
|  5> sf true
|  6> end
|  7> *xyz 0 3
|  8> O   3.13678575 0.67464276 -0.690289
|  9> O   -0.47099796 1.36808852 -2.41659298
| 10> O   0.48854305 -3.13335771 -0.50449031
| 11> O   -2.97161119 -1.81077659 -0.23122988
| 12> N   0.12341885 -1.44429122 1.05771711
| 13> N   -2.17425494 -0.09192049 0.96872136
| 14> N   1.72840456 -1.15469928 -0.66193631
| 15> N   -1.64380434 -0.29885814 -1.35032115
| 16> C   1.50958271 0.49314864 1.03630627
| 17> C   -0.7275971 1.60757703 -0.01302004
| 18> C   0.26670019 -0.10870776 1.56012853
| 19> C   -1.10452086 0.79310037 1.15776662
| 20> C   2.17138455 1.53482941 1.98813164
| 21> C   -0.12886407 2.94729159 -0.11904281
| 22> C   2.22120277 0.04677501 -0.15997328
| 23> C   -0.96566243 0.99111079 -1.36566474
| 24> C   0.76832269 -2.04113271 -0.04057799
| 25> C   -2.33055493 -0.79198313 -0.1793536
| 26> H   0.28171045 -0.14499479 2.68550925
| 27> H   -1.35216555 1.3895772 1.98700595
| 28> H   2.60569008 0.89164456 2.73951951
| 29> H   2.89001592 2.0764691 1.45994382
| 30> H   1.40656311 2.16146428 2.47848152
| 31> H   -0.77342887 3.58977325 -0.73369983
| 32> H   -0.05024446 3.4463387 0.81045559
| 33> H   0.84031911 2.86272125 -0.59989738
| 34> H   -0.70283037 -1.95140393 1.36661613
| 35> H   -2.89574849 -0.24055366 1.66100725
| 36> H   1.90402849 -1.30280354 -1.60558142
| 37> H   -1.75693375 -0.82781036 -2.2458551
| 38> *
| 39>
| 40>                          ****END OF INPUT****

CARTESIAN COORDINATES (ANGSTROEM)
---------------------------------
  O      3.136786    0.674643   -0.690289
  O     -0.470998    1.368089   -2.416593
  O      0.488543   -3.133358   -0.504490
  O     -2.971611   -1.810777   -0.231230
  N      0.123419   -1.444291    1.057717
  N     -2.174255   -0.091920    0.968721
  N      1.728405   -1.154699   -0.661936
  N     -1.643804   -0.298858   -1.350321
  C      1.509583    0.493149    1.036306
  C     -0.727597    1.607577   -0.013020
  C      0.266700   -0.108708    1.560129
  C     -1.104521    0.793100    1.157767
  C      2.171385    1.534829    1.988132
  C     -0.128864    2.947292   -0.119043
  C      2.221203    0.046775   -0.159973
  C     -0.965662    0.991111   -1.365665
  C      0.768323   -2.041133   -0.040578
  C     -2.330555   -0.791983   -0.179354
  H      0.281710   -0.144995    2.685509
  H     -1.352166    1.389577    1.987006
  H      2.605690    0.891645    2.739520
  H      2.890016    2.076469    1.459944
  H      1.406563    2.161464    2.478482
  H     -0.773429    3.589773   -0.733700
  H     -0.050244    3.446339    0.810456
  H      0.840319    2.862721   -0.599897
  H     -0.702830   -1.951404    1.366616
  H     -2.895748   -0.240554    1.661007
  H      1.904028   -1.302804   -1.605581
  H     -1.756934   -0.827810   -2.245855

 Total Charge           Charge          ....    0
 Multiplicity           Mult            ....    3
 Number of Electrons    NEL             ....  132
 Basis Dimension        Dim             ....  882

ORBITAL ENERGIES
----------------
                 SPIN UP ORBITALS
  NO   OCC          E(Eh)            E(eV)
   0   1.0000     -19.335610      -526.1487
   1   1.0000     -19.332170      -526.0551
   2   1.0000     -19.328612      -525.9583
   3   1.0000     -19.320768      -525.7448
   4   1.0000     -14.568072      -396.4174
   5   1.0000     -14.561990      -396.2519
   6   1.0000     -14.559224      -396.1766
   7   1.0000     -14.555734      -396.0817
   8   1.0000     -10.516629      -286.1720
   9   1.0000     -10.506390      -285.8934
  10   1.0000     -10.485458      -285.3238
  11   1.0000     -10.481831      -285.2251
  12   1.0000     -10.447317      -284.2859
  13   1.0000     -10.446561      -284.2654
  14   1.0000     -10.418549      -283.5031
  15   1.0000     -10.416211      -283.4395
  16   1.0000     -10.373122      -282.2670
  17   1.0000     -10.368302      -282.1358
  18   1.0000      -1.218199       -33.1489
  19   1.0000      -1.206371       -32.8270
  20   1.0000      -1.193468       -32.4759
  21   1.0000      -1.187005       -32.3001
  22   1.0000      -1.123652       -30.5761
  23   1.0000      -1.094022       -29.7698
  24   1.0000      -1.053594       -28.6698
  25   1.0000      -1.040329       -28.3088
  26   1.0000      -0.978955       -26.6387
  27   1.0000      -0.945785       -25.7361
  28   1.0000      -0.885694       -24.1010
  29   1.0000      -0.839156       -22.8346
  30   1.0000      -0.819892       -22.3104
  31   1.0000      -0.800824       -21.7915
  32   1.0000      -0.777053       -21.1447
  33   1.0000      -0.769544       -20.9403
  34   1.0000      -0.699981       -19.0475
  35   1.0000      -0.685968       -18.6661
  36   1.0000      -0.685603       -18.6562
  37   1.0000      -0.665108       -18.0985
  38   1.0000      -0.652869       -17.7655
  39   1.0000      -0.643739       -17.5170
  40   1.0000      -0.625607       -17.0236
  41   1.0000      -0.600151       -16.3309
  42   1.0000      -0.589585       -16.0434
  43   1.0000      -0.576621       -15.6906
  44   1.0000      -0.572460       -15.5774
  45   1.0000      -0.570347       -15.5199
  46   1.0000      -0.564206       -15.3528
  47   1.0000      -0.557556       -15.1719
  48   1.0000      -0.557239       -15.1633
  49   1.0000      -0.551714       -15.0129
  50   1.0000      -0.548155       -14.9161
  51   1.0000      -0.540352       -14.7037
  52   1.0000      -0.526050       -14.3146
  53   1.0000      -0.519165       -14.1272
  54   1.0000      -0.514115       -13.9898
  55   1.0000      -0.504192       -13.7197
  56   1.0000      -0.495502       -13.4833
  57   1.0000      -0.420852       -11.4520
  58   1.0000      -0.417726       -11.3669
  59   1.0000      -0.407812       -11.0971
  60   1.0000      -0.402845       -10.9620
  61   1.0000      -0.397206       -10.8085
  62   1.0000      -0.392897       -10.6913
  63   1.0000      -0.390333       -10.6215
  64   1.0000      -0.384094       -10.4517
  65   1.0000      -0.329384        -8.9630
  66   1.0000      -0.324108        -8.8194
  67   0.0000       0.004342         0.1181
  68   0.0000       0.029986         0.8160
  69   0.0000       0.031020         0.8441
  70   0.0000       0.037823         1.0292
  71   0.0000       0.055828         1.5191

                 SPIN DOWN ORBITALS
  NO   OCC          E(Eh)            E(eV)
   0   1.0000     -19.332209      -526.0561
   1   1.0000     -19.328478      -525.9546
   2   1.0000     -19.327891      -525.9387
   3   1.0000     -19.320641      -525.7414
   4   1.0000     -14.567703      -396.4073
   5   1.0000     -14.561433      -396.2367
   6   1.0000     -14.558906      -396.1680
   7   1.0000     -14.555125      -396.0651
   8   1.0000     -10.516662      -286.1729
   9   1.0000     -10.506421      -285.8942
  10   1.0000     -10.486313      -285.3471
  11   1.0000     -10.482866      -285.2533
  12   1.0000     -10.446511      -284.2640
  13   1.0000     -10.445875      -284.2467
  14   1.0000     -10.407116      -283.1920
  15   1.0000     -10.404722      -283.1269
  16   1.0000     -10.373594      -282.2798
  17   1.0000     -10.368731      -282.1475
  18   1.0000      -1.217382       -33.1266
  19   1.0000      -1.204923       -32.7876
  20   1.0000      -1.188563       -32.3424
  21   1.0000      -1.181831       -32.1592
  22   1.0000      -1.121351       -30.5135
  23   1.0000      -1.091669       -29.7058
  24   1.0000      -1.051694       -28.6180
  25   1.0000      -1.038678       -28.2639
  26   1.0000      -0.964368       -26.2418
  27   1.0000      -0.929523       -25.2936
  28   1.0000      -0.880566       -23.9614
  29   1.0000      -0.834981       -22.7210
  30   1.0000      -0.810718       -22.0608
  31   1.0000      -0.794435       -21.6177
  32   1.0000      -0.775262       -21.0960
  33   1.0000      -0.767581       -20.8869
  34   1.0000      -0.694558       -18.8999
  35   1.0000      -0.681153       -18.5351
  36   1.0000      -0.677763       -18.4429
  37   1.0000      -0.659253       -17.9392
  38   1.0000      -0.646886       -17.6027
  39   1.0000      -0.635945       -17.3049
  40   1.0000      -0.618381       -16.8270
  41   1.0000      -0.596105       -16.2208
  42   1.0000      -0.584145       -15.8954
  43   1.0000      -0.567711       -15.4482
  44   1.0000      -0.566858       -15.4250
  45   1.0000      -0.562742       -15.3130
  46   1.0000      -0.558034       -15.1849
  47   1.0000      -0.553784       -15.0692
  48   1.0000      -0.548692       -14.9307
  49   1.0000      -0.544909       -14.8277
  50   1.0000      -0.541129       -14.7249
  51   1.0000      -0.533371       -14.5138
  52   1.0000      -0.519670       -14.1409
  53   1.0000      -0.510154       -13.8820
  54   1.0000      -0.504060       -13.7162
  55   1.0000      -0.498912       -13.5761
  56   1.0000      -0.487979       -13.2786
  57   1.0000      -0.417193       -11.3524
  58   1.0000      -0.415095       -11.2953
  59   1.0000      -0.402305       -10.9473
  60   1.0000      -0.390799       -10.6342
  61   1.0000      -0.386534       -10.5181
  62   1.0000      -0.385173       -10.4811
  63   1.0000      -0.383095       -10.4245
  64   1.0000      -0.370608       -10.0847
  65   0.0000      -0.058930        -1.6036
  66   0.0000      -0.043689        -1.1888
  67   0.0000       0.003890         0.1059
  68   0.0000       0.030013         0.8167
  69   0.0000       0.030933         0.8417

----------------------------------------------------------------------------------------------------
          SPIN FLIP ABSORPTION SPECTRUM VIA TRANSITION ELECTRIC DIPOLE MOMENTS
----------------------------------------------------------------------------------------------------
     Transition      Energy     Energy  Wavelength fosc(D2)      D2        DX        DY        DZ
                      (eV)      (cm-1)    (nm)                 (au**2)    (au)      (au)      (au)
----------------------------------------------------------------------------------------------------
  1-3A  ->  2-3A    0.048949     394.8  25329.1   0.000000724   0.00060   0.01308  -0.00756   0.01937
  1-3A  ->  3-1A    1.922692   15507.6   644.8   0.008806559   0.18696  -0.38163   0.09109  -0.18171

Dispersion correction             ... done (  0.1 sec)

MULLIKEN ATOMIC CHARGES AND SPIN DENSITIES
------------------------------------------
   0 O :   -0.688166   -0.113431
   1 O :   -0.658601    0.092490
   2 O :   -0.610380   -0.000516
   3 O :   -0.629721   -0.001628
   4 N :   -0.289744    0.000820
   5 N :   -0.266445    0.006286
   6 N :    0.025882   -0.016413
   7 N :    0.029955    0.019322
   8 C :    1.336537    0.390330
   9 C :    0.245316    0.432374
  10 C :   -0.546423   -0.472526
  11 C :    0.490437    0.020546
  12 C :   -1.602526    0.078213
  13 C :   -1.564370   -0.025278
  14 C :    0.068763   -0.478780
  15 C :    0.363922   -0.028048
  16 C :    0.466958    0.032482
  17 C :    0.272058    0.003924
  18 H :    0.492053   -0.005753
  19 H :    0.575879    0.020321
  20 H :    0.456605   -0.002021
  21 H :    0.370101   -0.016657
  22 H :    0.339734    0.008321
  23 H :    0.419816    0.022587
  24 H :    0.323259   -0.002208
  25 H :    0.334973    0.030822
  26 H :    0.105915    0.003348
  27 H :    0.062628   -0.000874
  28 H :   -0.023841    0.002846
  29 H :    0.099428   -0.000899
Sum of atomic charges       :    0.0000000

LOEWDIN ATOMIC CHARGES AND SPIN DENSITIES
-----------------------------------------
   0 O :    0.070873   -0.101248
   1 O :    0.080266    0.078814
   2 O :    0.090555   -0.000255
   3 O :    0.090321   -0.001406
   4 N :    0.254997    0.002343
   5 N :    0.251334   -0.003280
   6 N :    0.345154   -0.018715
   7 N :    0.312983    0.014878
   8 C :   -0.009016   -0.341483
   9 C :   -0.030254    0.356045
  10 C :   -0.100326   -0.007772
  11 C :   -0.088159    0.014488
  12 C :    0.226349   -0.036646
  13 C :    0.182706    0.050783
  14 C :   -0.410151   -0.060874
  15 C :   -0.352796    0.049892
  16 C :   -0.398345    0.001109
  17 C :   -0.496092   -0.000596
  18 H :    0.072375   -0.003408
  19 H :    0.024950    0.001255
  20 H :   -0.001869   -0.014536
  21 H :   -0.041146    0.000026
  22 H :    0.006387   -0.005341
  23 H :    0.022785    0.014517
  24 H :   -0.026978   -0.001034
  25 H :    0.010844    0.014142
  26 H :   -0.030947   -0.000330
  27 H :   -0.007766   -0.000468
  28 H :   -0.065631   -0.001968
  29 H :    0.016598    0.001067

  Mayer bond orders larger than 0.100000
B(  0-O , 14-C ) :   1.2884 B(  1-O , 15-C ) :   1.4156 B(  2-O , 16-C ) :   1.6243
B(  3-O , 17-C ) :   1.5597 B(  4-N ,  8-C ) :   0.1586 B(  4-N , 10-C ) :   0.4754
B(  4-N , 11-C ) :  -0.1200 B(  4-N , 16-C ) :   1.0118 B(  4-N , 18-H ) :  -0.1088
B(  4-N , 26-H ) :   1.0890 B(  5-N ,  9-C ) :   0.2132 B(  5-N , 10-C ) :   0.1558
B(  5-N , 11-C ) :   0.2727 B(  5-N , 17-C ) :   1.1121 B(  5-N , 27-H ) :   1.0891
B(  6-N ,  8-C ) :  -0.1565 B(  6-N , 10-C ) :   0.1280 B(  6-N , 14-C ) :   0.9733
B(  6-N , 16-C ) :   0.8675 B(  6-N , 28-H ) :   1.1679 B(  7-N , 11-C ) :   0.1288
B(  7-N , 15-C ) :   1.0280 B(  7-N , 17-C ) :   1.0040 B(  7-N , 29-H ) :   1.0502
B(  8-C ,  9-C ) :   0.2132 B(  8-C , 10-C ) :   0.1852 B(  8-C , 12-C ) :   0.3298
B(  8-C , 14-C ) :   0.3575 B(  8-C , 18-H ) :  -0.1414 B(  8-C , 21-H ) :  -0.1099
B(  9-C , 10-C ) :   0.1934 B(  9-C , 11-C ) :   0.2739 B(  9-C , 13-C ) :   0.2465
B(  9-C , 15-C ) :   0.8827 B(  9-C , 19-H ) :  -0.1814 B(  9-C , 24-H ) :  -0.1427
B( 10-C , 11-C ) :   0.5091 B( 10-C , 14-C ) :   0.2078 B( 10-C , 16-C ) :  -0.1327
B( 10-C , 18-H ) :   0.7830 B( 11-C , 13-C ) :  -0.1541 B( 11-C , 17-C ) :  -0.2083
B( 11-C , 19-H ) :   0.7822 B( 12-C , 20-H ) :   0.7624 B( 12-C , 21-H ) :   1.0546
B( 12-C , 22-H ) :   0.9389 B( 13-C , 23-H ) :   0.8344 B( 13-C , 24-H ) :   1.0729
B( 13-C , 25-H ) :   0.9198 B( 14-C , 16-C ) :  -0.1132

Dispersion correction           -0.059581018
FINAL SINGLE POINT ENERGY      -908.765535559423

DIPOLE MOMENT
-------------

Method             : TDA/CIS
Type of density    : Electron Density
Level              : Relaxed density
State              :   2
Multiplicity       :   3
Irrep              :   0
Energy             :     0.0000000000000000 Eh
Relativity type    :
Basis              : AO
                                X                 Y                 Z
Electronic contribution:     -3.160824306      -9.905457522      -6.897110039
Nuclear contribution   :      2.331615455      11.625480825       9.543043988
                        -----------------------------------------
Total Dipole Moment    :     -0.829208851       1.720023303       2.645933949
                        -----------------------------------------
Magnitude (a.u.)       :      3.262979305
Magnitude (Debye)      :      8.293834271

Rotational constants in cm-1:             0.019196             0.015147             0.012604
Rotational constants in MHz :           575.494894           454.091668           377.851276

                             ****ORCA TERMINATED NORMALLY****
TOTAL RUN TIME: 0 days 0 hours 4 minutes 56 seconds 926 msec
