                         Program Version 6.0.0  -   RELEASE  -
|  1> ! Opt wB97M-D3BJ def2-TZVPPD
|  2> %pal nprocs 8 end %pal nprocs 64 end
|  3> %geom
|  4> Constraints
|  5>     {A 2 1 0 112.72727272727272 C }
|  6> end
|  7> MaxIter 500
|  8> end
|  9> *xyz 0 1
| 10> O   -0.0007 0.8141 0.0
| 11> C   0.7509 -0.4065 0.0
| 12> C   -0.7502 -0.4076 0.0
| 13> H   1.2625 -0.6786 0.9136
| 14> H   1.2625 -0.6787 -0.9136
| 15> H   -1.2614 -0.6806 -0.9136
| 16> H   -1.2614 -0.6805 0.9136
| 17> *
| 18>
| 19>                          ****END OF INPUT****
 Total Charge           Charge          ....    0
 Multiplicity           Mult            ....    1
 Number of Electrons    NEL             ....   24
Dispersion correction           -0.005794598
FINAL SINGLE POINT ENERGY      -153.666156745386
Dispersion correction             ... done (  0.1 sec)
Dispersion correction           -0.005679595
FINAL SINGLE POINT ENERGY      -153.731303789193
Dispersion correction             ... done (  0.1 sec)
Dispersion correction           -0.005611682
FINAL SINGLE POINT ENERGY      -153.750049874187
Dispersion correction             ... done (  0.1 sec)
FINAL SINGLE POINT ENERGY      -153.759714467563
FINAL SINGLE POINT ENERGY      -153.763351122071
FINAL SINGLE POINT ENERGY      -153.764318526270
FINAL SINGLE POINT ENERGY      -153.764698196699
FINAL SINGLE POINT ENERGY      -153.765200997691
FINAL SINGLE POINT ENERGY      -153.765642700219
FINAL SINGLE POINT ENERGY      -153.766186647314
FINAL SINGLE POINT ENERGY      -153.925066132381
FINAL SINGLE POINT ENERGY      -153.925069063960
FINAL SINGLE POINT ENERGY      -153.925069957465
FINAL SINGLE POINT ENERGY      -153.925071176063
FINAL SINGLE POINT ENERGY      -153.925072086840
FINAL SINGLE POINT ENERGY      -153.925072605105
FINAL SINGLE POINT ENERGY      -153.925072659967
Dispersion correction             ... done (  0.1 sec)
Dispersion correction           -0.005556981
FINAL SINGLE POINT ENERGY      -153.925072542825
Dispersion correction             ... done (  0.1 sec)
Dispersion correction           -0.005556851
FINAL SINGLE POINT ENERGY      -153.925072793724
Dispersion correction             ... done (  0.1 sec)
                    ***********************HURRAY********************

CARTESIAN COORDINATES (ANGSTROEM)
---------------------------------
  O      0.445108    1.276420    0.111051
  C      0.611300    0.154138   -0.306718
  C     -0.431860   -0.820162    0.201568
  H      0.033539   -1.624140    0.775483
  H      1.429193   -0.138315   -0.980645
  H     -0.961376   -1.299435   -0.624207
  H     -1.123703   -0.266907    0.823467

 Multiplicity           Mult            ....    1
 Number of Electrons    NEL             ....   24
 Basis Dimension        Dim             ....  182

ORBITAL ENERGIES
----------------

  NO   OCC          E(Eh)            E(eV)
   0   2.0000     -19.336426      -526.1709
   1   2.0000     -10.443935      -284.1939
   2   2.0000     -10.351160      -281.6694
   3   2.0000      -1.185835       -32.2682
   4   2.0000      -0.870052       -23.6753
   5   2.0000      -0.710483       -19.3332
   6   2.0000      -0.598668       -16.2906
   7   2.0000      -0.554529       -15.0895
   8   2.0000      -0.544658       -14.8209
   9   2.0000      -0.507282       -13.8038
  10   2.0000      -0.470620       -12.8062
  11   2.0000      -0.365917        -9.9571
  12   0.0000       0.039393         1.0719
  13   0.0000       0.049897         1.3578
  14   0.0000       0.058809         1.6003
  15   0.0000       0.085038         2.3140
  16   0.0000       0.087339         2.3766

MULLIKEN ATOMIC CHARGES
-----------------------
   0 O :   -0.472210
   1 C :    0.246658
   2 C :   -0.689199
   3 H :    0.215516
   4 H :    0.242718
   5 H :    0.220099
   6 H :    0.236419
Sum of atomic charges:    0.0000000

LOEWDIN ATOMIC CHARGES
----------------------
   0 O :    0.047005
   1 C :   -0.187365
   2 C :    0.163064
   3 H :   -0.015688
   4 H :    0.022681
   5 H :   -0.016317
   6 H :   -0.013380

  Mayer bond orders larger than 0.100000
B(  0-O ,  1-C ) :   1.7733 B(  1-C ,  2-C ) :   0.7848 B(  1-C ,  4-H ) :   0.9812
B(  2-C ,  3-H ) :   0.9933 B(  2-C ,  5-H ) :   0.9948 B(  2-C ,  6-H ) :   0.9611

Dispersion correction           -0.005556829
FINAL SINGLE POINT ENERGY      -153.925072800302

DIPOLE MOMENT
-------------

Method             : SCF
Type of density    : Electron Density
Multiplicity       :   1
Irrep              :   0
Energy             :  -153.9195159709579741 Eh
Relativity type    :
Basis              : AO
                                X                 Y                 Z
Electronic contribution:      1.328513060       2.850711500      -0.229794487
Nuclear contribution   :     -1.316984843      -3.879498636      -0.047322143
                        -----------------------------------------
Total Dipole Moment    :      0.011528217      -1.028787136      -0.277116630
                        -----------------------------------------
Magnitude (a.u.)       :      1.065518418
Magnitude (Debye)      :      2.708332583

Rotational constants in cm-1:             1.620699             0.373942             0.321689
Rotational constants in MHz :         48587.333318         11210.485561          9643.986605

                             ****ORCA TERMINATED NORMALLY****
TOTAL RUN TIME: 0 days 0 hours 14 minutes 1 seconds 831 msec
