                         Program Version 6.0.0  -   RELEASE  -
|  1> ! Engrad def2-TZVPPD wB97M-D3BJ
|  2> %pal nprocs 8 end%pal nprocs 64 end
|  3> %tddft Nroots 2 Iroot 2
|  4> sf true
|  5> end
|  6> *xyz 0 3
|  7> O   2.40195386 -0.39063364 -1.11127086
|  8> O   0.0690808 2.8972845 -2.01768338
|  9> O   0.18367385 -3.83932395 0.77256138
| 10> O   -2.05286975 -1.00020622 -1.55821285
| 11> N   0.42131657 -1.95882582 2.01762062
| 12> N   -1.37402338 -0.28986204 0.47439213
| 13> N   1.07998584 -1.99593899 -0.20601469
| 14> N   -0.72731322 0.82301794 -1.53473054
| 15> C   1.46967684 0.04203345 1.02010747
| 16> C   -0.50291434 2.85222726 -0.00372706
| 17> C   0.5779769 -0.53216657 2.06655831
| 18> C   -0.43971249 0.29514113 1.34723774
| 19> C   2.30859067 1.26779138 1.27033555
| 20> C   -1.73026454 3.61935337 0.18065476
| 21> C   1.71232669 -0.75406133 -0.1846563
| 22> C   -0.38118495 2.12104074 -1.20395419
| 23> C   0.52643968 -2.68443732 0.87520343
| 24> C   -1.44181027 -0.19879325 -0.90119356
| 25> H   0.79894409 -0.19491125 3.07186199
| 26> H   -0.52622356 1.34756922 1.59927304
| 27> H   2.50384351 1.796192 0.3491039
| 28> H   1.80450656 1.94349433 1.96188654
| 29> H   3.28371273 0.99382842 1.71465715
| 30> H   -2.42495634 2.94607536 0.71206233
| 31> H   -1.62426336 4.51762026 0.78574681
| 32> H   -2.20275097 3.87203463 -0.77325489
| 33> H   -0.03187238 -2.43641591 2.76880949
| 34> H   -1.77441847 -1.15941392 0.7810763
| 35> H   1.23780624 -2.54596732 -1.02520346
| 36> H   -0.62050504 0.65694154 -2.521883
| 37> *
| 38>
| 39>                          ****END OF INPUT****

CARTESIAN COORDINATES (ANGSTROEM)
---------------------------------
  O      2.401954   -0.390634   -1.111271
  O      0.069081    2.897285   -2.017683
  O      0.183674   -3.839324    0.772561
  O     -2.052870   -1.000206   -1.558213
  N      0.421317   -1.958826    2.017621
  N     -1.374023   -0.289862    0.474392
  N      1.079986   -1.995939   -0.206015
  N     -0.727313    0.823018   -1.534731
  C      1.469677    0.042033    1.020107
  C     -0.502914    2.852227   -0.003727
  C      0.577977   -0.532167    2.066558
  C     -0.439712    0.295141    1.347238
  C      2.308591    1.267791    1.270336
  C     -1.730265    3.619353    0.180655
  C      1.712327   -0.754061   -0.184656
  C     -0.381185    2.121041   -1.203954
  C      0.526440   -2.684437    0.875203
  C     -1.441810   -0.198793   -0.901194
  H      0.798944   -0.194911    3.071862
  H     -0.526224    1.347569    1.599273
  H      2.503844    1.796192    0.349104
  H      1.804507    1.943494    1.961887
  H      3.283713    0.993828    1.714657
  H     -2.424956    2.946075    0.712062
  H     -1.624263    4.517620    0.785747
  H     -2.202751    3.872035   -0.773255
  H     -0.031872   -2.436416    2.768809
  H     -1.774418   -1.159414    0.781076
  H      1.237806   -2.545967   -1.025203
  H     -0.620505    0.656942   -2.521883

 Total Charge           Charge          ....    0
 Multiplicity           Mult            ....    3
 Number of Electrons    NEL             ....  132
 Basis Dimension        Dim             ....  882

ORBITAL ENERGIES
----------------
                 SPIN UP ORBITALS
  NO   OCC          E(Eh)            E(eV)
   0   1.0000     -19.340508      -526.2820
   1   1.0000     -19.332309      -526.0589
   2   1.0000     -19.325778      -525.8812
   3   1.0000     -19.319905      -525.7214
   4   1.0000     -14.576835      -396.6558
   5   1.0000     -14.572498      -396.5378
   6   1.0000     -14.566061      -396.3627
   7   1.0000     -14.560064      -396.1995
   8   1.0000     -10.518906      -286.2340
   9   1.0000     -10.506301      -285.8910
  10   1.0000     -10.486277      -285.3461
  11   1.0000     -10.481436      -285.2144
  12   1.0000     -10.449793      -284.3533
  13   1.0000     -10.448361      -284.3144
  14   1.0000     -10.412116      -283.3281
  15   1.0000     -10.400414      -283.0096
  16   1.0000     -10.375467      -282.3308
  17   1.0000     -10.367178      -282.1053
  18   1.0000      -1.232649       -33.5421
  19   1.0000      -1.220531       -33.2123
  20   1.0000      -1.215845       -33.0848
  21   1.0000      -1.194063       -32.4921
  22   1.0000      -1.124723       -30.6053
  23   1.0000      -1.096925       -29.8488
  24   1.0000      -1.074077       -29.2271
  25   1.0000      -1.061401       -28.8822
  26   1.0000      -0.984136       -26.7797
  27   1.0000      -0.940140       -25.5825
  28   1.0000      -0.881547       -23.9881
  29   1.0000      -0.827061       -22.5055
  30   1.0000      -0.815458       -22.1897
  31   1.0000      -0.807083       -21.9618
  32   1.0000      -0.792097       -21.5540
  33   1.0000      -0.781901       -21.2766
  34   1.0000      -0.725707       -19.7475
  35   1.0000      -0.698548       -19.0085
  36   1.0000      -0.690849       -18.7989
  37   1.0000      -0.657851       -17.9010
  38   1.0000      -0.642663       -17.4877
  39   1.0000      -0.637564       -17.3490
  40   1.0000      -0.615643       -16.7525
  41   1.0000      -0.609361       -16.5816
  42   1.0000      -0.601569       -16.3695
  43   1.0000      -0.593133       -16.1400
  44   1.0000      -0.578386       -15.7387
  45   1.0000      -0.571609       -15.5543
  46   1.0000      -0.567716       -15.4483
  47   1.0000      -0.559178       -15.2160
  48   1.0000      -0.556476       -15.1425
  49   1.0000      -0.554094       -15.0777
  50   1.0000      -0.549107       -14.9420
  51   1.0000      -0.544443       -14.8151
  52   1.0000      -0.527183       -14.3454
  53   1.0000      -0.513323       -13.9682
  54   1.0000      -0.512232       -13.9385
  55   1.0000      -0.497845       -13.5470
  56   1.0000      -0.447258       -12.1705
  57   1.0000      -0.431826       -11.7506
  58   1.0000      -0.416546       -11.3348
  59   1.0000      -0.413428       -11.2499
  60   1.0000      -0.406282       -11.0555
  61   1.0000      -0.397199       -10.8083
  62   1.0000      -0.395189       -10.7536
  63   1.0000      -0.386960       -10.5297
  64   1.0000      -0.383270       -10.4293
  65   1.0000      -0.342780        -9.3275
  66   1.0000      -0.300589        -8.1795
  67   0.0000      -0.000511        -0.0139
  68   0.0000       0.013024         0.3544
  69   0.0000       0.030925         0.8415
  70   0.0000       0.035390         0.9630
  71   0.0000       0.041396         1.1264

                 SPIN DOWN ORBITALS
  NO   OCC          E(Eh)            E(eV)
   0   1.0000     -19.333905      -526.1023
   1   1.0000     -19.332292      -526.0584
   2   1.0000     -19.325752      -525.8804
   3   1.0000     -19.319897      -525.7211
   4   1.0000     -14.576864      -396.6566
   5   1.0000     -14.572508      -396.5381
   6   1.0000     -14.565986      -396.3606
   7   1.0000     -14.560052      -396.1992
   8   1.0000     -10.518917      -286.2343
   9   1.0000     -10.506303      -285.8910
  10   1.0000     -10.486813      -285.3607
  11   1.0000     -10.481445      -285.2146
  12   1.0000     -10.449648      -284.3494
  13   1.0000     -10.447660      -284.2953
  14   1.0000     -10.412019      -283.3254
  15   1.0000     -10.375746      -282.3384
  16   1.0000     -10.373550      -282.2786
  17   1.0000     -10.367108      -282.1034
  18   1.0000      -1.230510       -33.4839
  19   1.0000      -1.220076       -33.2000
  20   1.0000      -1.207051       -32.8455
  21   1.0000      -1.194021       -32.4910
  22   1.0000      -1.124485       -30.5988
  23   1.0000      -1.096344       -29.8330
  24   1.0000      -1.072621       -29.1875
  25   1.0000      -1.061276       -28.8788
  26   1.0000      -0.983677       -26.7672
  27   1.0000      -0.910952       -24.7883
  28   1.0000      -0.881109       -23.9762
  29   1.0000      -0.825181       -22.4543
  30   1.0000      -0.811880       -22.0924
  31   1.0000      -0.801892       -21.8206
  32   1.0000      -0.786618       -21.4050
  33   1.0000      -0.779004       -21.1978
  34   1.0000      -0.717620       -19.5274
  35   1.0000      -0.696138       -18.9429
  36   1.0000      -0.689256       -18.7556
  37   1.0000      -0.655305       -17.8318
  38   1.0000      -0.640190       -17.4205
  39   1.0000      -0.633165       -17.2293
  40   1.0000      -0.611519       -16.6403
  41   1.0000      -0.598872       -16.2961
  42   1.0000      -0.590571       -16.0702
  43   1.0000      -0.586826       -15.9684
  44   1.0000      -0.574206       -15.6249
  45   1.0000      -0.565911       -15.3992
  46   1.0000      -0.558359       -15.1937
  47   1.0000      -0.556050       -15.1309
  48   1.0000      -0.552382       -15.0311
  49   1.0000      -0.547681       -14.9032
  50   1.0000      -0.541531       -14.7358
  51   1.0000      -0.534123       -14.5342
  52   1.0000      -0.526890       -14.3374
  53   1.0000      -0.512346       -13.9416
  54   1.0000      -0.501643       -13.6504
  55   1.0000      -0.497210       -13.5298
  56   1.0000      -0.433824       -11.8049
  57   1.0000      -0.429012       -11.6740
  58   1.0000      -0.415954       -11.3187
  59   1.0000      -0.402895       -10.9633
  60   1.0000      -0.394593       -10.7374
  61   1.0000      -0.393955       -10.7200
  62   1.0000      -0.388373       -10.5682
  63   1.0000      -0.383490       -10.4353
  64   1.0000      -0.341304        -9.2874
  65   0.0000      -0.059001        -1.6055
  66   0.0000      -0.000952        -0.0259
  67   0.0000       0.013485         0.3669
  68   0.0000       0.030373         0.8265
  69   0.0000       0.031680         0.8621

----------------------------------------------------------------------------------------------------
          SPIN FLIP ABSORPTION SPECTRUM VIA TRANSITION ELECTRIC DIPOLE MOMENTS
----------------------------------------------------------------------------------------------------
     Transition      Energy     Energy  Wavelength fosc(D2)      D2        DX        DY        DZ
                      (eV)      (cm-1)    (nm)                 (au**2)    (au)      (au)      (au)
----------------------------------------------------------------------------------------------------
  1-3A  ->  2-3A    2.053813   16565.1   603.7   0.000524750   0.01043  -0.05175  -0.04343   0.07658

Dispersion correction             ... done (  0.1 sec)

MULLIKEN ATOMIC CHARGES AND SPIN DENSITIES
------------------------------------------
   0 O :   -0.678120   -0.001072
   1 O :   -0.530608    0.000746
   2 O :   -0.649782   -0.000015
   3 O :   -0.630371    0.000107
   4 N :   -0.241499   -0.000111
   5 N :   -0.130724    0.003970
   6 N :    0.042802    0.000060
   7 N :    0.009325   -0.012174
   8 C :    0.801960    0.006410
   9 C :    0.117549    0.251526
  10 C :    0.530860   -0.011570
  11 C :   -0.754667   -0.042424
  12 C :   -1.565459    0.026200
  13 C :   -0.862553    0.027309
  14 C :    0.339561   -0.000884
  15 C :    0.556405   -0.241151
  16 C :    0.414160   -0.000023
  17 C :    0.497335    0.010481
  18 H :    0.333086    0.002291
  19 H :    0.450283   -0.007866
  20 H :    0.281135   -0.000462
  21 H :    0.314239   -0.010491
  22 H :    0.392006   -0.003135
  23 H :    0.241996    0.014739
  24 H :    0.253371   -0.024738
  25 H :    0.309194    0.012584
  26 H :    0.042909   -0.000090
  27 H :    0.082727   -0.001561
  28 H :    0.020771    0.000038
  29 H :    0.012108    0.001304
Sum of atomic charges       :   -0.0000000

LOEWDIN ATOMIC CHARGES AND SPIN DENSITIES
-----------------------------------------
   0 O :    0.097544   -0.000273
   1 O :    0.123282   -0.009506
   2 O :    0.091081   -0.000020
   3 O :    0.109849   -0.000271
   4 N :    0.288854   -0.000282
   5 N :    0.269629   -0.000624
   6 N :    0.339652   -0.000117
   7 N :    0.342969   -0.000870
   8 C :   -0.091767   -0.001123
   9 C :    0.132579    0.040097
  10 C :   -0.143238   -0.000655
  11 C :    0.071686   -0.002770
  12 C :    0.183251   -0.002257
  13 C :    0.104402   -0.005335
  14 C :   -0.406056   -0.000206
  15 C :   -0.498286   -0.007946
  16 C :   -0.491309   -0.000049
  17 C :   -0.464619   -0.000282
  18 H :    0.056289   -0.000010
  19 H :   -0.020972   -0.002088
  20 H :   -0.011494   -0.000580
  21 H :   -0.007096   -0.000980
  22 H :    0.015489   -0.000342
  23 H :   -0.002957   -0.001329
  24 H :   -0.004695   -0.001665
  25 H :    0.011109   -0.000299
  26 H :   -0.031846   -0.000023
  27 H :   -0.033172   -0.000019
  28 H :   -0.018583   -0.000015
  29 H :   -0.011578   -0.000161

  Mayer bond orders larger than 0.100000
B(  0-O , 14-C ) :   1.4967 B(  1-O , 15-C ) :   1.3750 B(  2-O , 16-C ) :   1.5811
B(  3-O , 17-C ) :   1.5177 B(  4-N ,  8-C ) :   0.2056 B(  4-N , 10-C ) :   0.3558
B(  4-N , 16-C ) :   1.1050 B(  4-N , 26-H ) :   1.1062 B(  5-N , 11-C ) :   0.6938
B(  5-N , 17-C ) :   0.9673 B(  5-N , 19-H ) :  -0.1251 B(  5-N , 27-H ) :   1.0427
B(  6-N ,  8-C ) :  -0.1053 B(  6-N , 10-C ) :   0.1835 B(  6-N , 14-C ) :   1.0570
B(  6-N , 16-C ) :   0.9489 B(  6-N , 28-H ) :   1.1163 B(  7-N , 15-C ) :   0.9357
B(  7-N , 17-C ) :   0.9542 B(  7-N , 29-H ) :   1.1567 B(  8-C , 10-C ) :   0.4862
B(  8-C , 11-C ) :   0.6831 B(  8-C , 12-C ) :   0.3133 B(  8-C , 14-C ) :   0.6964
B(  8-C , 18-H ) :  -0.1276 B(  8-C , 20-H ) :  -0.1347 B(  9-C , 13-C ) :   0.5178
B(  9-C , 15-C ) :   0.6500 B( 10-C , 11-C ) :   0.6604 B( 10-C , 12-C ) :  -0.1428
B( 10-C , 14-C ) :  -0.1105 B( 10-C , 16-C ) :  -0.1112 B( 10-C , 18-H ) :   1.0804
B( 11-C , 14-C ) :   0.1253 B( 11-C , 17-C ) :  -0.1108 B( 11-C , 19-H ) :   0.9890
B( 12-C , 20-H ) :   1.0703 B( 12-C , 21-H ) :   0.9813 B( 12-C , 22-H ) :   0.7908
B( 13-C , 15-C ) :   0.1112 B( 13-C , 23-H ) :   0.9456 B( 13-C , 24-H ) :   1.0051
B( 13-C , 25-H ) :   0.9286

Dispersion correction           -0.056074021
FINAL SINGLE POINT ENERGY      -908.632793491556

DIPOLE MOMENT
-------------

Method             : TDA/CIS
Type of density    : Electron Density
Level              : Relaxed density
State              :   2
Multiplicity       :   3
Irrep              :   0
Energy             :     0.0000000000000000 Eh
Relativity type    :
Basis              : AO
                                X                 Y                 Z
Electronic contribution:      0.158741920      -9.867412123      -5.928501350
Nuclear contribution   :     -0.804482867      11.003726855       8.291397954
                        -----------------------------------------
Total Dipole Moment    :     -0.645740947       1.136314733       2.362896604
                        -----------------------------------------
Magnitude (a.u.)       :      2.700272746
Magnitude (Debye)      :      6.863547864

Rotational constants in cm-1:             0.022701             0.011862             0.010830
Rotational constants in MHz :           680.561988           355.609675           324.673709

                             ****ORCA TERMINATED NORMALLY****
TOTAL RUN TIME: 0 days 0 hours 4 minutes 59 seconds 114 msec
