                         Program Version 6.0.0  -   RELEASE  -
|  1> ! EnGrad wB97M-D3BJ def2-TZVPPD
|  2> %pal nprocs 8 end%pal nprocs 16 end
|  3> %tddft
|  4>  sf true
|  5>  nroots 2 Iroot 1 end
|  6> *xyz 0 3
|  7> O   -0.00900219168809 0.77825507415374 -4.083754986e-05
|  8> C   0.73574427597733 -0.44355534947904 4.85237992e-05
|  9> C   -0.7313703327218 -0.4319282771346 -4.32054683e-05
| 10> H   1.26642238046947 -0.6546736866196 0.91895320441
| 11> H   1.26631958344682 -0.65484630907463 -0.91888865507156
| 12> H   -1.26300459729412 -0.65580359734448 -0.91693809934657
| 13> H   -1.26290911818961 -0.65584785450138 0.91690906922708
| 14> *
| 15>
| 16>                          ****END OF INPUT****

CARTESIAN COORDINATES (ANGSTROEM)
---------------------------------
  O     -0.009002    0.778255   -0.000041
  C      0.735744   -0.443555    0.000049
  C     -0.731370   -0.431928   -0.000043
  H      1.266422   -0.654674    0.918953
  H      1.266320   -0.654846   -0.918889
  H     -1.263005   -0.655804   -0.916938
  H     -1.262909   -0.655848    0.916909

 Total Charge           Charge          ....    0
 Multiplicity           Mult            ....    3
 Number of Electrons    NEL             ....   24
 Basis Dimension        Dim             ....  182

ORBITAL ENERGIES
----------------
                 SPIN UP ORBITALS
  NO   OCC          E(Eh)            E(eV)
   0   1.0000     -19.520923      -531.1913
   1   1.0000     -10.447890      -284.3015
   2   1.0000     -10.433127      -283.8998
   3   1.0000      -1.348838       -36.7037
   4   1.0000      -0.883925       -24.0528
   5   1.0000      -0.821817       -22.3628
   6   1.0000      -0.725480       -19.7413
   7   1.0000      -0.686713       -18.6864
   8   1.0000      -0.612820       -16.6757
   9   1.0000      -0.538610       -14.6563
  10   1.0000      -0.531623       -14.4662
  11   1.0000      -0.490600       -13.3499
  12   1.0000      -0.115803        -3.1512
  13   0.0000       0.028558         0.7771
  14   0.0000       0.051927         1.4130
  15   0.0000       0.064470         1.7543
  16   0.0000       0.083669         2.2767
  17   0.0000       0.094326         2.5667

                 SPIN DOWN ORBITALS
  NO   OCC          E(Eh)            E(eV)
   0   1.0000     -19.490105      -530.3527
   1   1.0000     -10.446972      -284.2766
   2   1.0000     -10.430210      -283.8205
   3   1.0000      -1.286033       -34.9947
   4   1.0000      -0.852967       -23.2104
   5   1.0000      -0.806685       -21.9510
   6   1.0000      -0.663803       -18.0630
   7   1.0000      -0.657806       -17.8998
   8   1.0000      -0.582910       -15.8618
   9   1.0000      -0.520377       -14.1602
  10   1.0000      -0.474018       -12.8987
  11   0.0000      -0.155195        -4.2231
  12   0.0000       0.035088         0.9548
  13   0.0000       0.051073         1.3898
  14   0.0000       0.064382         1.7519
  15   0.0000       0.075637         2.0582

----------------------------------------------------------------------------------------------------
          SPIN FLIP ABSORPTION SPECTRUM VIA TRANSITION ELECTRIC DIPOLE MOMENTS
----------------------------------------------------------------------------------------------------
     Transition      Energy     Energy  Wavelength fosc(D2)      D2        DX        DY        DZ
                      (eV)      (cm-1)    (nm)                 (au**2)    (au)      (au)      (au)
----------------------------------------------------------------------------------------------------
  1-3A  ->  2-3A    7.027498   56680.6   176.4   0.006402521   0.03719  -0.00001   0.00005   0.19284

Dispersion correction             ... done (  0.0 sec)

MULLIKEN ATOMIC CHARGES AND SPIN DENSITIES
------------------------------------------
   0 O :   -0.369664    0.149731
   1 C :   -0.160107   -0.307092
   2 C :    0.036822   -0.209411
   3 H :    0.118703    0.138482
   4 H :    0.118581    0.138497
   5 H :    0.127934    0.044849
   6 H :    0.127731    0.044944
Sum of atomic charges       :   -0.0000000

LOEWDIN ATOMIC CHARGES AND SPIN DENSITIES
-----------------------------------------
   0 O :   -0.172394    0.164594
   1 C :    0.040984   -0.035156
   2 C :    0.012478   -0.049035
   3 H :    0.028040   -0.016910
   4 H :    0.028053   -0.016918
   5 H :    0.031418   -0.023282
   6 H :    0.031419   -0.023292

  Mayer bond orders larger than 0.100000
B(  0-O ,  1-C ) :   1.6349 B(  0-O ,  2-C ) :   1.4273 B(  0-O ,  3-H ) :  -0.2876
B(  0-O ,  4-H ) :  -0.2877 B(  0-O ,  5-H ) :  -0.1717 B(  0-O ,  6-H ) :  -0.1718
B(  1-C ,  2-C ) :   0.6584 B(  1-C ,  3-H ) :   1.2255 B(  1-C ,  4-H ) :   1.2254
B(  1-C ,  5-H ) :   0.1079 B(  1-C ,  6-H ) :   0.1079 B(  2-C ,  3-H ) :   0.1119
B(  2-C ,  4-H ) :   0.1119 B(  2-C ,  5-H ) :   1.0906 B(  2-C ,  6-H ) :   1.0907

Dispersion correction           -0.005222519
FINAL SINGLE POINT ENERGY      -153.879430607573

DIPOLE MOMENT
-------------

Method             : TDA/CIS
Type of density    : Electron Density
Level              : Relaxed density
State              :   1
Multiplicity       :   3
Irrep              :   0
Energy             :     0.0000000000000000 Eh
Relativity type    :
Basis              : AO
                                X                 Y                 Z
Electronic contribution:     -0.050843016      -0.555548789       0.000009567
Nuclear contribution   :      0.013508779      -2.387209710       0.000080071
                        -----------------------------------------
Total Dipole Moment    :     -0.037334237      -2.942758499       0.000089638
                        -----------------------------------------
Magnitude (a.u.)       :      2.942995317
Magnitude (Debye)      :      7.480499611

Rotational constants in cm-1:             0.869204             0.739670             0.476332
Rotational constants in MHz :         26058.076817         22174.749919         14280.076308

                             ****ORCA TERMINATED NORMALLY****
TOTAL RUN TIME: 0 days 0 hours 0 minutes 25 seconds 618 msec
