                         Program Version 6.0.0  -   RELEASE  -
|  1> ! Opt wB97M-D3BJ def2-TZVPPD
|  2> %pal nprocs 8 end %pal nprocs 64 end
|  3> %geom
|  4> Constraints
|  5>     {A 2 1 0 61.81818181818182 C }
|  6> end
|  7> MaxIter 500
|  8> end
|  9> *xyz 0 1
| 10> O   -0.0007 0.8141 0.0
| 11> C   0.7509 -0.4065 0.0
| 12> C   -0.7502 -0.4076 0.0
| 13> H   1.2625 -0.6786 0.9136
| 14> H   1.2625 -0.6787 -0.9136
| 15> H   -1.2614 -0.6806 -0.9136
| 16> H   -1.2614 -0.6805 0.9136
| 17> *
| 18>
| 19>                          ****END OF INPUT****
 Total Charge           Charge          ....    0
 Multiplicity           Mult            ....    1
 Number of Electrons    NEL             ....   24
Dispersion correction           -0.005222088
FINAL SINGLE POINT ENERGY      -153.886310251108
Dispersion correction             ... done (  0.1 sec)
Dispersion correction           -0.005227307
FINAL SINGLE POINT ENERGY      -153.888355225000
Dispersion correction             ... done (  0.1 sec)
Dispersion correction           -0.005231440
FINAL SINGLE POINT ENERGY      -153.888616107268
Dispersion correction             ... done (  0.1 sec)
Dispersion correction           -0.005231148
FINAL SINGLE POINT ENERGY      -153.888627571505
Dispersion correction             ... done (  0.1 sec)
Dispersion correction           -0.005231017
FINAL SINGLE POINT ENERGY      -153.888633751090
Dispersion correction             ... done (  0.1 sec)
                    ***********************HURRAY********************

CARTESIAN COORDINATES (ANGSTROEM)
---------------------------------
  O      0.023058    0.796551   -0.000049
  C      0.718167   -0.424475    0.000143
  C     -0.728608   -0.461610   -0.000154
  H      1.255670   -0.654592    0.913386
  H      1.255381   -0.654928   -0.913228
  H     -1.260904   -0.659610   -0.919695
  H     -1.260565   -0.659736    0.919598

 Multiplicity           Mult            ....    1
 Number of Electrons    NEL             ....   24
 Basis Dimension        Dim             ....  182

ORBITAL ENERGIES
----------------

  NO   OCC          E(Eh)            E(eV)
   0   2.0000     -19.351467      -526.5802
   1   2.0000     -10.400107      -283.0013
   2   2.0000     -10.398388      -282.9545
   3   2.0000      -1.204197       -32.7679
   4   2.0000      -0.808808       -22.0088
   5   2.0000      -0.754751       -20.5378
   6   2.0000      -0.631302       -17.1786
   7   2.0000      -0.595003       -16.1909
   8   2.0000      -0.501090       -13.6353
   9   2.0000      -0.489963       -13.3326
  10   2.0000      -0.426541       -11.6068
  11   2.0000      -0.385071       -10.4783
  12   0.0000       0.042481         1.1560
  13   0.0000       0.058711         1.5976
  14   0.0000       0.074748         2.0340
  15   0.0000       0.077870         2.1189
  16   0.0000       0.114275         3.1096

MULLIKEN ATOMIC CHARGES
-----------------------
   0 O :   -0.384560
   1 C :   -0.154623
   2 C :   -0.186351
   3 H :    0.182437
   4 H :    0.182360
   5 H :    0.180419
   6 H :    0.180319
Sum of atomic charges:    0.0000000

LOEWDIN ATOMIC CHARGES
----------------------
   0 O :   -0.031504
   1 C :   -0.048916
   2 C :    0.033390
   3 H :    0.014590
   4 H :    0.014585
   5 H :    0.008930
   6 H :    0.008925

  Mayer bond orders larger than 0.100000
B(  0-O ,  1-C ) :   0.8088 B(  0-O ,  2-C ) :   0.8417 B(  1-C ,  2-C ) :   0.8209
B(  1-C ,  3-H ) :   1.0227 B(  1-C ,  4-H ) :   1.0228 B(  2-C ,  5-H ) :   1.0101
B(  2-C ,  6-H ) :   1.0103

Dispersion correction           -0.005231111
FINAL SINGLE POINT ENERGY      -153.888634108880

DIPOLE MOMENT
-------------

Method             : SCF
Type of density    : Electron Density
Multiplicity       :   1
Irrep              :   0
Energy             :  -153.8834029983399319 Eh
Relativity type    :
Basis              : AO
                                X                 Y                 Z
Electronic contribution:      0.003217582       1.626841013      -0.000100455
Nuclear contribution   :     -0.029358697      -2.407640114       0.000130665
                        -----------------------------------------
Total Dipole Moment    :     -0.026141115      -0.780799101       0.000030210
                        -----------------------------------------
Magnitude (a.u.)       :      0.781236580
Magnitude (Debye)      :      1.985745577

Rotational constants in cm-1:             0.851121             0.747998             0.473927
Rotational constants in MHz :         25515.970168         22424.420184         14207.967978

                             ****ORCA TERMINATED NORMALLY****
TOTAL RUN TIME: 0 days 0 hours 1 minutes 20 seconds 513 msec
