                         Program Version 6.0.0  -   RELEASE  -
|  1> ! EnGrad wB97M-D3BJ def2-TZVPPD
|  2> %pal nprocs 8 end%pal nprocs 16 end
|  3> %tddft
|  4>  sf true
|  5>  nroots 2 Iroot 2 end
|  6> *xyz 0 3
|  7> O   0.68363815850216 1.33874315644878 0.07315046682259
|  8> C   0.56106469900757 0.19059575333991 -0.25600293455932
|  9> C   -0.446676006814 -0.8077501705171 0.22451350821349
| 10> H   0.07922771551842 -1.68081063861775 0.61173761296485
| 11> H   1.25871549134318 -0.22583401605307 -1.0120614790727
| 12> H   -1.03685617761264 -1.14372042801718 -0.62885102514054
| 13> H   -1.0969138799447 -0.38962365658359 0.98751385077163
| 14> *
| 15>
| 16>                          ****END OF INPUT****

CARTESIAN COORDINATES (ANGSTROEM)
---------------------------------
  O      0.683638    1.338743    0.073150
  C      0.561065    0.190596   -0.256003
  C     -0.446676   -0.807750    0.224514
  H      0.079228   -1.680811    0.611738
  H      1.258715   -0.225834   -1.012061
  H     -1.036856   -1.143720   -0.628851
  H     -1.096914   -0.389624    0.987514

 Total Charge           Charge          ....    0
 Multiplicity           Mult            ....    3
 Number of Electrons    NEL             ....   24
 Basis Dimension        Dim             ....  182

ORBITAL ENERGIES
----------------
                 SPIN UP ORBITALS
  NO   OCC          E(Eh)            E(eV)
   0   1.0000     -19.408841      -528.1414
   1   1.0000     -10.379480      -282.4400
   2   1.0000     -10.367646      -282.1180
   3   1.0000      -1.245478       -33.8912
   4   1.0000      -0.884012       -24.0552
   5   1.0000      -0.717407       -19.5216
   6   1.0000      -0.633741       -17.2450
   7   1.0000      -0.587927       -15.9983
   8   1.0000      -0.581686       -15.8285
   9   1.0000      -0.515600       -14.0302
  10   1.0000      -0.514454       -13.9990
  11   1.0000      -0.431764       -11.7489
  12   1.0000      -0.219548        -5.9742
  13   0.0000       0.040268         1.0958
  14   0.0000       0.060154         1.6369
  15   0.0000       0.078250         2.1293
  16   0.0000       0.087809         2.3894
  17   0.0000       0.107464         2.9242

                 SPIN DOWN ORBITALS
  NO   OCC          E(Eh)            E(eV)
   0   1.0000     -19.381338      -527.3930
   1   1.0000     -10.369225      -282.1610
   2   1.0000     -10.365536      -282.0606
   3   1.0000      -1.188147       -32.3311
   4   1.0000      -0.864874       -23.5344
   5   1.0000      -0.672378       -18.2963
   6   1.0000      -0.585892       -15.9429
   7   1.0000      -0.541066       -14.7231
   8   1.0000      -0.535601       -14.5744
   9   1.0000      -0.498984       -13.5781
  10   1.0000      -0.471448       -12.8288
  11   0.0000      -0.083297        -2.2666
  12   0.0000       0.040813         1.1106
  13   0.0000       0.059817         1.6277
  14   0.0000       0.078043         2.1237
  15   0.0000       0.084382         2.2961

----------------------------------------------------------------------------------------------------
          SPIN FLIP ABSORPTION SPECTRUM VIA TRANSITION ELECTRIC DIPOLE MOMENTS
----------------------------------------------------------------------------------------------------
     Transition      Energy     Energy  Wavelength fosc(D2)      D2        DX        DY        DZ
                      (eV)      (cm-1)    (nm)                 (au**2)    (au)      (au)      (au)
----------------------------------------------------------------------------------------------------
  1-3A  ->  2-3A    4.606082   37150.6   269.2   0.000141209   0.00125   0.02190  -0.00973   0.02602

Dispersion correction             ... done (  0.0 sec)

MULLIKEN ATOMIC CHARGES AND SPIN DENSITIES
------------------------------------------
   0 O :   -0.262287    0.583419
   1 C :    0.222055   -0.614107
   2 C :   -0.709803    0.127863
   3 H :    0.203607   -0.046169
   4 H :    0.097050    0.003203
   5 H :    0.200602   -0.050426
   6 H :    0.248776   -0.003783
Sum of atomic charges       :    0.0000000

LOEWDIN ATOMIC CHARGES AND SPIN DENSITIES
-----------------------------------------
   0 O :    0.159615    0.393742
   1 C :   -0.258253   -0.344662
   2 C :    0.134829   -0.014719
   3 H :   -0.018717   -0.019371
   4 H :    0.010725    0.001410
   5 H :   -0.019661   -0.022069
   6 H :   -0.008538    0.005668

  Mayer bond orders larger than 0.100000
B(  0-O ,  1-C ) :   1.2815 B(  1-C ,  2-C ) :   0.6330 B(  1-C ,  4-H ) :   1.0064
B(  2-C ,  3-H ) :   1.0102 B(  2-C ,  5-H ) :   1.0115 B(  2-C ,  6-H ) :   0.9312

Dispersion correction           -0.005527874
FINAL SINGLE POINT ENERGY      -153.755144587498

DIPOLE MOMENT
-------------

Method             : TDA/CIS
Type of density    : Electron Density
Level              : Relaxed density
State              :   2
Multiplicity       :   3
Irrep              :   0
Energy             :     0.0000000000000000 Eh
Relativity type    :
Basis              : AO
                                X                 Y                 Z
Electronic contribution:      1.506244097       3.521081494       0.052643333
Nuclear contribution   :     -1.720808557      -4.108781037      -0.102155269
                        -----------------------------------------
Total Dipole Moment    :     -0.214564460      -0.587699543      -0.049511936
                        -----------------------------------------
Magnitude (a.u.)       :      0.627598672
Magnitude (Debye)      :      1.595229048

Rotational constants in cm-1:             2.017978             0.331868             0.300749
Rotational constants in MHz :         60497.473101          9949.156051          9016.220165

                             ****ORCA TERMINATED NORMALLY****
TOTAL RUN TIME: 0 days 0 hours 0 minutes 16 seconds 245 msec
