                         Program Version 6.0.0  -   RELEASE  -
|  1> ! Engrad def2-TZVPPD wB97M-D3BJ
|  2> %pal nprocs 8 end%pal nprocs 64 end
|  3> %tddft
|  4>  Iroot 1 Nroots 3
|  5> sf true
|  6> end
|  7> *xyz 0 3
|  8> O   1.05948475 -0.82579223 -0.07786902
|  9> C   0.61147366 0.27525369 0.48175181
| 10> C   -0.53566062 0.8203133 -0.21685612
| 11> H   1.41194214 1.07016598 0.64813748
| 12> H   0.27144172 -0.09582144 1.51985552
| 13> H   -0.76398708 1.87834994 -0.20832268
| 14> H   -1.19773451 0.10598205 -0.73952483
| 15> *
| 16>
| 17>                          ****END OF INPUT****

CARTESIAN COORDINATES (ANGSTROEM)
---------------------------------
  O      1.059485   -0.825792   -0.077869
  C      0.611474    0.275254    0.481752
  C     -0.535661    0.820313   -0.216856
  H      1.411942    1.070166    0.648137
  H      0.271442   -0.095821    1.519856
  H     -0.763987    1.878350   -0.208323
  H     -1.197735    0.105982   -0.739525

 Total Charge           Charge          ....    0
 Multiplicity           Mult            ....    3
 Number of Electrons    NEL             ....   24
 Basis Dimension        Dim             ....  182

ORBITAL ENERGIES
----------------
                 SPIN UP ORBITALS
  NO   OCC          E(Eh)            E(eV)
   0   1.0000     -19.384763      -527.4862
   1   1.0000     -10.417245      -283.4676
   2   1.0000     -10.367110      -282.1034
   3   1.0000      -1.191450       -32.4210
   4   1.0000      -0.878353       -23.9012
   5   1.0000      -0.725516       -19.7423
   6   1.0000      -0.620027       -16.8718
   7   1.0000      -0.603000       -16.4085
   8   1.0000      -0.561572       -15.2811
   9   1.0000      -0.510799       -13.8995
  10   1.0000      -0.438208       -11.9243
  11   1.0000      -0.409854       -11.1527
  12   1.0000      -0.318617        -8.6700
  13   0.0000       0.041366         1.1256
  14   0.0000       0.060971         1.6591
  15   0.0000       0.077118         2.0985
  16   0.0000       0.085022         2.3136
  17   0.0000       0.110537         3.0079

                 SPIN DOWN ORBITALS
  NO   OCC          E(Eh)            E(eV)
   0   1.0000     -19.362027      -526.8675
   1   1.0000     -10.418746      -283.5085
   2   1.0000     -10.353463      -281.7321
   3   1.0000      -1.142329       -31.0844
   4   1.0000      -0.843946       -22.9649
   5   1.0000      -0.696682       -18.9577
   6   1.0000      -0.593229       -16.1426
   7   1.0000      -0.551709       -15.0128
   8   1.0000      -0.537312       -14.6210
   9   1.0000      -0.494929       -13.4677
  10   1.0000      -0.381098       -10.3702
  11   0.0000      -0.054465        -1.4821
  12   0.0000       0.001240         0.0337
  13   0.0000       0.041181         1.1206
  14   0.0000       0.060828         1.6552
  15   0.0000       0.076811         2.0901

----------------------------------------------------------------------------------------------------
          SPIN FLIP ABSORPTION SPECTRUM VIA TRANSITION ELECTRIC DIPOLE MOMENTS
----------------------------------------------------------------------------------------------------
     Transition      Energy     Energy  Wavelength fosc(D2)      D2        DX        DY        DZ
                      (eV)      (cm-1)    (nm)                 (au**2)    (au)      (au)      (au)
----------------------------------------------------------------------------------------------------
  1-3A  ->  2-3A    0.284567    2295.2  4356.9   0.000709755   0.10180   0.15516  -0.26233   0.09442
  1-3A  ->  3-3A    0.819170    6607.1  1513.5   0.020321585   1.01257   0.72566  -0.68740  -0.11603

Dispersion correction             ... done (  0.1 sec)

MULLIKEN ATOMIC CHARGES AND SPIN DENSITIES
------------------------------------------
   0 O :   -0.545755   -0.237980
   1 C :    0.000736   -0.054205
   2 C :   -0.371376    0.253010
   3 H :    0.236027   -0.066662
   4 H :    0.222486    0.062116
   5 H :    0.220323    0.012444
   6 H :    0.237560    0.031277
Sum of atomic charges       :   -0.0000000

LOEWDIN ATOMIC CHARGES AND SPIN DENSITIES
-----------------------------------------
   0 O :   -0.089135   -0.258042
   1 C :   -0.367966   -0.004049
   2 C :    0.336168    0.234212
   3 H :    0.079861   -0.046033
   4 H :    0.087023    0.023298
   5 H :   -0.039563    0.024230
   6 H :   -0.006388    0.026384

  Mayer bond orders larger than 0.100000
B(  0-O ,  1-C ) :   1.0260 B(  0-O ,  2-C ) :   0.3217 B(  1-C ,  2-C ) :   1.0005
B(  1-C ,  3-H ) :   0.8895 B(  1-C ,  4-H ) :   0.8997 B(  2-C ,  5-H ) :   0.9784
B(  2-C ,  6-H ) :   0.9488

Dispersion correction           -0.005561281
FINAL SINGLE POINT ENERGY      -153.758599856721

DIPOLE MOMENT
-------------

Method             : TDA/CIS
Type of density    : Electron Density
Level              : Relaxed density
State              :   1
Multiplicity       :   3
Irrep              :   0
Energy             :     0.0000000000000000 Eh
Relativity type    :
Basis              : AO
                                X                 Y                 Z
Electronic contribution:      0.977271938      -1.259173159      -0.507549449
Nuclear contribution   :     -1.748997133       2.513024065       0.872819889
                        -----------------------------------------
Total Dipole Moment    :     -0.771725195       1.253850906       0.365270440
                        -----------------------------------------
Magnitude (a.u.)       :      1.516945736
Magnitude (Debye)      :      3.855769638

Rotational constants in cm-1:             1.464041             0.378332             0.324557
Rotational constants in MHz :         43890.838081         11342.098315          9729.976460

                             ****ORCA TERMINATED NORMALLY****
TOTAL RUN TIME: 0 days 0 hours 0 minutes 26 seconds 976 msec
