                         Program Version 6.0.0  -   RELEASE  -
|  1> ! Engrad def2-TZVPPD wB97M-D3BJ
|  2> %pal nprocs 8 end%pal nprocs 64 end
|  3> %tddft
|  4>  Iroot 2 Nroots 3
|  5> sf true
|  6> end
|  7> *xyz 0 3
|  8> O   0.65916614 0.37905818 -0.98384764
|  9> C   0.3867856 -0.46860393 0.01209987
| 10> C   0.2062579 0.28317955 1.27261094
| 11> H   1.34863729 -1.23400833 0.26240989
| 12> H   -0.46173574 -1.03654323 -0.14663696
| 13> H   0.72153945 1.29660897 1.49266692
| 14> H   -0.45769494 -0.10981066 1.96289334
| 15> *
| 16>
| 17>                          ****END OF INPUT****

CARTESIAN COORDINATES (ANGSTROEM)
---------------------------------
  O      0.659166    0.379058   -0.983848
  C      0.386786   -0.468604    0.012100
  C      0.206258    0.283180    1.272611
  H      1.348637   -1.234008    0.262410
  H     -0.461736   -1.036543   -0.146637
  H      0.721539    1.296609    1.492667
  H     -0.457695   -0.109811    1.962893

 Total Charge           Charge          ....    0
 Multiplicity           Mult            ....    3
 Number of Electrons    NEL             ....   24
 Basis Dimension        Dim             ....  182

ORBITAL ENERGIES
----------------
                 SPIN UP ORBITALS
  NO   OCC          E(Eh)            E(eV)
   0   1.0000     -19.386642      -527.5373
   1   1.0000     -10.418625      -283.5052
   2   1.0000     -10.375851      -282.3413
   3   1.0000      -1.180287       -32.1173
   4   1.0000      -0.881419       -23.9846
   5   1.0000      -0.727140       -19.7865
   6   1.0000      -0.613687       -16.6993
   7   1.0000      -0.595958       -16.2168
   8   1.0000      -0.560872       -15.2621
   9   1.0000      -0.514045       -13.9879
  10   1.0000      -0.435850       -11.8601
  11   1.0000      -0.414800       -11.2873
  12   1.0000      -0.319127        -8.6839
  13   0.0000       0.041629         1.1328
  14   0.0000       0.059899         1.6299
  15   0.0000       0.078792         2.1440
  16   0.0000       0.083766         2.2794
  17   0.0000       0.110993         3.0203

                 SPIN DOWN ORBITALS
  NO   OCC          E(Eh)            E(eV)
   0   1.0000     -19.364137      -526.9250
   1   1.0000     -10.420323      -283.5514
   2   1.0000     -10.360851      -281.9331
   3   1.0000      -1.130652       -30.7666
   4   1.0000      -0.846493       -23.0343
   5   1.0000      -0.701246       -19.0819
   6   1.0000      -0.596072       -16.2199
   7   1.0000      -0.544430       -14.8147
   8   1.0000      -0.522021       -14.2049
   9   1.0000      -0.499017       -13.5790
  10   1.0000      -0.383684       -10.4406
  11   0.0000      -0.060356        -1.6424
  12   0.0000       0.003535         0.0962
  13   0.0000       0.042268         1.1502
  14   0.0000       0.060435         1.6445
  15   0.0000       0.078602         2.1389

----------------------------------------------------------------------------------------------------
          SPIN FLIP ABSORPTION SPECTRUM VIA TRANSITION ELECTRIC DIPOLE MOMENTS
----------------------------------------------------------------------------------------------------
     Transition      Energy     Energy  Wavelength fosc(D2)      D2        DX        DY        DZ
                      (eV)      (cm-1)    (nm)                 (au**2)    (au)      (au)      (au)
----------------------------------------------------------------------------------------------------
  1-3A  ->  2-3A    0.420618    3392.5  2947.7   0.000118760   0.01152  -0.02944  -0.08911   0.05213
  1-3A  ->  3-1A    1.013515    8174.6  1223.3   0.065979258   2.65717   0.28198   0.01940  -1.60539

Dispersion correction             ... done (  0.1 sec)

MULLIKEN ATOMIC CHARGES AND SPIN DENSITIES
------------------------------------------
   0 O :   -0.341718    0.628464
   1 C :   -0.109370   -0.030138
   2 C :   -0.292523   -0.441791
   3 H :    0.229799    0.027855
   4 H :    0.228281   -0.034190
   5 H :    0.143263   -0.071574
   6 H :    0.142268   -0.078626
Sum of atomic charges       :   -0.0000000

LOEWDIN ATOMIC CHARGES AND SPIN DENSITIES
-----------------------------------------
   0 O :    0.059039    0.581513
   1 C :   -0.300947   -0.017177
   2 C :    0.262552   -0.459086
   3 H :    0.139861    0.030071
   4 H :   -0.037959   -0.015952
   5 H :   -0.000844   -0.049584
   6 H :   -0.121703   -0.069786

  Mayer bond orders larger than 0.100000
B(  0-O ,  1-C ) :   0.8967 B(  1-C ,  2-C ) :   0.8884 B(  1-C ,  3-H ) :   0.8623
B(  1-C ,  4-H ) :   0.9905 B(  2-C ,  5-H ) :   1.0055 B(  2-C ,  6-H ) :   1.0373

Dispersion correction           -0.005561843
FINAL SINGLE POINT ENERGY      -153.732415593907

DIPOLE MOMENT
-------------

Method             : TDA/CIS
Type of density    : Electron Density
Level              : Relaxed density
State              :   2
Multiplicity       :   3
Irrep              :   0
Energy             :     0.0000000000000000 Eh
Relativity type    :
Basis              : AO
                                X                 Y                 Z
Electronic contribution:      0.433117491       0.689742579      -2.527664195
Nuclear contribution   :     -0.520939589      -1.245902956       3.054624315
                        -----------------------------------------
Total Dipole Moment    :     -0.087822098      -0.556160377       0.526960121
                        -----------------------------------------
Magnitude (a.u.)       :      0.771177058
Magnitude (Debye)      :      1.960176303

Rotational constants in cm-1:             1.360298             0.376455             0.319538
Rotational constants in MHz :         40780.701104         11285.829799          9579.520841

                             ****ORCA TERMINATED NORMALLY****
TOTAL RUN TIME: 0 days 0 hours 0 minutes 26 seconds 774 msec
