                         Program Version 6.0.0  -   RELEASE  -
|  1> ! Engrad def2-TZVPPD wB97M-D3BJ
|  2> %pal nprocs 8 end%pal nprocs 64 end
|  3> %tddft
|  4>  Iroot 1 Nroots 3
|  5> sf true
|  6> end
|  7> *xyz 0 3
|  8> O   0.14534126 1.10213764 0.59283242
|  9> C   0.17268629 -0.30790841 0.39658931
| 10> C   0.99913864 -0.67822613 -0.82798408
| 11> H   -0.7923173 -0.65231016 0.34206752
| 12> H   0.52931309 -0.69620205 1.32035412
| 13> H   0.72425984 -1.50227335 -1.41917654
| 14> H   1.6929278 0.05501897 -1.24944061
| 15> *
| 16>
| 17>                          ****END OF INPUT****

CARTESIAN COORDINATES (ANGSTROEM)
---------------------------------
  O      0.145341    1.102138    0.592832
  C      0.172686   -0.307908    0.396589
  C      0.999139   -0.678226   -0.827984
  H     -0.792317   -0.652310    0.342068
  H      0.529313   -0.696202    1.320354
  H      0.724260   -1.502273   -1.419177
  H      1.692928    0.055019   -1.249441

 Total Charge           Charge          ....    0
 Multiplicity           Mult            ....    3
 Number of Electrons    NEL             ....   24
 Basis Dimension        Dim             ....  182

ORBITAL ENERGIES
----------------
                 SPIN UP ORBITALS
  NO   OCC          E(Eh)            E(eV)
   0   1.0000     -19.390158      -527.6330
   1   1.0000     -10.407014      -283.1893
   2   1.0000     -10.367718      -282.1199
   3   1.0000      -1.150667       -31.3112
   4   1.0000      -0.873842       -23.7785
   5   1.0000      -0.751609       -20.4523
   6   1.0000      -0.610519       -16.6131
   7   1.0000      -0.586608       -15.9624
   8   1.0000      -0.543370       -14.7859
   9   1.0000      -0.514400       -13.9975
  10   1.0000      -0.453868       -12.3504
  11   1.0000      -0.418274       -11.3818
  12   1.0000      -0.324308        -8.8249
  13   0.0000       0.041697         1.1346
  14   0.0000       0.060931         1.6580
  15   0.0000       0.081729         2.2239
  16   0.0000       0.086383         2.3506
  17   0.0000       0.110665         3.0114

                 SPIN DOWN ORBITALS
  NO   OCC          E(Eh)            E(eV)
   0   1.0000     -19.366146      -526.9796
   1   1.0000     -10.408184      -283.2211
   2   1.0000     -10.354402      -281.7576
   3   1.0000      -1.094746       -29.7896
   4   1.0000      -0.842406       -22.9230
   5   1.0000      -0.724622       -19.7180
   6   1.0000      -0.582126       -15.8405
   7   1.0000      -0.549061       -14.9407
   8   1.0000      -0.523679       -14.2500
   9   1.0000      -0.494939       -13.4680
  10   1.0000      -0.387188       -10.5359
  11   0.0000      -0.049853        -1.3566
  12   0.0000       0.000911         0.0248
  13   0.0000       0.040647         1.1061
  14   0.0000       0.060996         1.6598
  15   0.0000       0.082250         2.2381

----------------------------------------------------------------------------------------------------
          SPIN FLIP ABSORPTION SPECTRUM VIA TRANSITION ELECTRIC DIPOLE MOMENTS
----------------------------------------------------------------------------------------------------
     Transition      Energy     Energy  Wavelength fosc(D2)      D2        DX        DY        DZ
                      (eV)      (cm-1)    (nm)                 (au**2)    (au)      (au)      (au)
----------------------------------------------------------------------------------------------------
  1-3A  ->  2-3A    0.079134     638.3  15667.7   0.000166663   0.08596  -0.08682   0.18813   0.20745
  1-3A  ->  3-3A    0.912487    7359.7  1358.8   0.009947948   0.44499  -0.15860   0.56681   0.31394

Dispersion correction             ... done (  0.2 sec)

MULLIKEN ATOMIC CHARGES AND SPIN DENSITIES
------------------------------------------
   0 O :   -0.381669   -0.153972
   1 C :   -0.073047   -0.005431
   2 C :   -0.460703    0.106306
   3 H :    0.248681    0.000594
   4 H :    0.230942    0.052820
   5 H :    0.211874   -0.010479
   6 H :    0.223921    0.010163
Sum of atomic charges       :    0.0000000

LOEWDIN ATOMIC CHARGES AND SPIN DENSITIES
-----------------------------------------
   0 O :   -0.023602   -0.169633
   1 C :   -0.169083    0.020329
   2 C :    0.332453    0.100900
   3 H :   -0.016282   -0.003037
   4 H :    0.006332    0.028985
   5 H :   -0.090555    0.008808
   6 H :   -0.039263    0.013648

  Mayer bond orders larger than 0.100000
B(  0-O ,  1-C ) :   0.9323 B(  0-O ,  2-C ) :   0.1839 B(  1-C ,  2-C ) :   0.8454
B(  1-C ,  3-H ) :   0.8926 B(  1-C ,  4-H ) :   0.9583 B(  2-C ,  5-H ) :   0.9948
B(  2-C ,  6-H ) :   0.9691

Dispersion correction           -0.005481190
FINAL SINGLE POINT ENERGY      -153.747901536016

DIPOLE MOMENT
-------------

Method             : TDA/CIS
Type of density    : Electron Density
Level              : Relaxed density
State              :   1
Multiplicity       :   3
Irrep              :   0
Energy             :     0.0000000000000000 Eh
Relativity type    :
Basis              : AO
                                X                 Y                 Z
Electronic contribution:     -0.469413722       1.844930346       0.929358507
Nuclear contribution   :      0.434882375      -2.860665618      -1.216502603
                        -----------------------------------------
Total Dipole Moment    :     -0.034531347      -1.015735272      -0.287144096
                        -----------------------------------------
Magnitude (a.u.)       :      1.056107139
Magnitude (Debye)      :      2.684411014

Rotational constants in cm-1:             1.385840             0.345655             0.292714
Rotational constants in MHz :         41546.432537         10362.462582          8775.337343

                             ****ORCA TERMINATED NORMALLY****
TOTAL RUN TIME: 0 days 0 hours 0 minutes 26 seconds 952 msec
