                         Program Version 6.0.0  -   RELEASE  -
|  1> ! Engrad def2-TZVPPD wB97M-D3BJ
|  2> %pal nprocs 8 end%pal nprocs 32 end
|  3>  %tddft nroots 2 Iroot 2
|  4> sf true
|  5> end
|  6> *xyz 0 3
|  7> O   2.58660809781178 -0.09456759301442 -1.39820769112677
|  8> O   -0.71247834999258 2.3358939937104 -2.04405026952199
|  9> O   0.43558922271626 -3.27308633895195 0.84658801757807
| 10> O   -2.30340207360833 -1.84850688794881 -1.34286137973821
| 11> N   0.53442736939 -1.22429502699704 1.83892847292511
| 12> N   -1.94412368930577 -0.53786260698723 0.47560470685832
| 13> N   1.06092220382893 -1.47605550708454 -0.41696828029134
| 14> N   -1.39367089966878 0.20568894110589 -1.66293750750961
| 15> C   1.62080186372761 0.58565640447594 0.65315217839284
| 16> C   -0.93238121681181 1.6445745451853 0.20599621349577
| 17> C   0.3608708981086 0.16638462531074 1.59594610650625
| 18> C   -1.26116364217473 0.5432674957168 1.11062985573468
| 19> C   2.60865017157532 1.56479297087027 1.13011120294689
| 20> C   -0.73047636609681 3.00805898669855 0.73233509313477
| 21> C   1.82307553446504 -0.28914935461052 -0.47185231623396
| 22> C   -0.98422804981856 1.46010293658131 -1.24888165293434
| 23> C   0.65671825724176 -2.08950775637248 0.76243975650072
| 24> C   -1.9013764856548 -0.81389328045719 -0.86860869428764
| 25> H   0.47411400815869 0.70932012092407 2.5314203347709
| 26> H   -1.78626917516871 0.86173081445277 2.00763465851369
| 27> H   3.43020691402294 1.64330461136525 0.42382223429142
| 28> H   2.158273177886 2.55392885533717 1.26129645051927
| 29> H   3.00593933873107 1.27143566843733 2.1079837259613
| 30> H   -1.70309741167357 3.46611047929982 0.94443285525289
| 31> H   -0.17670993856344 2.99776579689435 1.67197745941083
| 32> H   -0.21975347017921 3.62468249810826 5.11194611e-05
| 33> H   0.16358993273577 -1.66835886734368 2.66284453667581
| 34> H   -2.22217882109256 -1.32875195449771 1.0302551232036
| 35> H   1.21411761927319 -2.11736544998325 -1.17951723323061
| 36> H   -1.40999501986333 0.03370087977457 -2.6549650772598
| 37> *
| 38>
| 39>                          ****END OF INPUT****

CARTESIAN COORDINATES (ANGSTROEM)
---------------------------------
  O      2.586608   -0.094568   -1.398208
  O     -0.712478    2.335894   -2.044050
  O      0.435589   -3.273086    0.846588
  O     -2.303402   -1.848507   -1.342861
  N      0.534427   -1.224295    1.838928
  N     -1.944124   -0.537863    0.475605
  N      1.060922   -1.476056   -0.416968
  N     -1.393671    0.205689   -1.662938
  C      1.620802    0.585656    0.653152
  C     -0.932381    1.644575    0.205996
  C      0.360871    0.166385    1.595946
  C     -1.261164    0.543267    1.110630
  C      2.608650    1.564793    1.130111
  C     -0.730476    3.008059    0.732335
  C      1.823076   -0.289149   -0.471852
  C     -0.984228    1.460103   -1.248882
  C      0.656718   -2.089508    0.762440
  C     -1.901376   -0.813893   -0.868609
  H      0.474114    0.709320    2.531420
  H     -1.786269    0.861731    2.007635
  H      3.430207    1.643305    0.423822
  H      2.158273    2.553929    1.261296
  H      3.005939    1.271436    2.107984
  H     -1.703097    3.466110    0.944433
  H     -0.176710    2.997766    1.671977
  H     -0.219753    3.624682    0.000051
  H      0.163590   -1.668359    2.662845
  H     -2.222179   -1.328752    1.030255
  H      1.214118   -2.117365   -1.179517
  H     -1.409995    0.033701   -2.654965

 Total Charge           Charge          ....    0
 Multiplicity           Mult            ....    3
 Number of Electrons    NEL             ....  132
 Basis Dimension        Dim             ....  882

ORBITAL ENERGIES
----------------
                 SPIN UP ORBITALS
  NO   OCC          E(Eh)            E(eV)
   0   1.0000     -19.337905      -526.2112
   1   1.0000     -19.326506      -525.9010
   2   1.0000     -19.320326      -525.7328
   3   1.0000     -19.316674      -525.6334
   4   1.0000     -14.562634      -396.2694
   5   1.0000     -14.561974      -396.2515
   6   1.0000     -14.558917      -396.1683
   7   1.0000     -14.558504      -396.1570
   8   1.0000     -10.503059      -285.8028
   9   1.0000     -10.502947      -285.7997
  10   1.0000     -10.480943      -285.2010
  11   1.0000     -10.475525      -285.0535
  12   1.0000     -10.452253      -284.4203
  13   1.0000     -10.446702      -284.2692
  14   1.0000     -10.426513      -283.7198
  15   1.0000     -10.407495      -283.2023
  16   1.0000     -10.376915      -282.3702
  17   1.0000     -10.371515      -282.2233
  18   1.0000      -1.220765       -33.2187
  19   1.0000      -1.215992       -33.0888
  20   1.0000      -1.198390       -32.6098
  21   1.0000      -1.193267       -32.4704
  22   1.0000      -1.116067       -30.3697
  23   1.0000      -1.098924       -29.9032
  24   1.0000      -1.064407       -28.9640
  25   1.0000      -1.055770       -28.7290
  26   1.0000      -0.976705       -26.5775
  27   1.0000      -0.950270       -25.8582
  28   1.0000      -0.876659       -23.8551
  29   1.0000      -0.838871       -22.8268
  30   1.0000      -0.828192       -22.5363
  31   1.0000      -0.802970       -21.8499
  32   1.0000      -0.784853       -21.3569
  33   1.0000      -0.776451       -21.1283
  34   1.0000      -0.697743       -18.9865
  35   1.0000      -0.692553       -18.8453
  36   1.0000      -0.689189       -18.7538
  37   1.0000      -0.657506       -17.8917
  38   1.0000      -0.651050       -17.7160
  39   1.0000      -0.643474       -17.5098
  40   1.0000      -0.618865       -16.8402
  41   1.0000      -0.600927       -16.3521
  42   1.0000      -0.592253       -16.1160
  43   1.0000      -0.584765       -15.9123
  44   1.0000      -0.577291       -15.7089
  45   1.0000      -0.570101       -15.5132
  46   1.0000      -0.563948       -15.3458
  47   1.0000      -0.561976       -15.2921
  48   1.0000      -0.557982       -15.1835
  49   1.0000      -0.551274       -15.0009
  50   1.0000      -0.548310       -14.9203
  51   1.0000      -0.539061       -14.6686
  52   1.0000      -0.531443       -14.4613
  53   1.0000      -0.525353       -14.2956
  54   1.0000      -0.515494       -14.0273
  55   1.0000      -0.504253       -13.7214
  56   1.0000      -0.490056       -13.3351
  57   1.0000      -0.425031       -11.5657
  58   1.0000      -0.419251       -11.4084
  59   1.0000      -0.409963       -11.1556
  60   1.0000      -0.407018       -11.0755
  61   1.0000      -0.396025       -10.7764
  62   1.0000      -0.393053       -10.6955
  63   1.0000      -0.387461       -10.5433
  64   1.0000      -0.380568       -10.3558
  65   1.0000      -0.343862        -9.3569
  66   1.0000      -0.309657        -8.4262
  67   0.0000       0.005681         0.1546
  68   0.0000       0.028463         0.7745
  69   0.0000       0.031210         0.8493
  70   0.0000       0.038479         1.0471
  71   0.0000       0.055349         1.5061

                 SPIN DOWN ORBITALS
  NO   OCC          E(Eh)            E(eV)
   0   1.0000     -19.333025      -526.0784
   1   1.0000     -19.322427      -525.7900
   2   1.0000     -19.319925      -525.7219
   3   1.0000     -19.316656      -525.6329
   4   1.0000     -14.561765      -396.2458
   5   1.0000     -14.561720      -396.2446
   6   1.0000     -14.558713      -396.1627
   7   1.0000     -14.557960      -396.1422
   8   1.0000     -10.503102      -285.8039
   9   1.0000     -10.502950      -285.7998
  10   1.0000     -10.482026      -285.2304
  11   1.0000     -10.476331      -285.0755
  12   1.0000     -10.450740      -284.3791
  13   1.0000     -10.447127      -284.2808
  14   1.0000     -10.414798      -283.4011
  15   1.0000     -10.396246      -282.8962
  16   1.0000     -10.377494      -282.3860
  17   1.0000     -10.372071      -282.2384
  18   1.0000      -1.218888       -33.1676
  19   1.0000      -1.214373       -33.0448
  20   1.0000      -1.192627       -32.4530
  21   1.0000      -1.188422       -32.3386
  22   1.0000      -1.113496       -30.2998
  23   1.0000      -1.096713       -29.8431
  24   1.0000      -1.062608       -28.9150
  25   1.0000      -1.054118       -28.6840
  26   1.0000      -0.962369       -26.1874
  27   1.0000      -0.933647       -25.4058
  28   1.0000      -0.872304       -23.7366
  29   1.0000      -0.833703       -22.6862
  30   1.0000      -0.819582       -22.3020
  31   1.0000      -0.797321       -21.6962
  32   1.0000      -0.783515       -21.3205
  33   1.0000      -0.774805       -21.0835
  34   1.0000      -0.691946       -18.8288
  35   1.0000      -0.686699       -18.6860
  36   1.0000      -0.682380       -18.5685
  37   1.0000      -0.649395       -17.6709
  38   1.0000      -0.643227       -17.5031
  39   1.0000      -0.638193       -17.3661
  40   1.0000      -0.616054       -16.7637
  41   1.0000      -0.596389       -16.2286
  42   1.0000      -0.586150       -15.9499
  43   1.0000      -0.576803       -15.6956
  44   1.0000      -0.565137       -15.3782
  45   1.0000      -0.562637       -15.3101
  46   1.0000      -0.560187       -15.2435
  47   1.0000      -0.555821       -15.1247
  48   1.0000      -0.554555       -15.0902
  49   1.0000      -0.542750       -14.7690
  50   1.0000      -0.539240       -14.6735
  51   1.0000      -0.532353       -14.4861
  52   1.0000      -0.524163       -14.2632
  53   1.0000      -0.515598       -14.0301
  54   1.0000      -0.504352       -13.7241
  55   1.0000      -0.498432       -13.5630
  56   1.0000      -0.483617       -13.1599
  57   1.0000      -0.419969       -11.4279
  58   1.0000      -0.414738       -11.2856
  59   1.0000      -0.405937       -11.0461
  60   1.0000      -0.394662       -10.7393
  61   1.0000      -0.387994       -10.5578
  62   1.0000      -0.383210       -10.4277
  63   1.0000      -0.382303       -10.4030
  64   1.0000      -0.365397        -9.9430
  65   0.0000      -0.065439        -1.7807
  66   0.0000      -0.032724        -0.8905
  67   0.0000       0.005319         0.1447
  68   0.0000       0.028319         0.7706
  69   0.0000       0.031015         0.8440

----------------------------------------------------------------------------------------------------
          SPIN FLIP ABSORPTION SPECTRUM VIA TRANSITION ELECTRIC DIPOLE MOMENTS
----------------------------------------------------------------------------------------------------
     Transition      Energy     Energy  Wavelength fosc(D2)      D2        DX        DY        DZ
                      (eV)      (cm-1)    (nm)                 (au**2)    (au)      (au)      (au)
----------------------------------------------------------------------------------------------------
  1-3A  ->  2-3A    0.264133    2130.4  4694.0   0.000010081   0.00156  -0.00910  -0.02917   0.02499

Dispersion correction             ... done (  0.1 sec)

MULLIKEN ATOMIC CHARGES AND SPIN DENSITIES
------------------------------------------
   0 O :   -0.669772   -0.068695
   1 O :   -0.690975    0.053836
   2 O :   -0.639021   -0.001292
   3 O :   -0.647103   -0.000253
   4 N :   -0.307182    0.003647
   5 N :   -0.237149    0.003286
   6 N :    0.077659    0.000838
   7 N :    0.038989    0.006515
   8 C :    1.178538    0.441592
   9 C :    0.442605    0.385529
  10 C :   -0.002632   -0.312421
  11 C :    0.201674   -0.024397
  12 C :   -1.335958   -0.010254
  13 C :   -1.514562    0.019389
  14 C :   -0.340404   -0.431695
  15 C :    0.428333   -0.147494
  16 C :    0.282785    0.017516
  17 C :    0.447611    0.006144
  18 H :    0.555254   -0.015640
  19 H :    0.491818    0.005133
  20 H :    0.353596   -0.011886
  21 H :    0.276568    0.036213
  22 H :    0.339345    0.008671
  23 H :    0.400164    0.016681
  24 H :    0.345853    0.011775
  25 H :    0.300433    0.003003
  26 H :    0.100303    0.000832
  27 H :    0.056955   -0.000083
  28 H :    0.051719    0.001693
  29 H :    0.014556    0.001818
Sum of atomic charges       :   -0.0000000

LOEWDIN ATOMIC CHARGES AND SPIN DENSITIES
-----------------------------------------
   0 O :    0.097770   -0.064348
   1 O :    0.090083    0.048945
   2 O :    0.095633   -0.000711
   3 O :    0.096100   -0.000071
   4 N :    0.251051   -0.001753
   5 N :    0.278865   -0.002501
   6 N :    0.322194   -0.005293
   7 N :    0.329603    0.007406
   8 C :    0.021073   -0.188374
   9 C :   -0.077472    0.191359
  10 C :   -0.033265    0.013491
  11 C :   -0.068556    0.015417
  12 C :    0.186020   -0.031749
  13 C :    0.182008    0.026640
  14 C :   -0.417700   -0.038666
  15 C :   -0.407131    0.027329
  16 C :   -0.489215    0.000179
  17 C :   -0.490522   -0.000388
  18 H :    0.029572    0.001975
  19 H :    0.050237    0.002354
  20 H :    0.002912    0.000496
  21 H :   -0.001153   -0.007594
  22 H :    0.015233   -0.008894
  23 H :    0.016788    0.010761
  24 H :   -0.008069    0.003785
  25 H :    0.000553    0.000542
  26 H :   -0.028343   -0.000301
  27 H :   -0.026271   -0.000195
  28 H :   -0.009434   -0.000469
  29 H :   -0.008564    0.000628

  Mayer bond orders larger than 0.100000
B(  0-O , 14-C ) :   1.3883 B(  1-O , 15-C ) :   1.2795 B(  2-O , 16-C ) :   1.5207
B(  3-O , 17-C ) :   1.5435 B(  4-N ,  8-C ) :   0.2424 B(  4-N , 16-C ) :   1.2077
B(  4-N , 26-H ) :   1.0091 B(  5-N ,  9-C ) :   0.2527 B(  5-N , 11-C ) :   0.4021
B(  5-N , 17-C ) :   1.0385 B(  5-N , 27-H ) :   1.0965 B(  6-N , 10-C ) :   0.1098
B(  6-N , 14-C ) :   0.9548 B(  6-N , 16-C ) :   0.9919 B(  6-N , 28-H ) :   1.0599
B(  7-N , 11-C ) :   0.1094 B(  7-N , 15-C ) :   1.0264 B(  7-N , 17-C ) :   0.9274
B(  7-N , 29-H ) :   1.1211 B(  8-C , 10-C ) :   0.2525 B(  8-C , 12-C ) :   0.4291
B(  8-C , 14-C ) :   0.4286 B(  9-C , 10-C ) :   0.2128 B(  9-C , 11-C ) :   0.3707
B(  9-C , 13-C ) :   0.3953 B(  9-C , 15-C ) :   0.8005 B(  9-C , 19-H ) :  -0.1672
B(  9-C , 24-H ) :  -0.1049 B(  9-C , 25-H ) :  -0.1464 B( 10-C , 11-C ) :   0.5749
B( 10-C , 16-C ) :  -0.2699 B( 10-C , 18-H ) :   0.7739 B( 11-C , 13-C ) :  -0.1179
B( 11-C , 17-C ) :  -0.1478 B( 11-C , 19-H ) :   0.8342 B( 12-C , 20-H ) :   0.9233
B( 12-C , 21-H ) :   0.9764 B( 12-C , 22-H ) :   0.8848 B( 13-C , 23-H ) :   0.7994
B( 13-C , 24-H ) :   0.9238 B( 13-C , 25-H ) :   1.0778 B( 14-C , 16-C ) :  -0.1092

Dispersion correction           -0.058863854
FINAL SINGLE POINT ENERGY      -908.781367408649

DIPOLE MOMENT
-------------

Method             : TDA/CIS
Type of density    : Electron Density
Level              : Relaxed density
State              :   2
Multiplicity       :   3
Irrep              :   0
Energy             :     0.0000000000000000 Eh
Relativity type    :
Basis              : AO
                                X                 Y                 Z
Electronic contribution:     -3.143105612     -10.041992937      -7.429940366
Nuclear contribution   :      3.017056660      11.557498062      10.332886394
                        -----------------------------------------
Total Dipole Moment    :     -0.126048952       1.515505125       2.902946028
                        -----------------------------------------
Magnitude (a.u.)       :      3.277154217
Magnitude (Debye)      :      8.329864034

Rotational constants in cm-1:             0.017776             0.016270             0.012571
Rotational constants in MHz :           532.923422           487.774697           376.874709

                             ****ORCA TERMINATED NORMALLY****
TOTAL RUN TIME: 0 days 0 hours 5 minutes 50 seconds 194 msec
