                         Program Version 6.0.0  -   RELEASE  -
|  1> ! opt def2-TZVPPD wB97M-D3BJ
|  2> %pal nprocs 8 end%pal nprocs 32 end
|  3> %geom Constraints
|  4> {B 9 8 2.7 C}
|  5> {A 8 9 11 79.71428571428571 C}
|  6> end
|  7> MaxIter 300
|  8> end
|  9> *xyz 0 1
| 10> O   2.98579685529314 0.88758230159078 -0.86184571092411
| 11> O   -0.03983205397054 0.68929041702508 -2.10362336723772
| 12> O   0.93431434349854 -3.13274393337945 -0.68767288184107
| 13> O   -3.75829998830163 -0.84727300865116 -0.0472717177755
| 14> N   0.21184538946282 -1.54604804365365 0.7617588924445
| 15> N   -2.13631993928911 0.03188773433438 1.27350571071531
| 16> N   2.02598672506387 -1.14318467211666 -0.64531219127023
| 17> N   -1.91814233924584 0.03137116037665 -1.04498946748291
| 18> C   1.18097737274226 0.71693507080484 0.70173889017321
| 19> C   -0.20686880480777 1.27024627933494 0.21345042231937
| 20> C   0.41441080275909 -0.34173258966541 1.52336266615173
| 21> C   -0.82922175114212 0.58960593673968 1.44434972027296
| 22> C   1.92822011286806 1.69488653817281 1.5963734975385
| 23> C   -0.37809776891576 2.77134929626422 0.04819649358288
| 24> C   2.1403947470937 0.1972384729179 -0.35038567829864
| 25> C   -0.67361678962426 0.6214190571346 -1.0793014500539
| 26> C   1.04142578622994 -2.02697492875068 -0.21027082435993
| 27> C   -2.68467002550422 -0.30396816036989 0.07167054343891
| 28> H   0.80817443950001 -0.54572267081061 2.51895215321335
| 29> H   -0.83785272399001 1.27240685039143 2.28901317073582
| 30> H   2.31167340578204 2.52284411740894 1.00913016264629
| 31> H   1.28982602448342 2.08257620823614 2.38710022492991
| 32> H   2.77390820759972 1.19140411795486 2.06045858523949
| 33> H   -1.41857211141493 3.00964947214868 -0.16882755561625
| 34> H   -0.09065531563179 3.29799318042223 0.95389844358819
| 35> H   0.23426221611057 3.12492645074476 -0.77764887675592
| 36> H   -0.46772570547622 -2.21560145172536 1.0787081584806
| 37> H   -2.71769301149571 -0.17090724573546 2.06627440900372
| 38> H   2.60065167263658 -1.49057255715425 -1.3966820077142
| 39> H   -2.27169977231386 -0.32388339999036 -1.91951041514436
| 40> *
| 41>
| 42>                          ****END OF INPUT****
 Total Charge           Charge          ....    0
 Multiplicity           Mult            ....    1
 Number of Electrons    NEL             ....  132
Dispersion correction           -0.053953148
FINAL SINGLE POINT ENERGY      -908.724562159732
Dispersion correction             ... done (  0.0 sec)
Dispersion correction           -0.054847587
FINAL SINGLE POINT ENERGY      -908.747374067474
Dispersion correction             ... done (  0.1 sec)
Dispersion correction           -0.055883667
FINAL SINGLE POINT ENERGY      -908.761477208313
Dispersion correction             ... done (  0.0 sec)
FINAL SINGLE POINT ENERGY      -908.771128383135
FINAL SINGLE POINT ENERGY      -908.775087188828
FINAL SINGLE POINT ENERGY      -908.779445873087
FINAL SINGLE POINT ENERGY      -908.782433426611
FINAL SINGLE POINT ENERGY      -908.784562762492
FINAL SINGLE POINT ENERGY      -908.787767456100
FINAL SINGLE POINT ENERGY      -908.788847774045
FINAL SINGLE POINT ENERGY      -908.790337635792
FINAL SINGLE POINT ENERGY      -908.790541153816
FINAL SINGLE POINT ENERGY      -908.790731349980
FINAL SINGLE POINT ENERGY      -908.790881629993
FINAL SINGLE POINT ENERGY      -908.790969206574
FINAL SINGLE POINT ENERGY      -908.791012071657
FINAL SINGLE POINT ENERGY      -908.791030446340
Dispersion correction             ... done (  0.0 sec)
Dispersion correction           -0.059042477
FINAL SINGLE POINT ENERGY      -908.791036803148
Dispersion correction             ... done (  0.0 sec)
Dispersion correction           -0.059029922
FINAL SINGLE POINT ENERGY      -908.791038880006
Dispersion correction             ... done (  0.0 sec)
                    ***********************HURRAY********************

CARTESIAN COORDINATES (ANGSTROEM)
---------------------------------
  O      2.958145    0.382365   -1.135113
  O     -0.465712    1.672009   -2.193401
  O      0.424748   -3.173987   -0.092789
  O     -2.971899   -1.734084   -0.657681
  N      0.392549   -1.433728    1.363999
  N     -2.161763   -0.262918    0.874697
  N      1.418540   -1.233255   -0.726710
  N     -1.443260   -0.185179   -1.329152
  C      1.659009    0.588011    0.817311
  C     -0.764351    1.579447    0.158235
  C      0.371203   -0.018915    1.591916
  C     -1.144908    0.660515    1.262006
  C      2.473011    1.622642    1.470790
  C     -0.618995    3.029038    0.374003
  C      2.079064   -0.048585   -0.413341
  C     -0.853774    1.069282   -1.215247
  C      0.712138   -2.028072    0.162440
  C     -2.248475   -0.809773   -0.379464
  H      0.543143    0.149440    2.656202
  H     -1.464734    1.206470    2.144389
  H      3.356173    1.840982    0.878541
  H      1.909428    2.552534    1.609963
  H      2.770891    1.296607    2.472561
  H     -1.596494    3.468255    0.603241
  H      0.019979    3.241790    1.235135
  H     -0.216280    3.507802   -0.512587
  H     -0.166230   -2.036890    1.943306
  H     -2.709755   -0.735036    1.570761
  H      1.721774   -1.700373   -1.565629
  H     -1.530567   -0.551396   -2.263779

 Multiplicity           Mult            ....    1
 Number of Electrons    NEL             ....  132
 Basis Dimension        Dim             ....  882

ORBITAL ENERGIES
----------------

  NO   OCC          E(Eh)            E(eV)
   0   2.0000     -19.331666      -526.0414
   1   2.0000     -19.322527      -525.7927
   2   2.0000     -19.320159      -525.7282
   3   2.0000     -19.317304      -525.6506
   4   2.0000     -14.565993      -396.3608
   5   2.0000     -14.564243      -396.3132
   6   2.0000     -14.558375      -396.1535
   7   2.0000     -14.553173      -396.0120
   8   2.0000     -10.507364      -285.9199
   9   2.0000     -10.500424      -285.7311
  10   2.0000     -10.485804      -285.3332
  11   2.0000     -10.473548      -284.9997
  12   2.0000     -10.448043      -284.3057
  13   2.0000     -10.442811      -284.1633
  14   2.0000     -10.438606      -284.0489
  15   2.0000     -10.423134      -283.6279
  16   2.0000     -10.379978      -282.4536
  17   2.0000     -10.371439      -282.2212
  18   2.0000      -1.222475       -33.2652
  19   2.0000      -1.213225       -33.0135
  20   2.0000      -1.197336       -32.5812
  21   2.0000      -1.185998       -32.2726
  22   2.0000      -1.116546       -30.3828
  23   2.0000      -1.094484       -29.7824
  24   2.0000      -1.065872       -29.0039
  25   2.0000      -1.052922       -28.6515
  26   2.0000      -0.975982       -26.5578
  27   2.0000      -0.938690       -25.5430
  28   2.0000      -0.881183       -23.9782
  29   2.0000      -0.834495       -22.7078
  30   2.0000      -0.825027       -22.4501
  31   2.0000      -0.800987       -21.7960
  32   2.0000      -0.788777       -21.4637
  33   2.0000      -0.772451       -21.0195
  34   2.0000      -0.699032       -19.0216
  35   2.0000      -0.690658       -18.7938
  36   2.0000      -0.684899       -18.6371
  37   2.0000      -0.654285       -17.8040
  38   2.0000      -0.648256       -17.6399
  39   2.0000      -0.641015       -17.4429
  40   2.0000      -0.614674       -16.7261
  41   2.0000      -0.600978       -16.3534
  42   2.0000      -0.584490       -15.9048
  43   2.0000      -0.579137       -15.7591
  44   2.0000      -0.577249       -15.7077
  45   2.0000      -0.568528       -15.4704
  46   2.0000      -0.564899       -15.3717
  47   2.0000      -0.559204       -15.2167
  48   2.0000      -0.552949       -15.0465
  49   2.0000      -0.547188       -14.8897
  50   2.0000      -0.542102       -14.7514
  51   2.0000      -0.536102       -14.5881
  52   2.0000      -0.529630       -14.4120
  53   2.0000      -0.522264       -14.2115
  54   2.0000      -0.506686       -13.7876
  55   2.0000      -0.503289       -13.6952
  56   2.0000      -0.480858       -13.0848
  57   2.0000      -0.420925       -11.4540
  58   2.0000      -0.413695       -11.2572
  59   2.0000      -0.404640       -11.0108
  60   2.0000      -0.403969       -10.9926
  61   2.0000      -0.391320       -10.6484
  62   2.0000      -0.384697       -10.4682
  63   2.0000      -0.380354       -10.3500
  64   2.0000      -0.372857       -10.1459
  65   2.0000      -0.296137        -8.0583
  66   0.0000      -0.088956        -2.4206
  67   0.0000       0.006389         0.1739
  68   0.0000       0.028148         0.7660
  69   0.0000       0.030619         0.8332
  70   0.0000       0.039628         1.0783

MULLIKEN ATOMIC CHARGES
-----------------------
   0 O :   -0.683090
   1 O :   -0.666674
   2 O :   -0.647065
   3 O :   -0.641390
   4 N :   -0.259354
   5 N :   -0.247929
   6 N :    0.079958
   7 N :    0.053162
   8 C :    0.389686
   9 C :    0.606727
  10 C :    0.184110
  11 C :    0.145503
  12 C :   -1.276705
  13 C :   -1.236422
  14 C :    0.169696
  15 C :    0.234678
  16 C :    0.402968
  17 C :    0.379533
  18 H :    0.530250
  19 H :    0.495697
  20 H :    0.339081
  21 H :    0.190219
  22 H :    0.308961
  23 H :    0.348294
  24 H :    0.320385
  25 H :    0.299112
  26 H :    0.063827
  27 H :    0.051941
  28 H :    0.033216
  29 H :    0.031626
Sum of atomic charges:    0.0000000

LOEWDIN ATOMIC CHARGES
----------------------
   0 O :    0.093807
   1 O :    0.104756
   2 O :    0.097474
   3 O :    0.103274
   4 N :    0.262288
   5 N :    0.274757
   6 N :    0.318471
   7 N :    0.332711
   8 C :    0.006578
   9 C :   -0.023251
  10 C :   -0.047577
  11 C :   -0.086836
  12 C :    0.176141
  13 C :    0.189197
  14 C :   -0.428956
  15 C :   -0.404328
  16 C :   -0.487621
  17 C :   -0.482439
  18 H :    0.025284
  19 H :    0.044166
  20 H :   -0.000233
  21 H :   -0.014671
  22 H :    0.009151
  23 H :    0.019973
  24 H :   -0.013522
  25 H :    0.005819
  26 H :   -0.029276
  27 H :   -0.027374
  28 H :   -0.011011
  29 H :   -0.006750

  Mayer bond orders larger than 0.100000
B(  0-O , 14-C ) :   1.3750 B(  1-O , 15-C ) :   1.4127 B(  2-O , 16-C ) :   1.5128
B(  3-O , 17-C ) :   1.5463 B(  4-N ,  5-N ) :   0.1315 B(  4-N ,  8-C ) :   0.2940
B(  4-N , 10-C ) :   0.2405 B(  4-N , 16-C ) :   1.0742 B(  4-N , 26-H ) :   1.0723
B(  5-N ,  9-C ) :   0.3044 B(  5-N , 11-C ) :   0.1930 B(  5-N , 17-C ) :   1.1448
B(  5-N , 27-H ) :   1.0781 B(  6-N ,  8-C ) :  -0.1059 B(  6-N , 10-C ) :   0.1185
B(  6-N , 14-C ) :   1.0472 B(  6-N , 16-C ) :   0.9374 B(  6-N , 28-H ) :   1.1029
B(  7-N , 11-C ) :   0.1248 B(  7-N , 15-C ) :   0.9896 B(  7-N , 17-C ) :   0.9393
B(  7-N , 29-H ) :   1.1029 B(  8-C ,  9-C ) :   0.6436 B(  8-C , 12-C ) :   0.5101
B(  8-C , 14-C ) :   0.8175 B(  8-C , 15-C ) :   0.1858 B(  8-C , 18-H ) :  -0.1136
B(  8-C , 20-H ) :  -0.1171 B(  9-C , 11-C ) :   0.3472 B(  9-C , 13-C ) :   0.6103
B(  9-C , 14-C ) :   0.1319 B(  9-C , 15-C ) :   0.6753 B(  9-C , 19-H ) :  -0.1080
B(  9-C , 25-H ) :  -0.1132 B( 10-C , 11-C ) :   0.7966 B( 10-C , 14-C ) :  -0.1288
B( 10-C , 16-C ) :  -0.1240 B( 10-C , 18-H ) :   0.7704 B( 11-C , 17-C ) :  -0.1875
B( 11-C , 19-H ) :   0.8299 B( 12-C , 20-H ) :   0.9767 B( 12-C , 21-H ) :   1.0102
B( 12-C , 22-H ) :   0.8971 B( 13-C , 23-H ) :   0.8342 B( 13-C , 24-H ) :   0.8424
B( 13-C , 25-H ) :   1.0507 B( 15-C , 17-C ) :  -0.1059

Dispersion correction           -0.059021304
FINAL SINGLE POINT ENERGY      -908.791039898566

DIPOLE MOMENT
-------------

Method             : SCF
Type of density    : Electron Density
Multiplicity       :   1
Irrep              :   0
Energy             :  -908.7320185945214917 Eh
Relativity type    :
Basis              : AO
                                X                 Y                 Z
Electronic contribution:     -3.138148380     -10.252151285      -7.550834087
Nuclear contribution   :      2.614612216      11.836162500      10.310012141
                        -----------------------------------------
Total Dipole Moment    :     -0.523536163       1.584011215       2.759178054
                        -----------------------------------------
Magnitude (a.u.)       :      3.224320886
Magnitude (Debye)      :      8.195572380

Rotational constants in cm-1:             0.018699             0.015899             0.012588
Rotational constants in MHz :           560.579273           476.641949           377.387392

                             ****ORCA TERMINATED NORMALLY****
TOTAL RUN TIME: 0 days 0 hours 54 minutes 7 seconds 283 msec
