                         Program Version 6.0.0  -   RELEASE  -
|  1> ! Engrad def2-TZVPPD wB97M-D3BJ
|  2> %pal nprocs 8 end%pal nprocs 64 end
|  3> %tddft
|  4>  Iroot 2 Nroots 3
|  5> sf true
|  6> end
|  7> *xyz 0 3
|  8> O   0.64068333 0.39411322 -0.97048781
|  9> C   0.41338503 -0.48379421 0.02507554
| 10> C   0.23209986 0.29481974 1.26513226
| 11> H   1.15600392 -1.20557163 0.18251119
| 12> H   -0.49360958 -1.21722871 -0.19157441
| 13> H   0.719921 1.19041909 1.35172013
| 14> H   -0.5949631 -0.05512396 1.96021258
| 15> *
| 16>
| 17>                          ****END OF INPUT****

CARTESIAN COORDINATES (ANGSTROEM)
---------------------------------
  O      0.640683    0.394113   -0.970488
  C      0.413385   -0.483794    0.025076
  C      0.232100    0.294820    1.265132
  H      1.156004   -1.205572    0.182511
  H     -0.493610   -1.217229   -0.191574
  H      0.719921    1.190419    1.351720
  H     -0.594963   -0.055124    1.960213

 Total Charge           Charge          ....    0
 Multiplicity           Mult            ....    3
 Number of Electrons    NEL             ....   24
 Basis Dimension        Dim             ....  182

ORBITAL ENERGIES
----------------
                 SPIN UP ORBITALS
  NO   OCC          E(Eh)            E(eV)
   0   1.0000     -19.390938      -527.6542
   1   1.0000     -10.413492      -283.3655
   2   1.0000     -10.365880      -282.0699
   3   1.0000      -1.180107       -32.1123
   4   1.0000      -0.878849       -23.9147
   5   1.0000      -0.742539       -20.2055
   6   1.0000      -0.609886       -16.5958
   7   1.0000      -0.598310       -16.2808
   8   1.0000      -0.556563       -15.1449
   9   1.0000      -0.520425       -14.1615
  10   1.0000      -0.439778       -11.9670
  11   1.0000      -0.413896       -11.2627
  12   1.0000      -0.318827        -8.6757
  13   0.0000       0.040742         1.1086
  14   0.0000       0.061105         1.6628
  15   0.0000       0.078349         2.1320
  16   0.0000       0.085407         2.3241
  17   0.0000       0.112206         3.0533

                 SPIN DOWN ORBITALS
  NO   OCC          E(Eh)            E(eV)
   0   1.0000     -19.367762      -527.0236
   1   1.0000     -10.414729      -283.3992
   2   1.0000     -10.351955      -281.6910
   3   1.0000      -1.128309       -30.7028
   4   1.0000      -0.844673       -22.9847
   5   1.0000      -0.714462       -19.4415
   6   1.0000      -0.580862       -15.8061
   7   1.0000      -0.557184       -15.1617
   8   1.0000      -0.532754       -14.4970
   9   1.0000      -0.491904       -13.3854
  10   1.0000      -0.382052       -10.3962
  11   0.0000      -0.060675        -1.6511
  12   0.0000       0.004608         0.1254
  13   0.0000       0.040135         1.0921
  14   0.0000       0.061382         1.6703
  15   0.0000       0.078380         2.1328

----------------------------------------------------------------------------------------------------
          SPIN FLIP ABSORPTION SPECTRUM VIA TRANSITION ELECTRIC DIPOLE MOMENTS
----------------------------------------------------------------------------------------------------
     Transition      Energy     Energy  Wavelength fosc(D2)      D2        DX        DY        DZ
                      (eV)      (cm-1)    (nm)                 (au**2)    (au)      (au)      (au)
----------------------------------------------------------------------------------------------------
  1-3A  ->  2-3A    0.475142    3832.3  2609.4   0.000184201   0.01582   0.09616   0.07664  -0.02653
  1-3A  ->  3-1A    1.233231    9946.7  1005.4   0.081122562   2.68497   0.21893   0.00459  -1.62389

Dispersion correction             ... done (  0.2 sec)

MULLIKEN ATOMIC CHARGES AND SPIN DENSITIES
------------------------------------------
   0 O :   -0.337978    0.691045
   1 C :   -0.072118    0.030018
   2 C :   -0.317061   -0.576467
   3 H :    0.210427    0.003637
   4 H :    0.217947    0.004920
   5 H :    0.186797   -0.080429
   6 H :    0.111986   -0.072723
Sum of atomic charges       :   -0.0000000

LOEWDIN ATOMIC CHARGES AND SPIN DENSITIES
-----------------------------------------
   0 O :    0.067928    0.639723
   1 C :   -0.283109   -0.002633
   2 C :    0.281499   -0.524661
   3 H :   -0.008657    0.020082
   4 H :    0.090791    0.007992
   5 H :   -0.119714   -0.080025
   6 H :   -0.028739   -0.060479

  Mayer bond orders larger than 0.100000
B(  0-O ,  1-C ) :   0.9396 B(  1-C ,  2-C ) :   0.8649 B(  1-C ,  3-H ) :   0.9185
B(  1-C ,  4-H ) :   0.9348 B(  2-C ,  5-H ) :   1.0023 B(  2-C ,  6-H ) :   1.0627

Dispersion correction           -0.005586494
FINAL SINGLE POINT ENERGY      -153.737369761309

DIPOLE MOMENT
-------------

Method             : TDA/CIS
Type of density    : Electron Density
Level              : Relaxed density
State              :   2
Multiplicity       :   3
Irrep              :   0
Energy             :     0.0000000000000000 Eh
Relativity type    :
Basis              : AO
                                X                 Y                 Z
Electronic contribution:      0.760192959       0.865798052      -2.415850536
Nuclear contribution   :     -0.859392296      -1.436223547       2.802172474
                        -----------------------------------------
Total Dipole Moment    :     -0.099199337      -0.570425495       0.386321938
                        -----------------------------------------
Magnitude (a.u.)       :      0.696039075
Magnitude (Debye)      :      1.769190728

Rotational constants in cm-1:             1.324166             0.388553             0.323451
Rotational constants in MHz :         39697.493438         11648.520837          9696.803268

                             ****ORCA TERMINATED NORMALLY****
TOTAL RUN TIME: 0 days 0 hours 0 minutes 27 seconds 421 msec
