                         Program Version 6.0.0  -   RELEASE  -
|  1> ! opt def2-TZVPPD wB97M-D3BJ
|  2> %pal nprocs 8 end%pal nprocs 32 end
|  3> %geom Constraints
|  4> {B 9 8 2.9 C}
|  5> {A 8 9 11 70.57142857142857 C}
|  6> end
|  7> MaxIter 300
|  8> end
|  9> *xyz 0 1
| 10> O   2.98579685529314 0.88758230159078 -0.86184571092411
| 11> O   -0.03983205397054 0.68929041702508 -2.10362336723772
| 12> O   0.93431434349854 -3.13274393337945 -0.68767288184107
| 13> O   -3.75829998830163 -0.84727300865116 -0.0472717177755
| 14> N   0.21184538946282 -1.54604804365365 0.7617588924445
| 15> N   -2.13631993928911 0.03188773433438 1.27350571071531
| 16> N   2.02598672506387 -1.14318467211666 -0.64531219127023
| 17> N   -1.91814233924584 0.03137116037665 -1.04498946748291
| 18> C   1.18097737274226 0.71693507080484 0.70173889017321
| 19> C   -0.20686880480777 1.27024627933494 0.21345042231937
| 20> C   0.41441080275909 -0.34173258966541 1.52336266615173
| 21> C   -0.82922175114212 0.58960593673968 1.44434972027296
| 22> C   1.92822011286806 1.69488653817281 1.5963734975385
| 23> C   -0.37809776891576 2.77134929626422 0.04819649358288
| 24> C   2.1403947470937 0.1972384729179 -0.35038567829864
| 25> C   -0.67361678962426 0.6214190571346 -1.0793014500539
| 26> C   1.04142578622994 -2.02697492875068 -0.21027082435993
| 27> C   -2.68467002550422 -0.30396816036989 0.07167054343891
| 28> H   0.80817443950001 -0.54572267081061 2.51895215321335
| 29> H   -0.83785272399001 1.27240685039143 2.28901317073582
| 30> H   2.31167340578204 2.52284411740894 1.00913016264629
| 31> H   1.28982602448342 2.08257620823614 2.38710022492991
| 32> H   2.77390820759972 1.19140411795486 2.06045858523949
| 33> H   -1.41857211141493 3.00964947214868 -0.16882755561625
| 34> H   -0.09065531563179 3.29799318042223 0.95389844358819
| 35> H   0.23426221611057 3.12492645074476 -0.77764887675592
| 36> H   -0.46772570547622 -2.21560145172536 1.0787081584806
| 37> H   -2.71769301149571 -0.17090724573546 2.06627440900372
| 38> H   2.60065167263658 -1.49057255715425 -1.3966820077142
| 39> H   -2.27169977231386 -0.32388339999036 -1.91951041514436
| 40> *
| 41>
| 42>                          ****END OF INPUT****
 Total Charge           Charge          ....    0
 Multiplicity           Mult            ....    1
 Number of Electrons    NEL             ....  132
Dispersion correction           -0.052872539
FINAL SINGLE POINT ENERGY      -908.704731014487
Dispersion correction             ... done (  0.0 sec)
Dispersion correction           -0.053797008
FINAL SINGLE POINT ENERGY      -908.731216287872
Dispersion correction             ... done (  0.0 sec)
Dispersion correction           -0.054795739
FINAL SINGLE POINT ENERGY      -908.748780926965
Dispersion correction             ... done (  0.0 sec)
FINAL SINGLE POINT ENERGY      -908.762775777914
FINAL SINGLE POINT ENERGY      -908.768083627635
FINAL SINGLE POINT ENERGY      -908.771290499732
FINAL SINGLE POINT ENERGY      -908.774416193089
FINAL SINGLE POINT ENERGY      -908.776363977021
FINAL SINGLE POINT ENERGY      -908.777738161868
FINAL SINGLE POINT ENERGY      -908.779718869464
FINAL SINGLE POINT ENERGY      -908.783175170770
FINAL SINGLE POINT ENERGY      -908.783245084644
FINAL SINGLE POINT ENERGY      -908.783289157188
FINAL SINGLE POINT ENERGY      -908.783317185597
FINAL SINGLE POINT ENERGY      -908.783330035406
FINAL SINGLE POINT ENERGY      -908.783339399806
FINAL SINGLE POINT ENERGY      -908.783343749498
Dispersion correction             ... done (  0.0 sec)
Dispersion correction           -0.058716189
FINAL SINGLE POINT ENERGY      -908.783346394628
Dispersion correction             ... done (  0.0 sec)
Dispersion correction           -0.058714139
FINAL SINGLE POINT ENERGY      -908.783347447214
Dispersion correction             ... done (  0.0 sec)
                    ***********************HURRAY********************

CARTESIAN COORDINATES (ANGSTROEM)
---------------------------------
  O      3.167615    0.441817   -0.909664
  O     -0.586973    1.487890   -2.308049
  O      0.411697   -3.075465   -0.406740
  O     -3.039553   -1.736076   -0.373811
  N      0.326918   -1.458034    1.182012
  N     -2.151143   -0.144345    0.988770
  N      1.551950   -1.147608   -0.778348
  N     -1.484344   -0.302848   -1.228228
  C      1.727090    0.513329    0.947922
  C     -0.803662    1.606910    0.048269
  C      0.377818   -0.068841    1.563020
  C     -1.038054    0.719041    1.250123
  C      2.451279    1.569310    1.663700
  C     -0.674725    3.063797    0.173677
  C      2.221482   -0.026448   -0.302740
  C     -0.925627    0.974271   -1.261235
  C      0.727782   -1.971274   -0.028711
  C     -2.284641   -0.810902   -0.205216
  H      0.496796   -0.043618    2.649194
  H     -1.267433    1.332400    2.117872
  H      3.400294    1.779321    1.181006
  H      1.865716    2.500224    1.692070
  H      2.612342    1.288046    2.708640
  H     -1.586979    3.490394    0.605584
  H      0.133597    3.327664    0.867620
  H     -0.484975    3.518761   -0.792928
  H     -0.297481   -2.077685    1.668904
  H     -2.700060   -0.522053    1.740220
  H      1.905431   -1.551984   -1.629835
  H     -1.599556   -0.760995   -2.118496

 Multiplicity           Mult            ....    1
 Number of Electrons    NEL             ....  132
 Basis Dimension        Dim             ....  882

ORBITAL ENERGIES
----------------

  NO   OCC          E(Eh)            E(eV)
   0   2.0000     -19.332103      -526.0533
   1   2.0000     -19.324577      -525.8485
   2   2.0000     -19.321689      -525.7699
   3   2.0000     -19.315226      -525.5940
   4   2.0000     -14.566110      -396.3640
   5   2.0000     -14.563333      -396.2884
   6   2.0000     -14.556449      -396.1011
   7   2.0000     -14.553375      -396.0175
   8   2.0000     -10.507744      -285.9302
   9   2.0000     -10.499452      -285.7046
  10   2.0000     -10.484184      -285.2892
  11   2.0000     -10.475356      -285.0489
  12   2.0000     -10.445901      -284.2474
  13   2.0000     -10.443444      -284.1806
  14   2.0000     -10.434733      -283.9435
  15   2.0000     -10.427386      -283.7436
  16   2.0000     -10.380925      -282.4793
  17   2.0000     -10.375366      -282.3281
  18   2.0000      -1.222839       -33.2751
  19   2.0000      -1.212320       -32.9889
  20   2.0000      -1.196675       -32.5632
  21   2.0000      -1.186536       -32.2873
  22   2.0000      -1.117252       -30.4020
  23   2.0000      -1.093642       -29.7595
  24   2.0000      -1.064922       -28.9780
  25   2.0000      -1.052455       -28.6388
  26   2.0000      -0.971900       -26.4467
  27   2.0000      -0.944318       -25.6962
  28   2.0000      -0.883482       -24.0408
  29   2.0000      -0.836546       -22.7636
  30   2.0000      -0.825642       -22.4669
  31   2.0000      -0.801133       -21.7999
  32   2.0000      -0.786256       -21.3951
  33   2.0000      -0.773441       -21.0464
  34   2.0000      -0.698326       -19.0024
  35   2.0000      -0.689044       -18.7498
  36   2.0000      -0.682938       -18.5837
  37   2.0000      -0.657691       -17.8967
  38   2.0000      -0.647225       -17.6119
  39   2.0000      -0.643124       -17.5003
  40   2.0000      -0.616204       -16.7678
  41   2.0000      -0.600290       -16.3347
  42   2.0000      -0.584642       -15.9089
  43   2.0000      -0.578818       -15.7504
  44   2.0000      -0.577091       -15.7034
  45   2.0000      -0.568460       -15.4686
  46   2.0000      -0.565122       -15.3777
  47   2.0000      -0.557684       -15.1754
  48   2.0000      -0.553586       -15.0638
  49   2.0000      -0.546842       -14.8803
  50   2.0000      -0.544666       -14.8211
  51   2.0000      -0.539086       -14.6693
  52   2.0000      -0.530609       -14.4386
  53   2.0000      -0.521258       -14.1841
  54   2.0000      -0.507340       -13.8054
  55   2.0000      -0.506302       -13.7772
  56   2.0000      -0.483433       -13.1549
  57   2.0000      -0.421371       -11.4661
  58   2.0000      -0.413332       -11.2473
  59   2.0000      -0.404599       -11.0097
  60   2.0000      -0.400634       -10.9018
  61   2.0000      -0.391309       -10.6480
  62   2.0000      -0.386947       -10.5294
  63   2.0000      -0.382372       -10.4049
  64   2.0000      -0.374670       -10.1953
  65   2.0000      -0.289164        -7.8685
  66   0.0000      -0.105073        -2.8592
  67   0.0000       0.006359         0.1730
  68   0.0000       0.028274         0.7694
  69   0.0000       0.031310         0.8520
  70   0.0000       0.039485         1.0744

MULLIKEN ATOMIC CHARGES
-----------------------
   0 O :   -0.681691
   1 O :   -0.668640
   2 O :   -0.651703
   3 O :   -0.632303
   4 N :   -0.293829
   5 N :   -0.304927
   6 N :    0.081280
   7 N :    0.055982
   8 C :    0.272768
   9 C :    0.266390
  10 C :    0.026320
  11 C :    0.653473
  12 C :   -1.252418
  13 C :   -1.233098
  14 C :    0.384054
  15 C :    0.155252
  16 C :    0.415805
  17 C :    0.350548
  18 H :    0.639820
  19 H :    0.503754
  20 H :    0.319785
  21 H :    0.207558
  22 H :    0.313338
  23 H :    0.328766
  24 H :    0.229547
  25 H :    0.325736
  26 H :    0.064432
  27 H :    0.064796
  28 H :    0.027126
  29 H :    0.032079
Sum of atomic charges:   -0.0000000

LOEWDIN ATOMIC CHARGES
----------------------
   0 O :    0.090780
   1 O :    0.103202
   2 O :    0.094875
   3 O :    0.105724
   4 N :    0.265027
   5 N :    0.272598
   6 N :    0.320594
   7 N :    0.330010
   8 C :    0.017861
   9 C :   -0.002307
  10 C :   -0.066793
  11 C :   -0.097009
  12 C :    0.177564
  13 C :    0.190098
  14 C :   -0.421650
  15 C :   -0.406481
  16 C :   -0.495927
  17 C :   -0.485335
  18 H :    0.028002
  19 H :    0.044257
  20 H :   -0.000911
  21 H :   -0.008968
  22 H :    0.008739
  23 H :    0.017319
  24 H :   -0.011244
  25 H :    0.003196
  26 H :   -0.028995
  27 H :   -0.027996
  28 H :   -0.010486
  29 H :   -0.005746

  Mayer bond orders larger than 0.100000
B(  0-O , 14-C ) :   1.3202 B(  1-O , 15-C ) :   1.4093 B(  2-O , 16-C ) :   1.5177
B(  3-O , 17-C ) :   1.5450 B(  4-N ,  5-N ) :   0.1165 B(  4-N ,  8-C ) :   0.2951
B(  4-N , 10-C ) :   0.3042 B(  4-N , 16-C ) :   1.0313 B(  4-N , 26-H ) :   1.0938
B(  5-N ,  9-C ) :   0.3851 B(  5-N , 17-C ) :   1.1501 B(  5-N , 27-H ) :   1.0673
B(  6-N ,  8-C ) :  -0.1504 B(  6-N , 10-C ) :   0.1116 B(  6-N , 14-C ) :   1.0972
B(  6-N , 16-C ) :   0.9589 B(  6-N , 28-H ) :   1.0984 B(  7-N , 11-C ) :   0.1350
B(  7-N , 15-C ) :   1.0116 B(  7-N , 17-C ) :   0.9484 B(  7-N , 29-H ) :   1.0871
B(  8-C ,  9-C ) :   0.5927 B(  8-C , 11-C ) :  -0.1198 B(  8-C , 12-C ) :   0.6298
B(  8-C , 14-C ) :   0.7530 B(  8-C , 15-C ) :   0.1149 B(  8-C , 16-C ) :   0.1055
B(  8-C , 18-H ) :  -0.1700 B(  8-C , 20-H ) :  -0.1110 B(  9-C , 10-C ) :   0.2598
B(  9-C , 13-C ) :   0.5997 B(  9-C , 14-C ) :   0.1293 B(  9-C , 15-C ) :   0.8089
B(  9-C , 25-H ) :  -0.1016 B( 10-C , 11-C ) :   0.6830 B( 10-C , 16-C ) :  -0.1150
B( 10-C , 18-H ) :   0.6724 B( 11-C , 13-C ) :  -0.1020 B( 11-C , 15-C ) :  -0.2272
B( 11-C , 17-C ) :  -0.2114 B( 11-C , 19-H ) :   0.8567 B( 12-C , 20-H ) :   0.9863
B( 12-C , 21-H ) :   0.9141 B( 12-C , 22-H ) :   0.9452 B( 13-C , 23-H ) :   0.9117
B( 13-C , 24-H ) :   0.9045 B( 13-C , 25-H ) :   0.9795

Dispersion correction           -0.058709533
FINAL SINGLE POINT ENERGY      -908.783348287405

DIPOLE MOMENT
-------------

Method             : SCF
Type of density    : Electron Density
Multiplicity       :   1
Irrep              :   0
Energy             :  -908.7246387545092148 Eh
Relativity type    :
Basis              : AO
                                X                 Y                 Z
Electronic contribution:     -2.841473995     -10.261957560      -7.435529167
Nuclear contribution   :      2.381497185      11.893274994      10.180450907
                        -----------------------------------------
Total Dipole Moment    :     -0.459976811       1.631317433       2.744921740
                        -----------------------------------------
Magnitude (a.u.)       :      3.226045659
Magnitude (Debye)      :      8.199956404

Rotational constants in cm-1:             0.019031             0.015354             0.012380
Rotational constants in MHz :           570.543141           460.314160           371.157830

                             ****ORCA TERMINATED NORMALLY****
TOTAL RUN TIME: 0 days 1 hours 3 minutes 10 seconds 897 msec
