                         Program Version 6.0.0  -   RELEASE  -
|  1> ! Engrad def2-TZVPPD wB97M-D3BJ
|  2> %pal nprocs 8 end%pal nprocs 64 end
|  3> %tddft
|  4>  Iroot 1 Nroots 3
|  5> sf true
|  6> end
|  7> *xyz 0 3
|  8> O   0.43164089 1.13338093 0.68159112
|  9> C   0.39523385 -0.27974594 0.42109677
| 10> C   0.38775384 -0.74014243 -0.97095999
| 11> H   -0.4148222 -0.6602794 1.0533028
| 12> H   1.40377963 -0.70342788 0.8451286
| 13> H   -0.48447841 -1.27079737 -1.3403996
| 14> H   1.0886493 -0.35765935 -1.66376177
| 15> *
| 16>
| 17>                          ****END OF INPUT****

CARTESIAN COORDINATES (ANGSTROEM)
---------------------------------
  O      0.431641    1.133381    0.681591
  C      0.395234   -0.279746    0.421097
  C      0.387754   -0.740142   -0.970960
  H     -0.414822   -0.660279    1.053303
  H      1.403780   -0.703428    0.845129
  H     -0.484478   -1.270797   -1.340400
  H      1.088649   -0.357659   -1.663762

 Total Charge           Charge          ....    0
 Multiplicity           Mult            ....    3
 Number of Electrons    NEL             ....   24
 Basis Dimension        Dim             ....  182

ORBITAL ENERGIES
----------------
                 SPIN UP ORBITALS
  NO   OCC          E(Eh)            E(eV)
   0   1.0000     -19.390868      -527.6523
   1   1.0000     -10.419478      -283.5284
   2   1.0000     -10.369989      -282.1818
   3   1.0000      -1.144778       -31.1510
   4   1.0000      -0.886522       -24.1235
   5   1.0000      -0.730624       -19.8813
   6   1.0000      -0.612454       -16.6657
   7   1.0000      -0.567723       -15.4485
   8   1.0000      -0.554974       -15.1016
   9   1.0000      -0.519775       -14.1438
  10   1.0000      -0.440932       -11.9984
  11   1.0000      -0.416452       -11.3322
  12   1.0000      -0.330787        -9.0012
  13   0.0000       0.041332         1.1247
  14   0.0000       0.061503         1.6736
  15   0.0000       0.077118         2.0985
  16   0.0000       0.087949         2.3932
  17   0.0000       0.113778         3.0961

                 SPIN DOWN ORBITALS
  NO   OCC          E(Eh)            E(eV)
   0   1.0000     -19.365910      -526.9732
   1   1.0000     -10.421017      -283.5703
   2   1.0000     -10.356931      -281.8264
   3   1.0000      -1.086462       -29.5641
   4   1.0000      -0.853833       -23.2340
   5   1.0000      -0.706158       -19.2155
   6   1.0000      -0.588492       -16.0137
   7   1.0000      -0.536661       -14.6033
   8   1.0000      -0.522925       -14.2295
   9   1.0000      -0.486284       -13.2325
  10   1.0000      -0.386041       -10.5047
  11   0.0000      -0.051617        -1.4046
  12   0.0000      -0.008736        -0.2377
  13   0.0000       0.040760         1.1091
  14   0.0000       0.061695         1.6788
  15   0.0000       0.077163         2.0997

----------------------------------------------------------------------------------------------------
          SPIN FLIP ABSORPTION SPECTRUM VIA TRANSITION ELECTRIC DIPOLE MOMENTS
----------------------------------------------------------------------------------------------------
     Transition      Energy     Energy  Wavelength fosc(D2)      D2        DX        DY        DZ
                      (eV)      (cm-1)    (nm)                 (au**2)    (au)      (au)      (au)
----------------------------------------------------------------------------------------------------
  1-3A  ->  2-3A    0.133642    1077.9  9277.3   0.000202725   0.06192   0.07129   0.15194   0.18371
  1-3A  ->  3-3A    0.837137    6752.0  1481.0   0.008069524   0.39345   0.01258   0.52518   0.34276

Dispersion correction             ... done (  0.1 sec)

MULLIKEN ATOMIC CHARGES AND SPIN DENSITIES
------------------------------------------
   0 O :   -0.362796    0.172454
   1 C :   -0.064871    0.023032
   2 C :   -0.355861   -0.209465
   3 H :    0.219347    0.009462
   4 H :    0.198527    0.051291
   5 H :    0.150730   -0.017137
   6 H :    0.214924   -0.029637
Sum of atomic charges       :    0.0000000

LOEWDIN ATOMIC CHARGES AND SPIN DENSITIES
-----------------------------------------
   0 O :   -0.026564    0.147652
   1 C :   -0.243634    0.014376
   2 C :    0.296217   -0.155563
   3 H :    0.026069    0.008518
   4 H :    0.072579    0.029345
   5 H :   -0.052383   -0.022554
   6 H :   -0.072285   -0.021773

  Mayer bond orders larger than 0.100000
B(  0-O ,  1-C ) :   0.9114 B(  0-O ,  2-C ) :   0.1945 B(  1-C ,  2-C ) :   0.8255
B(  1-C ,  3-H ) :   0.9512 B(  1-C ,  4-H ) :   0.9399 B(  2-C ,  5-H ) :   1.0191
B(  2-C ,  6-H ) :   0.9909

Dispersion correction           -0.005469264
FINAL SINGLE POINT ENERGY      -153.748961086238

DIPOLE MOMENT
-------------

Method             : TDA/CIS
Type of density    : Electron Density
Level              : Relaxed density
State              :   1
Multiplicity       :   3
Irrep              :   0
Energy             :     0.0000000000000000 Eh
Relativity type    :
Basis              : AO
                                X                 Y                 Z
Electronic contribution:     -0.063062540       2.099481702       1.019748695
Nuclear contribution   :     -0.031204526      -3.035605366      -1.299744536
                        -----------------------------------------
Total Dipole Moment    :     -0.094267065      -0.936123665      -0.279995841
                        -----------------------------------------
Magnitude (a.u.)       :      0.981637136
Magnitude (Debye)      :      2.495123308

Rotational constants in cm-1:             1.490998             0.322941             0.291765
Rotational constants in MHz :         44698.999372          9681.526322          8746.895174

                             ****ORCA TERMINATED NORMALLY****
TOTAL RUN TIME: 0 days 0 hours 0 minutes 26 seconds 39 msec
