                         Program Version 6.0.0  -   RELEASE  -
|  1> ! opt def2-TZVPPD wB97M-D3BJ
|  2> %pal nprocs 24 end%geom Constraints
|  3> {B 9 8 3.0 C}
|  4> {A 8 9 11 34.0 C}
|  5>  end
|  6>  end
|  7> *xyz 0 1
|  8> O   2.98579685529314 0.88758230159078 -0.86184571092411
|  9> O   -0.03983205397054 0.68929041702508 -2.10362336723772
| 10> O   0.93431434349854 -3.13274393337945 -0.68767288184107
| 11> O   -3.75829998830163 -0.84727300865116 -0.0472717177755
| 12> N   0.21184538946282 -1.54604804365365 0.7617588924445
| 13> N   -2.13631993928911 0.03188773433438 1.27350571071531
| 14> N   2.02598672506387 -1.14318467211666 -0.64531219127023
| 15> N   -1.91814233924584 0.03137116037665 -1.04498946748291
| 16> C   1.18097737274226 0.71693507080484 0.70173889017321
| 17> C   -0.20686880480777 1.27024627933494 0.21345042231937
| 18> C   0.41441080275909 -0.34173258966541 1.52336266615173
| 19> C   -0.82922175114212 0.58960593673968 1.44434972027296
| 20> C   1.92822011286806 1.69488653817281 1.5963734975385
| 21> C   -0.37809776891576 2.77134929626422 0.04819649358288
| 22> C   2.1403947470937 0.1972384729179 -0.35038567829864
| 23> C   -0.67361678962426 0.6214190571346 -1.0793014500539
| 24> C   1.04142578622994 -2.02697492875068 -0.21027082435993
| 25> C   -2.68467002550422 -0.30396816036989 0.07167054343891
| 26> H   0.80817443950001 -0.54572267081061 2.51895215321335
| 27> H   -0.83785272399001 1.27240685039143 2.28901317073582
| 28> H   2.31167340578204 2.52284411740894 1.00913016264629
| 29> H   1.28982602448342 2.08257620823614 2.38710022492991
| 30> H   2.77390820759972 1.19140411795486 2.06045858523949
| 31> H   -1.41857211141493 3.00964947214868 -0.16882755561625
| 32> H   -0.09065531563179 3.29799318042223 0.95389844358819
| 33> H   0.23426221611057 3.12492645074476 -0.77764887675592
| 34> H   -0.46772570547622 -2.21560145172536 1.0787081584806
| 35> H   -2.71769301149571 -0.17090724573546 2.06627440900372
| 36> H   2.60065167263658 -1.49057255715425 -1.3966820077142
| 37> H   -2.27169977231386 -0.32388339999036 -1.91951041514436
| 38> *
| 39>
| 40>                          ****END OF INPUT****
 Total Charge           Charge          ....    0
 Multiplicity           Mult            ....    1
 Number of Electrons    NEL             ....  132
Dispersion correction           -0.053956067
FINAL SINGLE POINT ENERGY      -908.456481074146
Dispersion correction             ... done (  0.1 sec)
Dispersion correction           -0.053822699
FINAL SINGLE POINT ENERGY      -908.542286049509
Dispersion correction             ... done (  0.0 sec)
Dispersion correction           -0.053702035
FINAL SINGLE POINT ENERGY      -908.593955849827
Dispersion correction             ... done (  0.0 sec)
FINAL SINGLE POINT ENERGY      -908.639819861711
FINAL SINGLE POINT ENERGY      -908.676514274529
FINAL SINGLE POINT ENERGY      -908.695624214397
FINAL SINGLE POINT ENERGY      -908.705208507738
FINAL SINGLE POINT ENERGY      -908.714891316688
FINAL SINGLE POINT ENERGY      -908.720251182719
FINAL SINGLE POINT ENERGY      -908.724819308601
FINAL SINGLE POINT ENERGY      -908.747958811334
FINAL SINGLE POINT ENERGY      -908.748375843678
FINAL SINGLE POINT ENERGY      -908.748518033333
FINAL SINGLE POINT ENERGY      -908.748688434616
FINAL SINGLE POINT ENERGY      -908.748764341659
FINAL SINGLE POINT ENERGY      -908.748792720532
FINAL SINGLE POINT ENERGY      -908.748810165462
Dispersion correction             ... done (  0.0 sec)
Dispersion correction           -0.058301951
FINAL SINGLE POINT ENERGY      -908.748815694272
Dispersion correction             ... done (  0.0 sec)
Dispersion correction           -0.058283073
FINAL SINGLE POINT ENERGY      -908.748818356929
Dispersion correction             ... done (  0.1 sec)
                    ***********************HURRAY********************

CARTESIAN COORDINATES (ANGSTROEM)
---------------------------------
  O      2.251542   -0.183879   -1.180022
  O     -0.194109    2.733708   -2.294531
  O      0.247961   -3.767187    0.696037
  O     -2.205492   -1.108368   -1.328042
  N      0.382653   -1.880569    1.950328
  N     -1.393027   -0.147058    0.545553
  N      1.069733   -1.881162   -0.272019
  N     -0.831759    0.660131   -1.617974
  C      1.267593    0.223774    0.938766
  C     -0.238191    2.595726   -0.113116
  C      0.579030   -0.476178    2.062316
  C     -0.357476    0.449711    1.298599
  C      2.216588    1.344930    1.239432
  C     -1.427186    3.324859    0.368009
  C      1.579402   -0.594996   -0.266261
  C     -0.441872    1.958158   -1.379154
  C      0.534518   -2.598403    0.796431
  C     -1.521757   -0.250615   -0.820642
  H      0.853002   -0.168413    3.060918
  H     -0.543324    1.399650    1.773769
  H      2.388035    1.945585    0.355281
  H      1.814112    1.987989    2.018359
  H      3.164544    0.929817    1.581892
  H     -2.375119    2.784890    0.288672
  H     -1.301332    3.762788    1.354240
  H     -1.486714    4.151398   -0.354128
  H     -0.035902   -2.390950    2.706776
  H     -1.888680   -0.903261    0.992274
  H      1.254553   -2.432424   -1.095392
  H     -0.908726    0.445349   -2.601771

 Multiplicity           Mult            ....    1
 Number of Electrons    NEL             ....  132
 Basis Dimension        Dim             ....  882

ORBITAL ENERGIES
----------------

  NO   OCC          E(Eh)            E(eV)
   0   2.0000     -19.334731      -526.1248
   1   2.0000     -19.334387      -526.1154
   2   2.0000     -19.325545      -525.8748
   3   2.0000     -19.323348      -525.8150
   4   2.0000     -14.570070      -396.4718
   5   2.0000     -14.569444      -396.4547
   6   2.0000     -14.568655      -396.4332
   7   2.0000     -14.568617      -396.4322
   8   2.0000     -10.513156      -286.0775
   9   2.0000     -10.510849      -286.0148
  10   2.0000     -10.490174      -285.4522
  11   2.0000     -10.479541      -285.1628
  12   2.0000     -10.445167      -284.2275
  13   2.0000     -10.443559      -284.1837
  14   2.0000     -10.420871      -283.5663
  15   2.0000     -10.416711      -283.4531
  16   2.0000     -10.379550      -282.4419
  17   2.0000     -10.358086      -281.8578
  18   2.0000      -1.227738       -33.4085
  19   2.0000      -1.222150       -33.2564
  20   2.0000      -1.202698       -32.7271
  21   2.0000      -1.199513       -32.6404
  22   2.0000      -1.128927       -30.7197
  23   2.0000      -1.095079       -29.7986
  24   2.0000      -1.074052       -29.2265
  25   2.0000      -1.065545       -28.9949
  26   2.0000      -1.001774       -27.2596
  27   2.0000      -0.937414       -25.5083
  28   2.0000      -0.878168       -23.8962
  29   2.0000      -0.824639       -22.4396
  30   2.0000      -0.815175       -22.1820
  31   2.0000      -0.808278       -21.9944
  32   2.0000      -0.791703       -21.5433
  33   2.0000      -0.778880       -21.1944
  34   2.0000      -0.723358       -19.6836
  35   2.0000      -0.701485       -19.0884
  36   2.0000      -0.693968       -18.8838
  37   2.0000      -0.666571       -18.1383
  38   2.0000      -0.639452       -17.4004
  39   2.0000      -0.632473       -17.2105
  40   2.0000      -0.616311       -16.7707
  41   2.0000      -0.606828       -16.5126
  42   2.0000      -0.594322       -16.1723
  43   2.0000      -0.589601       -16.0439
  44   2.0000      -0.578446       -15.7403
  45   2.0000      -0.567396       -15.4396
  46   2.0000      -0.562817       -15.3150
  47   2.0000      -0.560830       -15.2610
  48   2.0000      -0.554724       -15.0948
  49   2.0000      -0.553601       -15.0642
  50   2.0000      -0.542813       -14.7707
  51   2.0000      -0.541727       -14.7411
  52   2.0000      -0.531511       -14.4632
  53   2.0000      -0.508304       -13.8317
  54   2.0000      -0.505496       -13.7553
  55   2.0000      -0.485871       -13.2212
  56   2.0000      -0.434030       -11.8106
  57   2.0000      -0.425201       -11.5703
  58   2.0000      -0.420028       -11.4296
  59   2.0000      -0.408504       -11.1159
  60   2.0000      -0.399261       -10.8644
  61   2.0000      -0.395486       -10.7617
  62   2.0000      -0.390582       -10.6283
  63   2.0000      -0.383573       -10.4376
  64   2.0000      -0.379198       -10.3185
  65   2.0000      -0.339599        -9.2410
  66   0.0000      -0.021758        -0.5921
  67   0.0000       0.008946         0.2434
  68   0.0000       0.028369         0.7720
  69   0.0000       0.033607         0.9145
  70   0.0000       0.036185         0.9847

MULLIKEN ATOMIC CHARGES
-----------------------
   0 O :   -0.647091
   1 O :   -0.643374
   2 O :   -0.644890
   3 O :   -0.656202
   4 N :   -0.173671
   5 N :   -0.101985
   6 N :    0.013699
   7 N :    0.063906
   8 C :    1.844442
   9 C :    0.048833
  10 C :   -0.050899
  11 C :   -0.895176
  12 C :   -1.673440
  13 C :   -1.148150
  14 C :    0.024650
  15 C :    0.734232
  16 C :    0.451754
  17 C :    0.525028
  18 H :    0.273411
  19 H :    0.411568
  20 H :    0.316267
  21 H :    0.326330
  22 H :    0.445283
  23 H :    0.306446
  24 H :    0.297210
  25 H :    0.367209
  26 H :    0.031234
  27 H :    0.100409
  28 H :    0.033519
  29 H :    0.019448
Sum of atomic charges:    0.0000000

LOEWDIN ATOMIC CHARGES
----------------------
   0 O :    0.119085
   1 O :    0.096759
   2 O :    0.096836
   3 O :    0.097604
   4 N :    0.287617
   5 N :    0.275052
   6 N :    0.343035
   7 N :    0.337222
   8 C :   -0.164168
   9 C :    0.142705
  10 C :   -0.072480
  11 C :   -0.027120
  12 C :    0.183834
  13 C :    0.108376
  14 C :   -0.381281
  15 C :   -0.507245
  16 C :   -0.476590
  17 C :   -0.475384
  18 H :    0.056385
  19 H :    0.008695
  20 H :   -0.010409
  21 H :    0.001783
  22 H :    0.010334
  23 H :    0.003357
  24 H :   -0.015416
  25 H :    0.020998
  26 H :   -0.025277
  27 H :   -0.025664
  28 H :   -0.003978
  29 H :   -0.004667

  Mayer bond orders larger than 0.100000
B(  0-O ,  8-C ) :  -0.1562 B(  0-O , 14-C ) :   1.6047 B(  1-O ,  9-C ) :   0.2277
B(  1-O , 15-C ) :   1.2224 B(  2-O , 16-C ) :   1.5741 B(  3-O , 17-C ) :   1.4865
B(  4-N ,  8-C ) :   0.1032 B(  4-N , 10-C ) :   0.6190 B(  4-N , 16-C ) :   1.0944
B(  4-N , 26-H ) :   1.1272 B(  5-N , 11-C ) :   0.6566 B(  5-N , 17-C ) :   0.9541
B(  5-N , 19-H ) :  -0.1335 B(  5-N , 27-H ) :   1.0419 B(  6-N , 10-C ) :   0.1150
B(  6-N , 14-C ) :   1.0717 B(  6-N , 16-C ) :   0.9375 B(  6-N , 28-H ) :   1.1103
B(  7-N , 15-C ) :   0.9533 B(  7-N , 17-C ) :   0.9708 B(  7-N , 29-H ) :   1.1075
B(  8-C , 10-C ) :   0.6150 B(  8-C , 11-C ) :   0.2155 B(  8-C , 14-C ) :   0.2417
B(  8-C , 20-H ) :  -0.1050 B(  8-C , 21-H ) :  -0.1305 B(  9-C , 12-C ) :  -0.1604
B(  9-C , 13-C ) :   0.5572 B(  9-C , 15-C ) :   0.7793 B( 10-C , 11-C ) :   0.7103
B( 10-C , 12-C ) :  -0.1356 B( 10-C , 14-C ) :  -0.1151 B( 10-C , 16-C ) :  -0.1109
B( 10-C , 18-H ) :   1.1014 B( 11-C , 19-H ) :   1.0492 B( 12-C , 20-H ) :   1.0600
B( 12-C , 21-H ) :   1.0683 B( 12-C , 22-H ) :   0.7173 B( 13-C , 23-H ) :   0.9646
B( 13-C , 24-H ) :   1.0462 B( 13-C , 25-H ) :   0.8659

Dispersion correction           -0.058272954
FINAL SINGLE POINT ENERGY      -908.748819972294

DIPOLE MOMENT
-------------

Method             : SCF
Type of density    : Electron Density
Multiplicity       :   1
Irrep              :   0
Energy             :  -908.6905470184392470 Eh
Relativity type    :
Basis              : AO
                                X                 Y                 Z
Electronic contribution:     -0.454909380      -9.852280510      -6.672048901
Nuclear contribution   :      0.063201266      10.717796286       9.288525771
                        -----------------------------------------
Total Dipole Moment    :     -0.391708114       0.865515776       2.616476870
                        -----------------------------------------
Magnitude (a.u.)       :      2.783613482
Magnitude (Debye)      :      7.075383182

Rotational constants in cm-1:             0.022769             0.012884             0.011646
Rotational constants in MHz :           682.594714           386.246709           349.151832

                             ****ORCA TERMINATED NORMALLY****
TOTAL RUN TIME: 0 days 2 hours 33 minutes 10 seconds 437 msec
