                         Program Version 6.0.0  -   RELEASE  -
|  1> ! EnGrad wB97M-D3BJ def2-TZVPPD
|  2> %pal nprocs 8 end%pal nprocs 16 end
|  3> %tddft
|  4>  sf true
|  5>  nroots 2 Iroot 1 end
|  6> *xyz 0 3
|  7> O   0.43424964728317 1.06548698379228 -0.00288407230467
|  8> C   0.61246255796275 -0.26143470704846 -0.00059225610357
|  9> C   -0.74622246709195 -0.74170265959939 0.00076146203684
| 10> H   1.1623965625154 -0.62580464811253 0.88104369104539
| 11> H   1.1622799793634 -0.62893278513108 -0.88097068869237
| 12> H   -1.31229923496139 -0.76514013802677 -0.92138725121287
| 13> H   -1.31066704507137 -0.76087204587405 0.92402911523125
| 14> *
| 15>
| 16>                          ****END OF INPUT****

CARTESIAN COORDINATES (ANGSTROEM)
---------------------------------
  O      0.434250    1.065487   -0.002884
  C      0.612463   -0.261435   -0.000592
  C     -0.746222   -0.741703    0.000761
  H      1.162397   -0.625805    0.881044
  H      1.162280   -0.628933   -0.880971
  H     -1.312299   -0.765140   -0.921387
  H     -1.310667   -0.760872    0.924029

 Total Charge           Charge          ....    0
 Multiplicity           Mult            ....    3
 Number of Electrons    NEL             ....   24
 Basis Dimension        Dim             ....  182

ORBITAL ENERGIES
----------------
                 SPIN UP ORBITALS
  NO   OCC          E(Eh)            E(eV)
   0   1.0000     -19.395523      -527.7790
   1   1.0000     -10.407142      -283.1927
   2   1.0000     -10.351211      -281.6708
   3   1.0000      -1.193207       -32.4688
   4   1.0000      -0.875093       -23.8125
   5   1.0000      -0.735390       -20.0110
   6   1.0000      -0.634802       -17.2738
   7   1.0000      -0.594064       -16.1653
   8   1.0000      -0.555715       -15.1218
   9   1.0000      -0.514796       -14.0083
  10   1.0000      -0.439155       -11.9500
  11   1.0000      -0.423383       -11.5208
  12   1.0000      -0.310378        -8.4458
  13   0.0000       0.041168         1.1202
  14   0.0000       0.063312         1.7228
  15   0.0000       0.073806         2.0084
  16   0.0000       0.086992         2.3672
  17   0.0000       0.117260         3.1908

                 SPIN DOWN ORBITALS
  NO   OCC          E(Eh)            E(eV)
   0   1.0000     -19.369705      -527.0765
   1   1.0000     -10.408459      -283.2286
   2   1.0000     -10.338370      -281.3214
   3   1.0000      -1.136933       -30.9375
   4   1.0000      -0.841400       -22.8956
   5   1.0000      -0.711687       -19.3660
   6   1.0000      -0.595887       -16.2149
   7   1.0000      -0.560810       -15.2604
   8   1.0000      -0.533775       -14.5248
   9   1.0000      -0.477663       -12.9979
  10   1.0000      -0.383994       -10.4490
  11   0.0000      -0.065660        -1.7867
  12   0.0000       0.010100         0.2748
  13   0.0000       0.040065         1.0902
  14   0.0000       0.063995         1.7414
  15   0.0000       0.073296         1.9945

----------------------------------------------------------------------------------------------------
          SPIN FLIP ABSORPTION SPECTRUM VIA TRANSITION ELECTRIC DIPOLE MOMENTS
----------------------------------------------------------------------------------------------------
     Transition      Energy     Energy  Wavelength fosc(D2)      D2        DX        DY        DZ
                      (eV)      (cm-1)    (nm)                 (au**2)    (au)      (au)      (au)
----------------------------------------------------------------------------------------------------
  1-3A  ->  2-3A    1.091419    8802.9  1136.0   0.000177489   0.00664   0.00010   0.00024   0.08147

Dispersion correction             ... done (  0.0 sec)

MULLIKEN ATOMIC CHARGES AND SPIN DENSITIES
------------------------------------------
   0 O :   -0.523105   -0.382249
   1 C :   -0.119969   -0.044876
   2 C :   -0.304254    0.273465
   3 H :    0.227654    0.041004
   4 H :    0.227726    0.040891
   5 H :    0.245986    0.035843
   6 H :    0.245963    0.035922
Sum of atomic charges       :   -0.0000000

LOEWDIN ATOMIC CHARGES AND SPIN DENSITIES
-----------------------------------------
   0 O :   -0.047318   -0.390338
   1 C :   -0.389871    0.020882
   2 C :    0.394349    0.289979
   3 H :    0.027827    0.007656
   4 H :    0.027819    0.007613
   5 H :   -0.006402    0.032102
   6 H :   -0.006404    0.032106

  Mayer bond orders larger than 0.100000
B(  0-O ,  1-C ) :   0.8025 B(  0-O ,  2-C ) :   0.7071 B(  1-C ,  2-C ) :   0.7608
B(  1-C ,  3-H ) :   1.0189 B(  1-C ,  4-H ) :   1.0187 B(  2-C ,  5-H ) :   0.9424
B(  2-C ,  6-H ) :   0.9426

Dispersion correction           -0.005645131
FINAL SINGLE POINT ENERGY      -153.780619779996

DIPOLE MOMENT
-------------

Method             : TDA/CIS
Type of density    : Electron Density
Level              : Relaxed density
State              :   1
Multiplicity       :   3
Irrep              :   0
Energy             :     0.0000000000000000 Eh
Relativity type    :
Basis              : AO
                                X                 Y                 Z
Electronic contribution:      0.106263491       1.308732190      -0.003129664
Nuclear contribution   :     -0.704481503      -2.780800494       0.006042697
                        -----------------------------------------
Total Dipole Moment    :     -0.598218011      -1.472068304       0.002913033
                        -----------------------------------------
Magnitude (a.u.)       :      1.588980291
Magnitude (Debye)      :      4.038866926

Rotational constants in cm-1:             1.210733             0.422355             0.356590
Rotational constants in MHz :         36296.868551         12661.870622         10690.290392

                             ****ORCA TERMINATED NORMALLY****
TOTAL RUN TIME: 0 days 0 hours 0 minutes 16 seconds 594 msec
