                         Program Version 6.0.0  -   RELEASE  -
|  1> ! Engrad def2-TZVPPD wB97M-D3BJ
|  2> %pal nprocs 8 end%pal nprocs 64 end
|  3> %tddft
|  4>  Iroot 1 Nroots 3
|  5> sf true
|  6> end
|  7> *xyz 0 3
|  8> O   0.97337856 1.01200832 0.20615474
|  9> C   0.7804323 -0.31397095 -0.00246194
| 10> C   -0.6489659 -0.59797587 0.0059296
| 11> H   1.32669987 -0.88938423 0.75873739
| 12> H   1.2513366 -0.61530009 -0.93900186
| 13> H   -1.17417878 -0.87439848 -0.8753996
| 14> H   -1.21811734 -0.2211954 0.83214081
| 15> *
| 16>
| 17>                          ****END OF INPUT****

CARTESIAN COORDINATES (ANGSTROEM)
---------------------------------
  O      0.973379    1.012008    0.206155
  C      0.780432   -0.313971   -0.002462
  C     -0.648966   -0.597976    0.005930
  H      1.326700   -0.889384    0.758737
  H      1.251337   -0.615300   -0.939002
  H     -1.174179   -0.874398   -0.875400
  H     -1.218117   -0.221195    0.832141

 Total Charge           Charge          ....    0
 Multiplicity           Mult            ....    3
 Number of Electrons    NEL             ....   24
 Basis Dimension        Dim             ....  182

ORBITAL ENERGIES
----------------
                 SPIN UP ORBITALS
  NO   OCC          E(Eh)            E(eV)
   0   1.0000     -19.388742      -527.5945
   1   1.0000     -10.407729      -283.2087
   2   1.0000     -10.358046      -281.8568
   3   1.0000      -1.176954       -32.0266
   4   1.0000      -0.879142       -23.9227
   5   1.0000      -0.739896       -20.1336
   6   1.0000      -0.623899       -16.9772
   7   1.0000      -0.591343       -16.0913
   8   1.0000      -0.556007       -15.1297
   9   1.0000      -0.517557       -14.0834
  10   1.0000      -0.438116       -11.9217
  11   1.0000      -0.417843       -11.3701
  12   1.0000      -0.323630        -8.8064
  13   0.0000       0.041740         1.1358
  14   0.0000       0.062470         1.6999
  15   0.0000       0.076947         2.0938
  16   0.0000       0.087602         2.3838
  17   0.0000       0.114537         3.1167

                 SPIN DOWN ORBITALS
  NO   OCC          E(Eh)            E(eV)
   0   1.0000     -19.364266      -526.9285
   1   1.0000     -10.409025      -283.2440
   2   1.0000     -10.345023      -281.5024
   3   1.0000      -1.122693       -30.5500
   4   1.0000      -0.845472       -23.0065
   5   1.0000      -0.714413       -19.4402
   6   1.0000      -0.593212       -16.1421
   7   1.0000      -0.552581       -15.0365
   8   1.0000      -0.532074       -14.4785
   9   1.0000      -0.488344       -13.2885
  10   1.0000      -0.384086       -10.4515
  11   0.0000      -0.057028        -1.5518
  12   0.0000       0.000284         0.0077
  13   0.0000       0.040569         1.1039
  14   0.0000       0.062797         1.7088
  15   0.0000       0.076747         2.0884

----------------------------------------------------------------------------------------------------
          SPIN FLIP ABSORPTION SPECTRUM VIA TRANSITION ELECTRIC DIPOLE MOMENTS
----------------------------------------------------------------------------------------------------
     Transition      Energy     Energy  Wavelength fosc(D2)      D2        DX        DY        DZ
                      (eV)      (cm-1)    (nm)                 (au**2)    (au)      (au)      (au)
----------------------------------------------------------------------------------------------------
  1-3A  ->  2-3A    0.409064    3299.3  3030.9   0.000049438   0.00493   0.00162  -0.02610  -0.06519
  1-3A  ->  3-3A    1.249912   10081.2   991.9   0.002149237   0.07019   0.02229   0.25397   0.07202

Dispersion correction             ... done (  0.2 sec)

MULLIKEN ATOMIC CHARGES AND SPIN DENSITIES
------------------------------------------
   0 O :   -0.475654   -0.518625
   1 C :   -0.037286   -0.034365
   2 C :   -0.436975    0.429580
   3 H :    0.217659    0.076190
   4 H :    0.213623   -0.041908
   5 H :    0.224491    0.044634
   6 H :    0.294141    0.044494
Sum of atomic charges       :    0.0000000

LOEWDIN ATOMIC CHARGES AND SPIN DENSITIES
-----------------------------------------
   0 O :   -0.036487   -0.516224
   1 C :   -0.338393    0.016381
   2 C :    0.386552    0.410739
   3 H :    0.030029    0.027834
   4 H :    0.019441   -0.040620
   5 H :   -0.033283    0.051583
   6 H :   -0.027859    0.050307

  Mayer bond orders larger than 0.100000
B(  0-O ,  1-C ) :   0.8859 B(  0-O ,  2-C ) :   0.4923 B(  1-C ,  2-C ) :   0.7785
B(  1-C ,  3-H ) :   0.9990 B(  1-C ,  4-H ) :   0.9894 B(  2-C ,  5-H ) :   0.9552
B(  2-C ,  6-H ) :   0.9341

Dispersion correction           -0.005586278
FINAL SINGLE POINT ENERGY      -153.765144719505

DIPOLE MOMENT
-------------

Method             : TDA/CIS
Type of density    : Electron Density
Level              : Relaxed density
State              :   1
Multiplicity       :   3
Irrep              :   0
Energy             :     0.0000000000000000 Eh
Relativity type    :
Basis              : AO
                                X                 Y                 Z
Electronic contribution:      0.553880899       1.406701851       0.274489086
Nuclear contribution   :     -1.294241083      -2.648333374      -0.473022495
                        -----------------------------------------
Total Dipole Moment    :     -0.740360183      -1.241631522      -0.198533409
                        -----------------------------------------
Magnitude (a.u.)       :      1.459177012
Magnitude (Debye)      :      3.708933211

Rotational constants in cm-1:             1.349619             0.380796             0.328309
Rotational constants in MHz :         40460.567389         11415.984617          9842.458384

                             ****ORCA TERMINATED NORMALLY****
TOTAL RUN TIME: 0 days 0 hours 0 minutes 27 seconds 617 msec
