                         Program Version 6.0.0  -   RELEASE  -
|  1> ! Opt wB97M-D3BJ def2-TZVPPD
|  2> %pal nprocs 8 end %pal nprocs 64 end
|  3> %geom
|  4> Constraints
|  5>     {A 2 1 0 69.0909090909091 C }
|  6> end
|  7> MaxIter 500
|  8> end
|  9> *xyz 0 1
| 10> O   -0.0007 0.8141 0.0
| 11> C   0.7509 -0.4065 0.0
| 12> C   -0.7502 -0.4076 0.0
| 13> H   1.2625 -0.6786 0.9136
| 14> H   1.2625 -0.6787 -0.9136
| 15> H   -1.2614 -0.6806 -0.9136
| 16> H   -1.2614 -0.6805 0.9136
| 17> *
| 18>
| 19>                          ****END OF INPUT****
 Total Charge           Charge          ....    0
 Multiplicity           Mult            ....    1
 Number of Electrons    NEL             ....   24
Dispersion correction           -0.005255867
FINAL SINGLE POINT ENERGY      -153.873818936763
Dispersion correction             ... done (  0.2 sec)
Dispersion correction           -0.005240719
FINAL SINGLE POINT ENERGY      -153.876985144094
Dispersion correction             ... done (  0.1 sec)
Dispersion correction           -0.005236165
FINAL SINGLE POINT ENERGY      -153.877782943454
Dispersion correction             ... done (  0.1 sec)
FINAL SINGLE POINT ENERGY      -153.877884333978
Dispersion correction             ... done (  0.1 sec)
Dispersion correction           -0.005237222
FINAL SINGLE POINT ENERGY      -153.877932913638
Dispersion correction             ... done (  0.2 sec)
Dispersion correction           -0.005238069
FINAL SINGLE POINT ENERGY      -153.877937392417
Dispersion correction             ... done (  0.1 sec)
                    ***********************HURRAY********************

CARTESIAN COORDINATES (ANGSTROEM)
---------------------------------
  O      0.085593    0.838905   -0.000104
  C      0.690446   -0.393005    0.000148
  C     -0.727972   -0.523126   -0.000198
  H      1.238887   -0.653143    0.903981
  H      1.238561   -0.653483   -0.903848
  H     -1.261911   -0.667524   -0.925034
  H     -1.261403   -0.667024    0.925056

 Multiplicity           Mult            ....    1
 Number of Electrons    NEL             ....   24
 Basis Dimension        Dim             ....  182

ORBITAL ENERGIES
----------------

  NO   OCC          E(Eh)            E(eV)
   0   2.0000     -19.348925      -526.5110
   1   2.0000     -10.405089      -283.1369
   2   2.0000     -10.396917      -282.9145
   3   2.0000      -1.187413       -32.3112
   4   2.0000      -0.824797       -22.4439
   5   2.0000      -0.746939       -20.3253
   6   2.0000      -0.629582       -17.1318
   7   2.0000      -0.592352       -16.1187
   8   2.0000      -0.497637       -13.5414
   9   2.0000      -0.492472       -13.4008
  10   2.0000      -0.424584       -11.5535
  11   2.0000      -0.380835       -10.3631
  12   0.0000       0.041023         1.1163
  13   0.0000       0.058164         1.5827
  14   0.0000       0.069010         1.8779
  15   0.0000       0.077383         2.1057
  16   0.0000       0.112350         3.0572

MULLIKEN ATOMIC CHARGES
-----------------------
   0 O :   -0.400847
   1 C :   -0.124660
   2 C :   -0.232822
   3 H :    0.192056
   4 H :    0.191960
   5 H :    0.187162
   6 H :    0.187150
Sum of atomic charges:   -0.0000000

LOEWDIN ATOMIC CHARGES
----------------------
   0 O :   -0.029649
   1 C :   -0.152407
   2 C :    0.132636
   3 H :    0.021148
   4 H :    0.021148
   5 H :    0.003566
   6 H :    0.003558

  Mayer bond orders larger than 0.100000
B(  0-O ,  1-C ) :   0.7559 B(  0-O ,  2-C ) :   0.8817 B(  1-C ,  2-C ) :   0.8095
B(  1-C ,  3-H ) :   1.0388 B(  1-C ,  4-H ) :   1.0389 B(  2-C ,  5-H ) :   0.9934
B(  2-C ,  6-H ) :   0.9935

Dispersion correction           -0.005238572
FINAL SINGLE POINT ENERGY      -153.877938295691

DIPOLE MOMENT
-------------

Method             : SCF
Type of density    : Electron Density
Multiplicity       :   1
Irrep              :   0
Energy             :  -153.8726997238283900 Eh
Relativity type    :
Basis              : AO
                                X                 Y                 Z
Electronic contribution:      0.011231604       1.576376535      -0.000266801
Nuclear contribution   :     -0.116377789      -2.444586601       0.000324638
                        -----------------------------------------
Total Dipole Moment    :     -0.105146185      -0.868210067       0.000057837
                        -----------------------------------------
Magnitude (a.u.)       :      0.874553854
Magnitude (Debye)      :      2.222939237

Rotational constants in cm-1:             0.879909             0.695508             0.459942
Rotational constants in MHz :         26379.005690         20850.809282         13788.714287

                             ****ORCA TERMINATED NORMALLY****
TOTAL RUN TIME: 0 days 0 hours 1 minutes 34 seconds 455 msec
