                         Program Version 6.0.0  -   RELEASE  -
|  1> ! Engrad def2-TZVPPD wB97M-D3BJ
|  2> %pal nprocs 8 end%pal nprocs 64 end
|  3> %tddft
|  4>  Iroot 1 Nroots 3
|  5> sf true
|  6> end
|  7> *xyz 0 3
|  8> O   3.40344652 0.84103947 0.11163578
|  9> O   -0.79712465 0.78282187 -2.73946525
| 10> O   1.2024769 -2.95624546 -0.66873407
| 11> O   -3.69163952 -1.46312291 0.0393489
| 12> N   0.27521036 -1.43054322 0.7703812
| 13> N   -2.23467605 0.04627544 0.902647
| 14> N   1.96564757 -0.80382217 -0.57078467
| 15> N   -2.16475526 -0.35625328 -1.28308064
| 16> C   1.4721644 0.60207987 1.34542251
| 17> C   -0.59495874 1.27717735 -0.46508962
| 18> C   0.2439374 -0.20229374 1.46845235
| 19> C   -0.91727457 0.77316105 0.88850161
| 20> C   1.81378335 1.66883148 2.37445181
| 21> C   0.25846949 2.46051228 -0.58453771
| 22> C   2.36375246 0.26897132 0.22314225
| 23> C   -1.11895848 0.51884011 -1.6007498
| 24> C   1.13847331 -1.85830065 -0.2326689
| 25> C   -2.71408366 -0.6861885 -0.05868636
| 26> H   -0.06008478 -0.45468334 2.46664629
| 27> H   -1.0216151 1.60773122 1.59205212
| 28> H   1.89206324 1.38760766 3.46654627
| 29> H   2.75063882 2.19319592 2.00744492
| 30> H   1.01304216 2.3830269 2.4131905
| 31> H   -0.21360661 3.18734238 -1.36529315
| 32> H   0.26216008 3.05716668 0.28054855
| 33> H   1.32075399 2.19497925 -0.96267754
| 34> H   -0.57406852 -1.94399821 0.86087914
| 35> H   -2.6277823 -0.20382664 1.81045294
| 36> H   2.71439361 -0.91759057 -1.23942152
| 37> H   -2.54812762 -0.78207023 -2.15291048
| 38> *
| 39>
| 40>                          ****END OF INPUT****

CARTESIAN COORDINATES (ANGSTROEM)
---------------------------------
  O      3.403447    0.841039    0.111636
  O     -0.797125    0.782822   -2.739465
  O      1.202477   -2.956245   -0.668734
  O     -3.691640   -1.463123    0.039349
  N      0.275210   -1.430543    0.770381
  N     -2.234676    0.046275    0.902647
  N      1.965648   -0.803822   -0.570785
  N     -2.164755   -0.356253   -1.283081
  C      1.472164    0.602080    1.345423
  C     -0.594959    1.277177   -0.465090
  C      0.243937   -0.202294    1.468452
  C     -0.917275    0.773161    0.888502
  C      1.813783    1.668831    2.374452
  C      0.258469    2.460512   -0.584538
  C      2.363752    0.268971    0.223142
  C     -1.118958    0.518840   -1.600750
  C      1.138473   -1.858301   -0.232669
  C     -2.714084   -0.686188   -0.058686
  H     -0.060085   -0.454683    2.466646
  H     -1.021615    1.607731    1.592052
  H      1.892063    1.387608    3.466546
  H      2.750639    2.193196    2.007445
  H      1.013042    2.383027    2.413190
  H     -0.213607    3.187342   -1.365293
  H      0.262160    3.057167    0.280549
  H      1.320754    2.194979   -0.962678
  H     -0.574069   -1.943998    0.860879
  H     -2.627782   -0.203827    1.810453
  H      2.714394   -0.917591   -1.239422
  H     -2.548128   -0.782070   -2.152910

 Total Charge           Charge          ....    0
 Multiplicity           Mult            ....    3
 Number of Electrons    NEL             ....  132
 Basis Dimension        Dim             ....  882

ORBITAL ENERGIES
----------------
                 SPIN UP ORBITALS
  NO   OCC          E(Eh)            E(eV)
   0   1.0000     -19.344291      -526.3849
   1   1.0000     -19.334797      -526.1266
   2   1.0000     -19.332737      -526.0705
   3   1.0000     -19.313741      -525.5536
   4   1.0000     -14.570200      -396.4753
   5   1.0000     -14.566329      -396.3700
   6   1.0000     -14.563763      -396.3001
   7   1.0000     -14.556117      -396.0921
   8   1.0000     -10.513830      -286.0959
   9   1.0000     -10.504175      -285.8331
  10   1.0000     -10.488813      -285.4151
  11   1.0000     -10.483106      -285.2598
  12   1.0000     -10.452309      -284.4218
  13   1.0000     -10.444799      -284.2174
  14   1.0000     -10.422435      -283.6089
  15   1.0000     -10.416948      -283.4596
  16   1.0000     -10.388323      -282.6806
  17   1.0000     -10.382941      -282.5342
  18   1.0000      -1.237679       -33.6790
  19   1.0000      -1.220347       -33.2073
  20   1.0000      -1.215085       -33.0641
  21   1.0000      -1.192211       -32.4417
  22   1.0000      -1.128080       -30.6966
  23   1.0000      -1.102557       -30.0021
  24   1.0000      -1.070026       -29.1169
  25   1.0000      -1.055865       -28.7315
  26   1.0000      -0.992335       -27.0028
  27   1.0000      -0.953254       -25.9394
  28   1.0000      -0.888744       -24.1840
  29   1.0000      -0.848544       -23.0900
  30   1.0000      -0.825870       -22.4731
  31   1.0000      -0.808441       -21.9988
  32   1.0000      -0.794764       -21.6266
  33   1.0000      -0.790230       -21.5033
  34   1.0000      -0.703811       -19.1517
  35   1.0000      -0.694584       -18.9006
  36   1.0000      -0.688077       -18.7235
  37   1.0000      -0.677916       -18.4470
  38   1.0000      -0.659032       -17.9332
  39   1.0000      -0.638717       -17.3804
  40   1.0000      -0.615041       -16.7361
  41   1.0000      -0.604367       -16.4457
  42   1.0000      -0.601619       -16.3709
  43   1.0000      -0.591919       -16.1069
  44   1.0000      -0.580186       -15.7877
  45   1.0000      -0.578837       -15.7510
  46   1.0000      -0.571354       -15.5473
  47   1.0000      -0.568837       -15.4788
  48   1.0000      -0.560209       -15.2441
  49   1.0000      -0.556036       -15.1305
  50   1.0000      -0.552277       -15.0282
  51   1.0000      -0.542719       -14.7681
  52   1.0000      -0.539809       -14.6890
  53   1.0000      -0.526299       -14.3213
  54   1.0000      -0.511731       -13.9249
  55   1.0000      -0.502500       -13.6737
  56   1.0000      -0.491693       -13.3796
  57   1.0000      -0.433619       -11.7994
  58   1.0000      -0.417187       -11.3522
  59   1.0000      -0.413916       -11.2632
  60   1.0000      -0.410388       -11.1672
  61   1.0000      -0.404214       -10.9992
  62   1.0000      -0.399281       -10.8650
  63   1.0000      -0.393613       -10.7107
  64   1.0000      -0.384866       -10.4727
  65   1.0000      -0.347112        -9.4454
  66   1.0000      -0.322493        -8.7755
  67   0.0000       0.006397         0.1741
  68   0.0000       0.028679         0.7804
  69   0.0000       0.032175         0.8755
  70   0.0000       0.034378         0.9355
  71   0.0000       0.053116         1.4454

                 SPIN DOWN ORBITALS
  NO   OCC          E(Eh)            E(eV)
   0   1.0000     -19.340395      -526.2789
   1   1.0000     -19.332726      -526.0702
   2   1.0000     -19.331126      -526.0267
   3   1.0000     -19.313511      -525.5474
   4   1.0000     -14.569785      -396.4640
   5   1.0000     -14.565689      -396.3526
   6   1.0000     -14.563113      -396.2824
   7   1.0000     -14.555998      -396.0889
   8   1.0000     -10.513870      -286.0969
   9   1.0000     -10.504226      -285.8345
  10   1.0000     -10.489761      -285.4409
  11   1.0000     -10.484068      -285.2860
  12   1.0000     -10.451567      -284.4016
  13   1.0000     -10.444199      -284.2011
  14   1.0000     -10.410915      -283.2954
  15   1.0000     -10.405640      -283.1519
  16   1.0000     -10.388995      -282.6989
  17   1.0000     -10.383593      -282.5519
  18   1.0000      -1.235509       -33.6199
  19   1.0000      -1.216558       -33.1042
  20   1.0000      -1.212184       -32.9852
  21   1.0000      -1.188844       -32.3501
  22   1.0000      -1.125702       -30.6319
  23   1.0000      -1.100774       -29.9536
  24   1.0000      -1.068266       -29.0690
  25   1.0000      -1.054267       -28.6881
  26   1.0000      -0.978679       -26.6312
  27   1.0000      -0.935681       -25.4612
  28   1.0000      -0.882857       -24.0238
  29   1.0000      -0.844637       -22.9837
  30   1.0000      -0.816823       -22.2269
  31   1.0000      -0.804030       -21.8788
  32   1.0000      -0.791940       -21.5498
  33   1.0000      -0.788090       -21.4450
  34   1.0000      -0.699075       -19.0228
  35   1.0000      -0.688858       -18.7448
  36   1.0000      -0.681647       -18.5486
  37   1.0000      -0.670972       -18.2581
  38   1.0000      -0.645057       -17.5529
  39   1.0000      -0.634796       -17.2737
  40   1.0000      -0.610847       -16.6220
  41   1.0000      -0.599239       -16.3061
  42   1.0000      -0.596982       -16.2447
  43   1.0000      -0.586821       -15.9682
  44   1.0000      -0.576079       -15.6759
  45   1.0000      -0.573220       -15.5981
  46   1.0000      -0.561676       -15.2840
  47   1.0000      -0.559424       -15.2227
  48   1.0000      -0.553845       -15.0709
  49   1.0000      -0.548993       -14.9388
  50   1.0000      -0.541278       -14.7289
  51   1.0000      -0.535645       -14.5756
  52   1.0000      -0.533274       -14.5111
  53   1.0000      -0.518403       -14.1065
  54   1.0000      -0.502070       -13.6620
  55   1.0000      -0.498090       -13.5537
  56   1.0000      -0.486151       -13.2289
  57   1.0000      -0.428671       -11.6647
  58   1.0000      -0.411932       -11.2092
  59   1.0000      -0.406515       -11.0618
  60   1.0000      -0.404190       -10.9986
  61   1.0000      -0.399155       -10.8616
  62   1.0000      -0.388369       -10.5681
  63   1.0000      -0.385210       -10.4821
  64   1.0000      -0.375828       -10.2268
  65   0.0000      -0.062694        -1.7060
  66   0.0000      -0.052029        -1.4158
  67   0.0000       0.005837         0.1588
  68   0.0000       0.028334         0.7710
  69   0.0000       0.031977         0.8701

----------------------------------------------------------------------------------------------------
          SPIN FLIP ABSORPTION SPECTRUM VIA TRANSITION ELECTRIC DIPOLE MOMENTS
----------------------------------------------------------------------------------------------------
     Transition      Energy     Energy  Wavelength fosc(D2)      D2        DX        DY        DZ
                      (eV)      (cm-1)    (nm)                 (au**2)    (au)      (au)      (au)
----------------------------------------------------------------------------------------------------
  1-3A  ->  2-3A    0.047143     380.2  26299.4   0.000016512   0.01430   0.11474   0.00873   0.03249
  1-3A  ->  3-1A    2.157126   17398.4   574.8   0.027204274   0.51476  -0.58339   0.03782  -0.41591

Dispersion correction             ... done (  0.1 sec)

MULLIKEN ATOMIC CHARGES AND SPIN DENSITIES
------------------------------------------
   0 O :   -0.623796    0.057302
   1 O :   -0.666678   -0.056274
   2 O :   -0.596408    0.000156
   3 O :   -0.704563   -0.000188
   4 N :   -0.227884    0.000732
   5 N :   -0.271095   -0.009146
   6 N :    0.056787    0.003950
   7 N :   -0.026736   -0.009500
   8 C :    0.141658    0.386533
   9 C :    0.952441    0.328812
  10 C :    0.437664   -0.102599
  11 C :    0.071112   -0.305131
  12 C :   -1.225453   -0.003299
  13 C :   -1.542164   -0.019545
  14 C :    0.144286   -0.051478
  15 C :   -0.100157   -0.249628
  16 C :    0.451026    0.002424
  17 C :    0.542065    0.016370
  18 H :    0.514254    0.006330
  19 H :    0.562243   -0.016238
  20 H :    0.310701    0.010591
  21 H :    0.265025    0.001185
  22 H :    0.307184    0.013551
  23 H :    0.413963   -0.007508
  24 H :    0.317286    0.006793
  25 H :    0.239078   -0.007750
  26 H :    0.018298   -0.001794
  27 H :    0.082478    0.001905
  28 H :    0.073256   -0.000194
  29 H :    0.084130    0.003637
Sum of atomic charges       :    0.0000000

LOEWDIN ATOMIC CHARGES AND SPIN DENSITIES
-----------------------------------------
   0 O :    0.104997    0.049413
   1 O :    0.087223   -0.048710
   2 O :    0.141492   -0.000042
   3 O :    0.039046   -0.000142
   4 N :    0.284817   -0.001410
   5 N :    0.275894    0.001107
   6 N :    0.343235    0.003220
   7 N :    0.310668   -0.013865
   8 C :   -0.041428    0.214100
   9 C :   -0.046252   -0.187111
  10 C :   -0.108323    0.005181
  11 C :   -0.056681   -0.010968
  12 C :    0.192843    0.026788
  13 C :    0.178824   -0.026929
  14 C :   -0.444586    0.030447
  15 C :   -0.414911   -0.035369
  16 C :   -0.473031   -0.000582
  17 C :   -0.533325   -0.000681
  18 H :    0.050223    0.000943
  19 H :    0.050952   -0.003485
  20 H :    0.028179    0.008024
  21 H :    0.026973   -0.000602
  22 H :   -0.043508    0.007428
  23 H :    0.069864   -0.007225
  24 H :   -0.045275    0.000720
  25 H :    0.059503   -0.009777
  26 H :   -0.046501   -0.000053
  27 H :   -0.005195    0.000165
  28 H :   -0.010165    0.000303
  29 H :    0.024447   -0.000889

  Mayer bond orders larger than 0.100000
B(  0-O ,  8-C ) :  -0.1399 B(  0-O , 14-C ) :   1.5921 B(  1-O , 15-C ) :   1.3738
B(  2-O , 16-C ) :   1.6391 B(  3-O , 17-C ) :   1.5365 B(  4-N ,  8-C ) :   0.1424
B(  4-N , 10-C ) :   0.4566 B(  4-N , 16-C ) :   0.9476 B(  4-N , 26-H ) :   1.1476
B(  5-N ,  9-C ) :   0.1469 B(  5-N , 10-C ) :   0.1237 B(  5-N , 11-C ) :   0.1745
B(  5-N , 17-C ) :   1.1623 B(  5-N , 27-H ) :   1.0858 B(  6-N ,  8-C ) :  -0.1578
B(  6-N , 10-C ) :   0.1642 B(  6-N , 14-C ) :   1.1170 B(  6-N , 16-C ) :   0.9285
B(  6-N , 28-H ) :   1.0625 B(  7-N , 11-C ) :   0.1223 B(  7-N , 15-C ) :   1.0098
B(  7-N , 17-C ) :   0.9162 B(  7-N , 29-H ) :   1.0767 B(  8-C ,  9-C ) :   0.2285
B(  8-C , 10-C ) :   0.5091 B(  8-C , 11-C ) :   0.2694 B(  8-C , 12-C ) :   0.6435
B(  8-C , 14-C ) :   0.4965 B(  8-C , 16-C ) :   0.1051 B(  8-C , 18-H ) :  -0.1525
B(  8-C , 21-H ) :  -0.1029 B(  9-C , 11-C ) :   0.5515 B(  9-C , 13-C ) :   0.1369
B(  9-C , 15-C ) :   0.3797 B(  9-C , 19-H ) :  -0.2149 B(  9-C , 24-H ) :  -0.2176
B( 10-C , 11-C ) :   0.4744 B( 10-C , 12-C ) :  -0.1152 B( 10-C , 16-C ) :  -0.1087
B( 10-C , 18-H ) :   0.7985 B( 11-C , 12-C ) :   0.1017 B( 11-C , 13-C ) :  -0.2320
B( 11-C , 17-C ) :  -0.1070 B( 11-C , 18-H ) :  -0.1005 B( 11-C , 19-H ) :   0.8285
B( 12-C , 20-H ) :   0.9291 B( 12-C , 21-H ) :   1.0232 B( 12-C , 22-H ) :   0.8878
B( 13-C , 14-C ) :   0.1181 B( 13-C , 23-H ) :   0.8447 B( 13-C , 24-H ) :   1.1774
B( 13-C , 25-H ) :   0.9211

Dispersion correction           -0.059486969
FINAL SINGLE POINT ENERGY      -908.766021245268

DIPOLE MOMENT
-------------

Method             : TDA/CIS
Type of density    : Electron Density
Level              : Relaxed density
State              :   1
Multiplicity       :   3
Irrep              :   0
Energy             :     0.0000000000000000 Eh
Relativity type    :
Basis              : AO
                                X                 Y                 Z
Electronic contribution:     -2.673952143      -9.686789042      -6.531424705
Nuclear contribution   :      2.810662018      11.407743696       8.788317267
                        -----------------------------------------
Total Dipole Moment    :      0.136709875       1.720954654       2.256892562
                        -----------------------------------------
Magnitude (a.u.)       :      2.841467674
Magnitude (Debye)      :      7.222436852

Rotational constants in cm-1:             0.021044             0.012674             0.011763
Rotational constants in MHz :           630.894265           379.951838           352.646956

                             ****ORCA TERMINATED NORMALLY****
TOTAL RUN TIME: 0 days 0 hours 4 minutes 44 seconds 999 msec
