                         Program Version 6.0.0  -   RELEASE  -
|  1> ! EnGrad wB97M-D3BJ def2-TZVPPD
|  2> %pal nprocs 8 end%pal nprocs 16 end
|  3> %tddft
|  4>  sf true
|  5>  nroots 2 Iroot 1 end
|  6> *xyz 0 3
|  7> O   0.08559252020707 0.83890508886718 -0.00010440693869
|  8> C   0.69044643503004 -0.39300532750691 0.00014764172469
|  9> C   -0.72797224658777 -0.5231256405634 -0.00019786279241
| 10> H   1.23888657400154 -0.65314310471965 0.90398071491762
| 11> H   1.23856098440828 -0.65348322353475 -0.90384772057719
| 12> H   -1.26191119122766 -0.66752388921226 -0.92503425087497
| 13> H   -1.2614030758315 -0.6670239033302 0.92505588454095
| 14> *
| 15>
| 16>                          ****END OF INPUT****

CARTESIAN COORDINATES (ANGSTROEM)
---------------------------------
  O      0.085593    0.838905   -0.000104
  C      0.690446   -0.393005    0.000148
  C     -0.727972   -0.523126   -0.000198
  H      1.238887   -0.653143    0.903981
  H      1.238561   -0.653483   -0.903848
  H     -1.261911   -0.667524   -0.925034
  H     -1.261403   -0.667024    0.925056

 Total Charge           Charge          ....    0
 Multiplicity           Mult            ....    3
 Number of Electrons    NEL             ....   24
 Basis Dimension        Dim             ....  182

ORBITAL ENERGIES
----------------
                 SPIN UP ORBITALS
  NO   OCC          E(Eh)            E(eV)
   0   1.0000     -19.457472      -529.4647
   1   1.0000     -10.418805      -283.5101
   2   1.0000     -10.353721      -281.7391
   3   1.0000      -1.280504       -34.8443
   4   1.0000      -0.861526       -23.4433
   5   1.0000      -0.770854       -20.9760
   6   1.0000      -0.679469       -18.4893
   7   1.0000      -0.642681       -17.4883
   8   1.0000      -0.564544       -15.3620
   9   1.0000      -0.502210       -13.6658
  10   1.0000      -0.491941       -13.3864
  11   1.0000      -0.468539       -12.7496
  12   1.0000      -0.163245        -4.4421
  13   0.0000       0.037729         1.0267
  14   0.0000       0.061970         1.6863
  15   0.0000       0.070983         1.9315
  16   0.0000       0.087184         2.3724
  17   0.0000       0.110853         3.0165

                 SPIN DOWN ORBITALS
  NO   OCC          E(Eh)            E(eV)
   0   1.0000     -19.424615      -528.5707
   1   1.0000     -10.419178      -283.5203
   2   1.0000     -10.344138      -281.4783
   3   1.0000      -1.213563       -33.0227
   4   1.0000      -0.827393       -22.5145
   5   1.0000      -0.751899       -20.4602
   6   1.0000      -0.625694       -17.0260
   7   1.0000      -0.609331       -16.5807
   8   1.0000      -0.526964       -14.3394
   9   1.0000      -0.478533       -13.0216
  10   1.0000      -0.432445       -11.7674
  11   0.0000      -0.108815        -2.9610
  12   0.0000       0.033468         0.9107
  13   0.0000       0.057541         1.5658
  14   0.0000       0.061542         1.6747
  15   0.0000       0.065132         1.7723

----------------------------------------------------------------------------------------------------
          SPIN FLIP ABSORPTION SPECTRUM VIA TRANSITION ELECTRIC DIPOLE MOMENTS
----------------------------------------------------------------------------------------------------
     Transition      Energy     Energy  Wavelength fosc(D2)      D2        DX        DY        DZ
                      (eV)      (cm-1)    (nm)                 (au**2)    (au)      (au)      (au)
----------------------------------------------------------------------------------------------------
  1-3A  ->  2-3A    5.932924   47852.3   209.0   0.007241186   0.04982  -0.00032  -0.00022   0.22320

Dispersion correction             ... done (  0.0 sec)

MULLIKEN ATOMIC CHARGES AND SPIN DENSITIES
------------------------------------------
   0 O :   -0.389844    0.067164
   1 C :   -0.105866   -0.108297
   2 C :   -0.468268    0.038027
   3 H :    0.195730    0.022622
   4 H :    0.195576    0.022703
   5 H :    0.286405   -0.021151
   6 H :    0.286268   -0.021067
Sum of atomic charges       :    0.0000000

LOEWDIN ATOMIC CHARGES AND SPIN DENSITIES
-----------------------------------------
   0 O :   -0.064686    0.031870
   1 C :   -0.149982   -0.009038
   2 C :    0.147317   -0.016735
   3 H :    0.023924    0.003838
   4 H :    0.023931    0.003844
   5 H :    0.009757   -0.006887
   6 H :    0.009739   -0.006891

  Mayer bond orders larger than 0.100000
B(  0-O ,  1-C ) :   0.7978 B(  0-O ,  2-C ) :   0.8819 B(  1-C ,  2-C ) :   0.7214
B(  1-C ,  3-H ) :   1.0284 B(  1-C ,  4-H ) :   1.0284 B(  2-C ,  5-H ) :   0.9156
B(  2-C ,  6-H ) :   0.9157

Dispersion correction           -0.005238572
FINAL SINGLE POINT ENERGY      -153.862145026035

DIPOLE MOMENT
-------------

Method             : TDA/CIS
Type of density    : Electron Density
Level              : Relaxed density
State              :   1
Multiplicity       :   3
Irrep              :   0
Energy             :     0.0000000000000000 Eh
Relativity type    :
Basis              : AO
                                X                 Y                 Z
Electronic contribution:     -0.072725165       1.234494825      -0.000283515
Nuclear contribution   :     -0.116377789      -2.444586601       0.000324638
                        -----------------------------------------
Total Dipole Moment    :     -0.189102954      -1.210091776       0.000041123
                        -----------------------------------------
Magnitude (a.u.)       :      1.224778362
Magnitude (Debye)      :      3.113139191

Rotational constants in cm-1:             0.879909             0.695508             0.459942
Rotational constants in MHz :         26379.005690         20850.809282         13788.714287

                             ****ORCA TERMINATED NORMALLY****
TOTAL RUN TIME: 0 days 0 hours 0 minutes 18 seconds 637 msec
