                         Program Version 6.0.0  -   RELEASE  -
|  1> ! Engrad def2-TZVPPD wB97M-D3BJ
|  2> %pal nprocs 8 end%pal nprocs 64 end
|  3> %tddft
|  4>  Iroot 1 Nroots 3
|  5> sf true
|  6> end
|  7> *xyz 0 3
|  8> O   3.08954736 -0.74771392 -2.04944768
|  9> O   -2.05324284 1.7001161 -1.57398324
| 10> O   -0.94664245 -2.74133255 -1.33821175
| 11> O   -3.1231076 0.87942058 2.68219832
| 12> N   -0.11500151 -1.50271932 0.28536394
| 13> N   -0.89784122 0.72766792 2.12504787
| 14> N   1.11881818 -1.81226795 -1.67479591
| 15> N   -2.49175604 0.86833945 0.5169036
| 16> C   2.17557816 -0.55712813 0.10448225
| 17> C   -0.19159167 1.35439234 -0.12288917
| 18> C   0.8314325 -0.66153911 0.86329403
| 19> C   0.21944532 0.81597799 1.17500088
| 20> C   3.43681563 -0.09825539 0.74189687
| 21> C   0.80248705 1.89074441 -1.09410905
| 22> C   2.18573115 -1.01143185 -1.30907368
| 23> C   -1.60518567 1.32802984 -0.50868528
| 24> C   -0.01845034 -2.07978909 -0.93873902
| 25> C   -2.25146108 0.83430929 1.81847292
| 26> H   1.11681589 -1.08002449 1.83139068
| 27> H   1.08231038 1.33212548 1.5754179
| 28> H   3.29109583 0.09582749 1.77618824
| 29> H   4.3174913 -0.62586428 0.56620925
| 30> H   3.64646963 0.92043303 0.22690904
| 31> H   0.39282419 2.61281066 -1.74064636
| 32> H   1.67367541 2.30718842 -0.63776622
| 33> H   1.18221891 1.13283761 -1.72655629
| 34> H   -0.9432745 -1.43796424 0.84982088
| 35> H   -0.68145941 0.73925021 3.12783482
| 36> H   1.17312402 -2.17281866 -2.63636482
| 37> H   -3.42942021 0.79660965 0.25067569
| 38> *
| 39>
| 40>                          ****END OF INPUT****

CARTESIAN COORDINATES (ANGSTROEM)
---------------------------------
  O      3.089547   -0.747714   -2.049448
  O     -2.053243    1.700116   -1.573983
  O     -0.946642   -2.741333   -1.338212
  O     -3.123108    0.879421    2.682198
  N     -0.115002   -1.502719    0.285364
  N     -0.897841    0.727668    2.125048
  N      1.118818   -1.812268   -1.674796
  N     -2.491756    0.868339    0.516904
  C      2.175578   -0.557128    0.104482
  C     -0.191592    1.354392   -0.122889
  C      0.831433   -0.661539    0.863294
  C      0.219445    0.815978    1.175001
  C      3.436816   -0.098255    0.741897
  C      0.802487    1.890744   -1.094109
  C      2.185731   -1.011432   -1.309074
  C     -1.605186    1.328030   -0.508685
  C     -0.018450   -2.079789   -0.938739
  C     -2.251461    0.834309    1.818473
  H      1.116816   -1.080024    1.831391
  H      1.082310    1.332125    1.575418
  H      3.291096    0.095827    1.776188
  H      4.317491   -0.625864    0.566209
  H      3.646470    0.920433    0.226909
  H      0.392824    2.612811   -1.740646
  H      1.673675    2.307188   -0.637766
  H      1.182219    1.132838   -1.726556
  H     -0.943275   -1.437964    0.849821
  H     -0.681459    0.739250    3.127835
  H      1.173124   -2.172819   -2.636365
  H     -3.429420    0.796610    0.250676

 Total Charge           Charge          ....    0
 Multiplicity           Mult            ....    3
 Number of Electrons    NEL             ....  132
 Basis Dimension        Dim             ....  882

ORBITAL ENERGIES
----------------
                 SPIN UP ORBITALS
  NO   OCC          E(Eh)            E(eV)
   0   1.0000     -19.345659      -526.4222
   1   1.0000     -19.339671      -526.2592
   2   1.0000     -19.317894      -525.6666
   3   1.0000     -19.313274      -525.5409
   4   1.0000     -14.573726      -396.5712
   5   1.0000     -14.566021      -396.3616
   6   1.0000     -14.562279      -396.2598
   7   1.0000     -14.556406      -396.0999
   8   1.0000     -10.507929      -285.9353
   9   1.0000     -10.506142      -285.8867
  10   1.0000     -10.492070      -285.5037
  11   1.0000     -10.487271      -285.3732
  12   1.0000     -10.449557      -284.3469
  13   1.0000     -10.441297      -284.1221
  14   1.0000     -10.424342      -283.6608
  15   1.0000     -10.423466      -283.6369
  16   1.0000     -10.383027      -282.5365
  17   1.0000     -10.365554      -282.0611
  18   1.0000      -1.227729       -33.4082
  19   1.0000      -1.222176       -33.2571
  20   1.0000      -1.206910       -32.8417
  21   1.0000      -1.198198       -32.6046
  22   1.0000      -1.120418       -30.4881
  23   1.0000      -1.101871       -29.9834
  24   1.0000      -1.077693       -29.3255
  25   1.0000      -1.060940       -28.8697
  26   1.0000      -0.982117       -26.7248
  27   1.0000      -0.955260       -25.9940
  28   1.0000      -0.889544       -24.2057
  29   1.0000      -0.851425       -23.1684
  30   1.0000      -0.830261       -22.5926
  31   1.0000      -0.811058       -22.0700
  32   1.0000      -0.793935       -21.6041
  33   1.0000      -0.790059       -21.4986
  34   1.0000      -0.710461       -19.3326
  35   1.0000      -0.702529       -19.1168
  36   1.0000      -0.691629       -18.8202
  37   1.0000      -0.685342       -18.6491
  38   1.0000      -0.649660       -17.6781
  39   1.0000      -0.641750       -17.4629
  40   1.0000      -0.631523       -17.1846
  41   1.0000      -0.607769       -16.5382
  42   1.0000      -0.600157       -16.3311
  43   1.0000      -0.593502       -16.1500
  44   1.0000      -0.578807       -15.7501
  45   1.0000      -0.573250       -15.5989
  46   1.0000      -0.571029       -15.5385
  47   1.0000      -0.567441       -15.4409
  48   1.0000      -0.561868       -15.2892
  49   1.0000      -0.558488       -15.1972
  50   1.0000      -0.555416       -15.1136
  51   1.0000      -0.542848       -14.7717
  52   1.0000      -0.536834       -14.6080
  53   1.0000      -0.529307       -14.4032
  54   1.0000      -0.519829       -14.1453
  55   1.0000      -0.511454       -13.9174
  56   1.0000      -0.504642       -13.7320
  57   1.0000      -0.425980       -11.5915
  58   1.0000      -0.422616       -11.5000
  59   1.0000      -0.412950       -11.2369
  60   1.0000      -0.407501       -11.0887
  61   1.0000      -0.398981       -10.8568
  62   1.0000      -0.393886       -10.7182
  63   1.0000      -0.391383       -10.6501
  64   1.0000      -0.378978       -10.3125
  65   1.0000      -0.354095        -9.6354
  66   1.0000      -0.319274        -8.6879
  67   0.0000       0.007817         0.2127
  68   0.0000       0.030741         0.8365
  69   0.0000       0.032273         0.8782
  70   0.0000       0.034088         0.9276
  71   0.0000       0.052267         1.4223

                 SPIN DOWN ORBITALS
  NO   OCC          E(Eh)            E(eV)
   0   1.0000     -19.341001      -526.2954
   1   1.0000     -19.336774      -526.1804
   2   1.0000     -19.317769      -525.6632
   3   1.0000     -19.313262      -525.5406
   4   1.0000     -14.573002      -396.5516
   5   1.0000     -14.565841      -396.3567
   6   1.0000     -14.561855      -396.2482
   7   1.0000     -14.556397      -396.0997
   8   1.0000     -10.507958      -285.9361
   9   1.0000     -10.506174      -285.8875
  10   1.0000     -10.493099      -285.5317
  11   1.0000     -10.488089      -285.3954
  12   1.0000     -10.449237      -284.3382
  13   1.0000     -10.440518      -284.1009
  14   1.0000     -10.413274      -283.3596
  15   1.0000     -10.411644      -283.3152
  16   1.0000     -10.383652      -282.5535
  17   1.0000     -10.365984      -282.0728
  18   1.0000      -1.225130       -33.3375
  19   1.0000      -1.218915       -33.1684
  20   1.0000      -1.204756       -32.7831
  21   1.0000      -1.194154       -32.4946
  22   1.0000      -1.118179       -30.4272
  23   1.0000      -1.100092       -29.9350
  24   1.0000      -1.075960       -29.2784
  25   1.0000      -1.059704       -28.8360
  26   1.0000      -0.968655       -26.3584
  27   1.0000      -0.938385       -25.5347
  28   1.0000      -0.884735       -24.0749
  29   1.0000      -0.845609       -23.0102
  30   1.0000      -0.821153       -22.3447
  31   1.0000      -0.807287       -21.9674
  32   1.0000      -0.792280       -21.5590
  33   1.0000      -0.787679       -21.4338
  34   1.0000      -0.705960       -19.2101
  35   1.0000      -0.696078       -18.9412
  36   1.0000      -0.685381       -18.6502
  37   1.0000      -0.678800       -18.4711
  38   1.0000      -0.639456       -17.4005
  39   1.0000      -0.637106       -17.3365
  40   1.0000      -0.626196       -17.0397
  41   1.0000      -0.601973       -16.3805
  42   1.0000      -0.594551       -16.1786
  43   1.0000      -0.587594       -15.9892
  44   1.0000      -0.573592       -15.6082
  45   1.0000      -0.566846       -15.4247
  46   1.0000      -0.563935       -15.3455
  47   1.0000      -0.560169       -15.2430
  48   1.0000      -0.553279       -15.0555
  49   1.0000      -0.550695       -14.9852
  50   1.0000      -0.545872       -14.8539
  51   1.0000      -0.535474       -14.5710
  52   1.0000      -0.531943       -14.4749
  53   1.0000      -0.521468       -14.1899
  54   1.0000      -0.510469       -13.8906
  55   1.0000      -0.505512       -13.7557
  56   1.0000      -0.496328       -13.5058
  57   1.0000      -0.420223       -11.4348
  58   1.0000      -0.417469       -11.3599
  59   1.0000      -0.404096       -10.9960
  60   1.0000      -0.399630       -10.8745
  61   1.0000      -0.393061       -10.6957
  62   1.0000      -0.390974       -10.6390
  63   1.0000      -0.388122       -10.5613
  64   1.0000      -0.369118       -10.0442
  65   0.0000      -0.068887        -1.8745
  66   0.0000      -0.043589        -1.1861
  67   0.0000       0.007197         0.1958
  68   0.0000       0.030462         0.8289
  69   0.0000       0.031627         0.8606

----------------------------------------------------------------------------------------------------
          SPIN FLIP ABSORPTION SPECTRUM VIA TRANSITION ELECTRIC DIPOLE MOMENTS
----------------------------------------------------------------------------------------------------
     Transition      Energy     Energy  Wavelength fosc(D2)      D2        DX        DY        DZ
                      (eV)      (cm-1)    (nm)                 (au**2)    (au)      (au)      (au)
----------------------------------------------------------------------------------------------------
  1-3A  ->  2-3A    0.181691    1465.4  6823.9   0.000072200   0.01622   0.10395  -0.06666  -0.03116
  1-3A  ->  3-3A    2.349466   18949.7   527.7   0.033074472   0.57460  -0.45043   0.53164  -0.29846

Dispersion correction             ... done (  0.1 sec)

MULLIKEN ATOMIC CHARGES AND SPIN DENSITIES
------------------------------------------
   0 O :   -0.644430    0.023902
   1 O :   -0.656306   -0.035038
   2 O :   -0.663648   -0.000199
   3 O :   -0.668336   -0.000256
   4 N :   -0.251555   -0.015060
   5 N :   -0.212485   -0.001743
   6 N :   -0.034027    0.006379
   7 N :    0.074347   -0.003842
   8 C :    0.502259    0.405767
   9 C :    0.838633    0.330064
  10 C :    0.148681   -0.169420
  11 C :    0.026811   -0.231237
  12 C :   -1.443558    0.015994
  13 C :   -1.481314    0.003631
  14 C :    0.260324   -0.109723
  15 C :    0.044216   -0.237943
  16 C :    0.449353    0.005368
  17 C :    0.484766    0.012026
  18 H :    0.509048   -0.002529
  19 H :    0.571840   -0.016576
  20 H :    0.325998    0.002256
  21 H :    0.355928    0.003046
  22 H :    0.268970    0.015291
  23 H :    0.363346   -0.001238
  24 H :    0.325484    0.002604
  25 H :    0.307280   -0.004245
  26 H :    0.074415   -0.001729
  27 H :    0.075462   -0.000154
  28 H :    0.064776    0.001073
  29 H :   -0.016279    0.003532
Sum of atomic charges       :    0.0000000

LOEWDIN ATOMIC CHARGES AND SPIN DENSITIES
-----------------------------------------
   0 O :    0.100406    0.019459
   1 O :    0.100136   -0.029764
   2 O :    0.090404   -0.000260
   3 O :    0.070194   -0.000556
   4 N :    0.275445   -0.002892
   5 N :    0.272063   -0.001010
   6 N :    0.330446    0.004543
   7 N :    0.335455   -0.005709
   8 C :   -0.010980    0.120416
   9 C :   -0.003342   -0.088827
  10 C :   -0.107709   -0.004506
  11 C :   -0.086497   -0.011908
  12 C :    0.193913    0.017109
  13 C :    0.238974   -0.012258
  14 C :   -0.454865    0.014569
  15 C :   -0.355368   -0.020696
  16 C :   -0.477755   -0.000552
  17 C :   -0.510456   -0.000735
  18 H :    0.052449    0.000253
  19 H :    0.044830   -0.002247
  20 H :   -0.025077   -0.000145
  21 H :   -0.031282    0.002979
  22 H :    0.057203    0.008331
  23 H :   -0.009148   -0.001027
  24 H :   -0.004907   -0.000579
  25 H :   -0.021027   -0.003713
  26 H :   -0.029199   -0.000108
  27 H :   -0.010496   -0.000020
  28 H :    0.017589    0.000353
  29 H :   -0.041400   -0.000501

  Mayer bond orders larger than 0.100000
B(  0-O , 14-C ) :   1.4773 B(  1-O , 15-C ) :   1.3076 B(  2-O , 16-C ) :   1.5789
B(  3-O , 17-C ) :   1.6048 B(  4-N , 10-C ) :   0.5861 B(  4-N , 16-C ) :   1.0220
B(  4-N , 26-H ) :   1.1709 B(  5-N , 10-C ) :   0.1966 B(  5-N , 11-C ) :   0.4293
B(  5-N , 17-C ) :   1.0994 B(  5-N , 27-H ) :   1.1057 B(  6-N ,  8-C ) :  -0.1024
B(  6-N , 14-C ) :   1.0629 B(  6-N , 16-C ) :   0.9768 B(  6-N , 28-H ) :   1.0991
B(  7-N , 11-C ) :   0.1150 B(  7-N , 15-C ) :   1.0172 B(  7-N , 17-C ) :   0.9988
B(  7-N , 29-H ) :   1.1282 B(  8-C ,  9-C ) :   0.2623 B(  8-C , 10-C ) :   0.5479
B(  8-C , 12-C ) :   0.4391 B(  8-C , 14-C ) :   0.4825 B(  8-C , 18-H ) :  -0.1617
B(  8-C , 20-H ) :  -0.1729 B(  9-C , 10-C ) :   0.1443 B(  9-C , 11-C ) :   0.6395
B(  9-C , 13-C ) :   0.3042 B(  9-C , 15-C ) :   0.6742 B(  9-C , 19-H ) :  -0.1233
B(  9-C , 24-H ) :  -0.1368 B( 10-C , 11-C ) :   0.5894 B( 10-C , 18-H ) :   0.8120
B( 11-C , 13-C ) :  -0.1555 B( 11-C , 17-C ) :  -0.1355 B( 11-C , 19-H ) :   0.7963
B( 12-C , 20-H ) :   1.0953 B( 12-C , 21-H ) :   0.9188 B( 12-C , 22-H ) :   0.8562
B( 13-C , 23-H ) :   0.9536 B( 13-C , 24-H ) :   1.0624 B( 13-C , 25-H ) :   0.7663

Dispersion correction           -0.058148738
FINAL SINGLE POINT ENERGY      -908.782428466043

DIPOLE MOMENT
-------------

Method             : TDA/CIS
Type of density    : Electron Density
Level              : Relaxed density
State              :   1
Multiplicity       :   3
Irrep              :   0
Energy             :     0.0000000000000000 Eh
Relativity type    :
Basis              : AO
                                X                 Y                 Z
Electronic contribution:     -9.851056136      -4.347807347      -2.108889812
Nuclear contribution   :     12.058672382       4.858867613       3.522060532
                        -----------------------------------------
Total Dipole Moment    :      2.207616247       0.511060266       1.413170720
                        -----------------------------------------
Magnitude (a.u.)       :      2.670543685
Magnitude (Debye)      :      6.787982596

Rotational constants in cm-1:             0.022624             0.011105             0.010520
Rotational constants in MHz :           678.244022           332.922684           315.395491

                             ****ORCA TERMINATED NORMALLY****
TOTAL RUN TIME: 0 days 0 hours 4 minutes 56 seconds 41 msec
