                         Program Version 6.0.0  -   RELEASE  -
|  1> ! Engrad def2-TZVPPD wB97M-D3BJ
|  2> %pal nprocs 8 end%pal nprocs 64 end
|  3> %tddft
|  4>  Iroot 2 Nroots 3
|  5> sf true
|  6> end
|  7> *xyz 0 3
|  8> O   3.25688679 0.89214999 -0.09324643
|  9> O   -0.82417246 0.63957676 -2.70405401
| 10> O   0.63962316 -2.75498796 -1.03220768
| 11> O   -3.49480177 -1.38533737 0.52883335
| 12> N   0.22872623 -1.33275989 0.79128142
| 13> N   -2.11730236 0.32990655 1.08413146
| 14> N   1.90521534 -0.81698476 -0.69536674
| 15> N   -2.09493667 -0.6000758 -1.07308042
| 16> C   1.55859995 0.48836024 1.32850169
| 17> C   -0.53104623 1.21318766 -0.51023508
| 18> C   0.27412719 -0.07757178 1.43590815
| 19> C   -0.8233688 0.97320801 0.89997872
| 20> C   2.13950055 1.41816859 2.28342273
| 21> C   0.44062331 2.22258299 -0.8539578
| 22> C   2.27441615 0.23764502 0.15858191
| 23> C   -1.15898909 0.37999962 -1.49333473
| 24> C   0.86996311 -1.72380572 -0.40461381
| 25> C   -2.64291499 -0.60322303 0.23001284
| 26> H   0.01164118 -0.16803059 2.47840294
| 27> H   -0.8340527 1.79391254 1.54533042
| 28> H   1.41218798 2.08832645 2.76276294
| 29> H   2.54908443 0.85962592 3.11078269
| 30> H   2.96122771 2.06156687 2.00936732
| 31> H   -0.06948009 2.98558205 -1.38845298
| 32> H   0.69990813 2.68085637 0.11349065
| 33> H   1.31519861 1.85985195 -1.32804177
| 34> H   -0.42796838 -2.01877647 1.06207728
| 35> H   -2.49843562 0.29985037 1.9738338
| 36> H   2.47325515 -0.98862964 -1.53584019
| 37> H   -2.70660545 -1.09759195 -1.76516041
| 38> *
| 39>
| 40>                          ****END OF INPUT****

CARTESIAN COORDINATES (ANGSTROEM)
---------------------------------
  O      3.256887    0.892150   -0.093246
  O     -0.824172    0.639577   -2.704054
  O      0.639623   -2.754988   -1.032208
  O     -3.494802   -1.385337    0.528833
  N      0.228726   -1.332760    0.791281
  N     -2.117302    0.329907    1.084131
  N      1.905215   -0.816985   -0.695367
  N     -2.094937   -0.600076   -1.073080
  C      1.558600    0.488360    1.328502
  C     -0.531046    1.213188   -0.510235
  C      0.274127   -0.077572    1.435908
  C     -0.823369    0.973208    0.899979
  C      2.139501    1.418169    2.283423
  C      0.440623    2.222583   -0.853958
  C      2.274416    0.237645    0.158582
  C     -1.158989    0.380000   -1.493335
  C      0.869963   -1.723806   -0.404614
  C     -2.642915   -0.603223    0.230013
  H      0.011641   -0.168031    2.478403
  H     -0.834053    1.793913    1.545330
  H      1.412188    2.088326    2.762763
  H      2.549084    0.859626    3.110783
  H      2.961228    2.061567    2.009367
  H     -0.069480    2.985582   -1.388453
  H      0.699908    2.680856    0.113491
  H      1.315199    1.859852   -1.328042
  H     -0.427968   -2.018776    1.062077
  H     -2.498436    0.299850    1.973834
  H      2.473255   -0.988630   -1.535840
  H     -2.706605   -1.097592   -1.765160

 Total Charge           Charge          ....    0
 Multiplicity           Mult            ....    3
 Number of Electrons    NEL             ....  132
 Basis Dimension        Dim             ....  882

ORBITAL ENERGIES
----------------
                 SPIN UP ORBITALS
  NO   OCC          E(Eh)            E(eV)
   0   1.0000     -19.331026      -526.0240
   1   1.0000     -19.330886      -526.0201
   2   1.0000     -19.327614      -525.9311
   3   1.0000     -19.324305      -525.8411
   4   1.0000     -14.566914      -396.3859
   5   1.0000     -14.564001      -396.3066
   6   1.0000     -14.559072      -396.1725
   7   1.0000     -14.557887      -396.1402
   8   1.0000     -10.513741      -286.0934
   9   1.0000     -10.506302      -285.8910
  10   1.0000     -10.480988      -285.2022
  11   1.0000     -10.472467      -284.9703
  12   1.0000     -10.439203      -284.0652
  13   1.0000     -10.438840      -284.0553
  14   1.0000     -10.409999      -283.2705
  15   1.0000     -10.407301      -283.1971
  16   1.0000     -10.373621      -282.2806
  17   1.0000     -10.359457      -281.8952
  18   1.0000      -1.223836       -33.3023
  19   1.0000      -1.218623       -33.1604
  20   1.0000      -1.194958       -32.5165
  21   1.0000      -1.166049       -31.7298
  22   1.0000      -1.125976       -30.6394
  23   1.0000      -1.100053       -29.9340
  24   1.0000      -1.057987       -28.7893
  25   1.0000      -1.051557       -28.6143
  26   1.0000      -0.997596       -27.1460
  27   1.0000      -0.967236       -26.3198
  28   1.0000      -0.892876       -24.2964
  29   1.0000      -0.854955       -23.2645
  30   1.0000      -0.830139       -22.5892
  31   1.0000      -0.808940       -22.0124
  32   1.0000      -0.778374       -21.1806
  33   1.0000      -0.776988       -21.1429
  34   1.0000      -0.702264       -19.1096
  35   1.0000      -0.700006       -19.0481
  36   1.0000      -0.695586       -18.9279
  37   1.0000      -0.682671       -18.5764
  38   1.0000      -0.663491       -18.0545
  39   1.0000      -0.641175       -17.4472
  40   1.0000      -0.625775       -17.0282
  41   1.0000      -0.602997       -16.4084
  42   1.0000      -0.600458       -16.3393
  43   1.0000      -0.588872       -16.0240
  44   1.0000      -0.577680       -15.7195
  45   1.0000      -0.572761       -15.5856
  46   1.0000      -0.567389       -15.4394
  47   1.0000      -0.565974       -15.4009
  48   1.0000      -0.563399       -15.3309
  49   1.0000      -0.552299       -15.0288
  50   1.0000      -0.551045       -14.9947
  51   1.0000      -0.540052       -14.6956
  52   1.0000      -0.529231       -14.4011
  53   1.0000      -0.526892       -14.3375
  54   1.0000      -0.509514       -13.8646
  55   1.0000      -0.503166       -13.6918
  56   1.0000      -0.491565       -13.3762
  57   1.0000      -0.423416       -11.5217
  58   1.0000      -0.416425       -11.3315
  59   1.0000      -0.415307       -11.3011
  60   1.0000      -0.406851       -11.0710
  61   1.0000      -0.400354       -10.8942
  62   1.0000      -0.394113       -10.7243
  63   1.0000      -0.389542       -10.6000
  64   1.0000      -0.380647       -10.3579
  65   1.0000      -0.345441        -9.3999
  66   1.0000      -0.317023        -8.6266
  67   0.0000       0.006605         0.1797
  68   0.0000       0.030098         0.8190
  69   0.0000       0.032050         0.8721
  70   0.0000       0.037247         1.0135
  71   0.0000       0.054416         1.4807

                 SPIN DOWN ORBITALS
  NO   OCC          E(Eh)            E(eV)
   0   1.0000     -19.327529      -525.9288
   1   1.0000     -19.325532      -525.8745
   2   1.0000     -19.324896      -525.8572
   3   1.0000     -19.324197      -525.8381
   4   1.0000     -14.566449      -396.3732
   5   1.0000     -14.563413      -396.2906
   6   1.0000     -14.558753      -396.1638
   7   1.0000     -14.557738      -396.1362
   8   1.0000     -10.513785      -286.0946
   9   1.0000     -10.506345      -285.8922
  10   1.0000     -10.482234      -285.2361
  11   1.0000     -10.473391      -284.9955
  12   1.0000     -10.438381      -284.0428
  13   1.0000     -10.438134      -284.0361
  14   1.0000     -10.399419      -282.9826
  15   1.0000     -10.396697      -282.9085
  16   1.0000     -10.374157      -282.2952
  17   1.0000     -10.359857      -281.9060
  18   1.0000      -1.223184       -33.2845
  19   1.0000      -1.213343       -33.0167
  20   1.0000      -1.191982       -32.4355
  21   1.0000      -1.157717       -31.5031
  22   1.0000      -1.122330       -30.5402
  23   1.0000      -1.097662       -29.8689
  24   1.0000      -1.055605       -28.7245
  25   1.0000      -1.049719       -28.5643
  26   1.0000      -0.985002       -26.8033
  27   1.0000      -0.950944       -25.8765
  28   1.0000      -0.887199       -24.1419
  29   1.0000      -0.849704       -23.1216
  30   1.0000      -0.820907       -22.3380
  31   1.0000      -0.802887       -21.8477
  32   1.0000      -0.776874       -21.1398
  33   1.0000      -0.775118       -21.0920
  34   1.0000      -0.696413       -18.9504
  35   1.0000      -0.695787       -18.9333
  36   1.0000      -0.689166       -18.7532
  37   1.0000      -0.676185       -18.3999
  38   1.0000      -0.647921       -17.6308
  39   1.0000      -0.637259       -17.3407
  40   1.0000      -0.622954       -16.9514
  41   1.0000      -0.596693       -16.2369
  42   1.0000      -0.592740       -16.1293
  43   1.0000      -0.583275       -15.8717
  44   1.0000      -0.571333       -15.5468
  45   1.0000      -0.565216       -15.3803
  46   1.0000      -0.562529       -15.3072
  47   1.0000      -0.558675       -15.2023
  48   1.0000      -0.555966       -15.1286
  49   1.0000      -0.545346       -14.8396
  50   1.0000      -0.542397       -14.7594
  51   1.0000      -0.533598       -14.5199
  52   1.0000      -0.521360       -14.1869
  53   1.0000      -0.513768       -13.9803
  54   1.0000      -0.503882       -13.7113
  55   1.0000      -0.490878       -13.3575
  56   1.0000      -0.486499       -13.2383
  57   1.0000      -0.419066       -11.4034
  58   1.0000      -0.413834       -11.2610
  59   1.0000      -0.407468       -11.0878
  60   1.0000      -0.395708       -10.7678
  61   1.0000      -0.388408       -10.5691
  62   1.0000      -0.384427       -10.4608
  63   1.0000      -0.380910       -10.3651
  64   1.0000      -0.367159        -9.9909
  65   0.0000      -0.065809        -1.7907
  66   0.0000      -0.049260        -1.3404
  67   0.0000       0.006192         0.1685
  68   0.0000       0.029970         0.8155
  69   0.0000       0.031758         0.8642

----------------------------------------------------------------------------------------------------
          SPIN FLIP ABSORPTION SPECTRUM VIA TRANSITION ELECTRIC DIPOLE MOMENTS
----------------------------------------------------------------------------------------------------
     Transition      Energy     Energy  Wavelength fosc(D2)      D2        DX        DY        DZ
                      (eV)      (cm-1)    (nm)                 (au**2)    (au)      (au)      (au)
----------------------------------------------------------------------------------------------------
  1-3A  ->  2-3A    0.103623     835.8  11964.9   0.000049432   0.01947   0.12558   0.00182   0.06081
  1-3A  ->  3-3A    1.894925   15283.6   654.3   0.000858955   0.01850   0.00948   0.06805  -0.11740

Dispersion correction             ... done (  0.1 sec)

MULLIKEN ATOMIC CHARGES AND SPIN DENSITIES
------------------------------------------
   0 O :   -0.673503    0.012487
   1 O :   -0.695005    0.000303
   2 O :   -0.661747   -0.000050
   3 O :   -0.629952    0.000481
   4 N :   -0.249223   -0.004786
   5 N :   -0.231311   -0.003248
   6 N :    0.073769   -0.003847
   7 N :    0.075625   -0.002264
   8 C :    0.329785    0.303277
   9 C :    0.468816    0.228870
  10 C :    0.496545   -0.116329
  11 C :    0.536144   -0.123080
  12 C :   -1.429957   -0.008796
  13 C :   -1.530975   -0.042146
  14 C :    0.113801   -0.170139
  15 C :    0.034546   -0.106437
  16 C :    0.439068    0.007864
  17 C :    0.355776    0.007900
  18 H :    0.519287   -0.005261
  19 H :    0.466444   -0.002328
  20 H :    0.323865    0.004340
  21 H :    0.392346    0.011401
  22 H :    0.302166   -0.001257
  23 H :    0.391511    0.006977
  24 H :    0.362184    0.000282
  25 H :    0.249571    0.004164
  26 H :   -0.014429   -0.000006
  27 H :   -0.017423    0.001034
  28 H :    0.066629   -0.000433
  29 H :    0.135645    0.001026
Sum of atomic charges       :    0.0000000

LOEWDIN ATOMIC CHARGES AND SPIN DENSITIES
-----------------------------------------
   0 O :    0.095478    0.009978
   1 O :    0.033453   -0.000694
   2 O :    0.082737   -0.000137
   3 O :    0.102297    0.000385
   4 N :    0.302117   -0.000050
   5 N :    0.308058   -0.000458
   6 N :    0.336970   -0.005119
   7 N :    0.313690   -0.003835
   8 C :   -0.086816    0.022832
   9 C :   -0.050474   -0.005515
  10 C :   -0.133743   -0.002220
  11 C :   -0.060790   -0.002244
  12 C :    0.204287    0.003373
  13 C :    0.210193   -0.003903
  14 C :   -0.455709   -0.002728
  15 C :   -0.335023   -0.007767
  16 C :   -0.418680   -0.000319
  17 C :   -0.500793   -0.000296
  18 H :    0.060810   -0.001236
  19 H :    0.026567   -0.000213
  20 H :    0.014062    0.000563
  21 H :    0.008290    0.001802
  22 H :    0.004546    0.000277
  23 H :    0.007697   -0.001336
  24 H :    0.020450    0.000126
  25 H :   -0.009598   -0.000488
  26 H :   -0.050593    0.000034
  27 H :   -0.074282   -0.000089
  28 H :    0.015195   -0.000446
  29 H :    0.029603   -0.000277

  Mayer bond orders larger than 0.100000
B(  0-O ,  8-C ) :  -0.1026 B(  0-O , 14-C ) :   1.4113 B(  1-O , 15-C ) :   1.3304
B(  2-O , 16-C ) :   1.5281 B(  3-O , 17-C ) :   1.6081 B(  4-N ,  8-C ) :   0.3203
B(  4-N ,  9-C ) :   0.1885 B(  4-N , 10-C ) :   0.1736 B(  4-N , 16-C ) :   0.9711
B(  4-N , 18-H ) :  -0.1026 B(  4-N , 26-H ) :   1.1385 B(  5-N ,  9-C ) :   0.2306
B(  5-N , 10-C ) :   0.1093 B(  5-N , 11-C ) :   0.1211 B(  5-N , 17-C ) :   1.1303
B(  5-N , 27-H ) :   1.1570 B(  6-N ,  8-C ) :  -0.1421 B(  6-N , 10-C ) :   0.1649
B(  6-N , 14-C ) :   1.0252 B(  6-N , 16-C ) :   0.9865 B(  6-N , 28-H ) :   1.0783
B(  7-N , 11-C ) :   0.1200 B(  7-N , 15-C ) :   1.1076 B(  7-N , 17-C ) :   0.9523
B(  7-N , 29-H ) :   1.0124 B(  8-C ,  9-C ) :   0.1754 B(  8-C , 10-C ) :   0.3886
B(  8-C , 11-C ) :   0.2559 B(  8-C , 12-C ) :   0.4618 B(  8-C , 14-C ) :   0.7237
B(  8-C , 18-H ) :  -0.1621 B(  9-C , 10-C ) :   0.3296 B(  9-C , 11-C ) :   0.3286
B(  9-C , 13-C ) :   0.1521 B(  9-C , 15-C ) :   0.8405 B(  9-C , 19-H ) :  -0.1810
B(  9-C , 24-H ) :  -0.1691 B( 10-C , 11-C ) :   0.3393 B( 10-C , 14-C ) :  -0.1778
B( 10-C , 16-C ) :  -0.1083 B( 10-C , 18-H ) :   0.8350 B( 11-C , 13-C ) :  -0.2406
B( 11-C , 15-C ) :  -0.1265 B( 11-C , 17-C ) :  -0.1620 B( 11-C , 19-H ) :   0.9204
B( 12-C , 20-H ) :   0.8860 B( 12-C , 21-H ) :   0.8784 B( 12-C , 22-H ) :   0.9672
B( 13-C , 14-C ) :   0.1056 B( 13-C , 23-H ) :   0.8703 B( 13-C , 24-H ) :   1.0295
B( 13-C , 25-H ) :   0.9231

Dispersion correction           -0.062024586
FINAL SINGLE POINT ENERGY      -908.766474031919

DIPOLE MOMENT
-------------

Method             : TDA/CIS
Type of density    : Electron Density
Level              : Relaxed density
State              :   2
Multiplicity       :   3
Irrep              :   0
Energy             :     0.0000000000000000 Eh
Relativity type    :
Basis              : AO
                                X                 Y                 Z
Electronic contribution:     -4.613945027      -8.624669019      -6.150239032
Nuclear contribution   :      4.660938280      10.149836483       8.668602127
                        -----------------------------------------
Total Dipole Moment    :      0.046993254       1.525167463       2.518363096
                        -----------------------------------------
Magnitude (a.u.)       :      2.944570739
Magnitude (Debye)      :      7.484504016

Rotational constants in cm-1:             0.022377             0.013336             0.012777
Rotational constants in MHz :           670.856350           399.795043           383.043813

                             ****ORCA TERMINATED NORMALLY****
TOTAL RUN TIME: 0 days 0 hours 5 minutes 21 seconds 752 msec
