                         Program Version 6.0.0  -   RELEASE  -
|  1> ! Opt wB97M-D3BJ def2-TZVPPD
|  2> %pal nprocs 8 end %pal nprocs 64 end
|  3> %geom
|  4> Constraints
|  5>     {A 2 1 0 122.72727272727272 C }
|  6> end
|  7> MaxIter 500
|  8> end
|  9> *xyz 0 1
| 10> O   -0.0007 0.8141 0.0
| 11> C   0.7509 -0.4065 0.0
| 12> C   -0.7502 -0.4076 0.0
| 13> H   1.2625 -0.6786 0.9136
| 14> H   1.2625 -0.6787 -0.9136
| 15> H   -1.2614 -0.6806 -0.9136
| 16> H   -1.2614 -0.6805 0.9136
| 17> *
| 18>
| 19>                          ****END OF INPUT****
 Total Charge           Charge          ....    0
 Multiplicity           Mult            ....    1
 Number of Electrons    NEL             ....   24
Dispersion correction           -0.005764589
FINAL SINGLE POINT ENERGY      -153.604085699920
Dispersion correction             ... done (  0.1 sec)
Dispersion correction           -0.005657798
FINAL SINGLE POINT ENERGY      -153.694657139338
Dispersion correction             ... done (  0.1 sec)
Dispersion correction           -0.005582095
FINAL SINGLE POINT ENERGY      -153.717391673496
Dispersion correction             ... done (  0.1 sec)
FINAL SINGLE POINT ENERGY      -153.730359306141
FINAL SINGLE POINT ENERGY      -153.740134075315
FINAL SINGLE POINT ENERGY      -153.744863933249
FINAL SINGLE POINT ENERGY      -153.748279738511
FINAL SINGLE POINT ENERGY      -153.757731909990
FINAL SINGLE POINT ENERGY      -153.770148236947
FINAL SINGLE POINT ENERGY      -153.785916416093
FINAL SINGLE POINT ENERGY      -153.931762233636
FINAL SINGLE POINT ENERGY      -153.931778800647
FINAL SINGLE POINT ENERGY      -153.931794023573
FINAL SINGLE POINT ENERGY      -153.931804747022
FINAL SINGLE POINT ENERGY      -153.931811938029
FINAL SINGLE POINT ENERGY      -153.931816789113
FINAL SINGLE POINT ENERGY      -153.931819801767
Dispersion correction             ... done (  0.1 sec)
Dispersion correction           -0.005540851
FINAL SINGLE POINT ENERGY      -153.931821220800
Dispersion correction             ... done (  0.1 sec)
Dispersion correction           -0.005540503
FINAL SINGLE POINT ENERGY      -153.931821915483
Dispersion correction             ... done (  0.1 sec)
                    ***********************HURRAY********************

CARTESIAN COORDINATES (ANGSTROEM)
---------------------------------
  O      0.520778    1.346910    0.095335
  C      0.557940    0.199739   -0.264046
  C     -0.427815   -0.830029    0.205528
  H      0.101490   -1.648456    0.695554
  H      1.336766   -0.146677   -0.968614
  H     -0.946231   -1.259145   -0.653071
  H     -1.140730   -0.380741    0.889314

 Multiplicity           Mult            ....    1
 Number of Electrons    NEL             ....   24
 Basis Dimension        Dim             ....  182

ORBITAL ENERGIES
----------------

  NO   OCC          E(Eh)            E(eV)
   0   2.0000     -19.338846      -526.2367
   1   2.0000     -10.442900      -284.1657
   2   2.0000     -10.355959      -281.8000
   3   2.0000      -1.187828       -32.3224
   4   2.0000      -0.881759       -23.9939
   5   2.0000      -0.703910       -19.1544
   6   2.0000      -0.598494       -16.2859
   7   2.0000      -0.559711       -15.2305
   8   2.0000      -0.552416       -15.0320
   9   2.0000      -0.507968       -13.8225
  10   2.0000      -0.475180       -12.9303
  11   2.0000      -0.368607       -10.0303
  12   0.0000       0.038011         1.0343
  13   0.0000       0.053912         1.4670
  14   0.0000       0.059161         1.6099
  15   0.0000       0.083645         2.2761
  16   0.0000       0.086453         2.3525

MULLIKEN ATOMIC CHARGES
-----------------------
   0 O :   -0.474730
   1 C :    0.237576
   2 C :   -0.695857
   3 H :    0.224607
   4 H :    0.242387
   5 H :    0.224409
   6 H :    0.241609
Sum of atomic charges:   -0.0000000

LOEWDIN ATOMIC CHARGES
----------------------
   0 O :    0.065461
   1 C :   -0.223647
   2 C :    0.167613
   3 H :   -0.011801
   4 H :    0.023394
   5 H :   -0.011835
   6 H :   -0.009185

  Mayer bond orders larger than 0.100000
B(  0-O ,  1-C ) :   1.7707 B(  1-C ,  2-C ) :   0.7629 B(  1-C ,  4-H ) :   0.9842
B(  2-C ,  3-H ) :   0.9931 B(  2-C ,  5-H ) :   0.9931 B(  2-C ,  6-H ) :   0.9572

Dispersion correction           -0.005540272
FINAL SINGLE POINT ENERGY      -153.931822264284

DIPOLE MOMENT
-------------

Method             : SCF
Type of density    : Electron Density
Multiplicity       :   1
Irrep              :   0
Energy             :  -153.9262819925141343 Eh
Relativity type    :
Basis              : AO
                                X                 Y                 Z
Electronic contribution:      1.273302741       3.009216314      -0.122836175
Nuclear contribution   :     -1.391202744      -4.102108157      -0.100290227
                        -----------------------------------------
Total Dipole Moment    :     -0.117900003      -1.092891843      -0.223126402
                        -----------------------------------------
Magnitude (a.u.)       :      1.121649848
Magnitude (Debye)      :      2.851007341

Rotational constants in cm-1:             1.865774             0.345549             0.308027
Rotational constants in MHz :         55934.494050         10359.289393          9234.430321

                             ****ORCA TERMINATED NORMALLY****
TOTAL RUN TIME: 0 days 0 hours 9 minutes 46 seconds 568 msec
