                         Program Version 6.0.0  -   RELEASE  -
|  1> ! Engrad def2-TZVPPD wB97M-D3BJ
|  2> %pal nprocs 8 end%pal nprocs 64 end
|  3> %tddft
|  4>  Iroot 1 Nroots 3
|  5> sf true
|  6> end
|  7> *xyz 0 3
|  8> O   3.09413367 -1.57932104 -1.89377477
|  9> O   -2.34909243 1.21354556 -1.55725262
| 10> O   -1.24702819 -2.31356638 -1.06428307
| 11> O   -2.65059418 0.88127178 2.87919616
| 12> N   0.13757252 -1.50026125 0.58515864
| 13> N   -0.56024396 1.14752956 1.97236407
| 14> N   0.86106298 -1.51304565 -1.6363292
| 15> N   -2.49944085 0.90874488 0.63008548
| 16> C   2.24240013 -0.56218736 0.07202531
| 17> C   -0.35345154 1.29959989 -0.32569976
| 18> C   1.02774748 -0.43319616 0.93632799
| 19> C   0.34652968 0.98384135 0.89378183
| 20> C   3.5358772 0.09252103 0.34112454
| 21> C   0.36721545 1.57551027 -1.58129769
| 22> C   2.1516749 -1.22846355 -1.20494682
| 23> C   -1.76990785 1.14454617 -0.51327118
| 24> C   -0.21555659 -1.76348968 -0.69264554
| 25> C   -1.93079428 1.02519394 1.89265067
| 26> H   1.33505836 -0.62784355 1.97264417
| 27> H   1.2147921 1.65833036 0.88941825
| 28> H   4.05325907 -0.25583274 1.28030465
| 29> H   4.25465828 -0.21331448 -0.42729554
| 30> H   3.54731103 1.19831557 0.26968371
| 31> H   0.10105503 2.47948319 -2.1225073
| 32> H   1.46967488 1.36970695 -1.61935177
| 33> H   0.03719543 0.88752978 -2.44431321
| 34> H   -0.70021057 -1.72754064 1.19480611
| 35> H   -0.25308549 0.91684765 2.91737483
| 36> H   0.78354538 -1.97768272 -2.53605923
| 37> H   -3.47326817 0.83019687 0.53765407
| 38> *
| 39>
| 40>                          ****END OF INPUT****

CARTESIAN COORDINATES (ANGSTROEM)
---------------------------------
  O      3.094134   -1.579321   -1.893775
  O     -2.349092    1.213546   -1.557253
  O     -1.247028   -2.313566   -1.064283
  O     -2.650594    0.881272    2.879196
  N      0.137573   -1.500261    0.585159
  N     -0.560244    1.147530    1.972364
  N      0.861063   -1.513046   -1.636329
  N     -2.499441    0.908745    0.630085
  C      2.242400   -0.562187    0.072025
  C     -0.353452    1.299600   -0.325700
  C      1.027747   -0.433196    0.936328
  C      0.346530    0.983841    0.893782
  C      3.535877    0.092521    0.341125
  C      0.367215    1.575510   -1.581298
  C      2.151675   -1.228464   -1.204947
  C     -1.769908    1.144546   -0.513271
  C     -0.215557   -1.763490   -0.692646
  C     -1.930794    1.025194    1.892651
  H      1.335058   -0.627844    1.972644
  H      1.214792    1.658330    0.889418
  H      4.053259   -0.255833    1.280305
  H      4.254658   -0.213314   -0.427296
  H      3.547311    1.198316    0.269684
  H      0.101055    2.479483   -2.122507
  H      1.469675    1.369707   -1.619352
  H      0.037195    0.887530   -2.444313
  H     -0.700211   -1.727541    1.194806
  H     -0.253085    0.916848    2.917375
  H      0.783545   -1.977683   -2.536059
  H     -3.473268    0.830197    0.537654

 Total Charge           Charge          ....    0
 Multiplicity           Mult            ....    3
 Number of Electrons    NEL             ....  132
 Basis Dimension        Dim             ....  882

ORBITAL ENERGIES
----------------
                 SPIN UP ORBITALS
  NO   OCC          E(Eh)            E(eV)
   0   1.0000     -19.335924      -526.1572
   1   1.0000     -19.329315      -525.9774
   2   1.0000     -19.328063      -525.9433
   3   1.0000     -19.320572      -525.7395
   4   1.0000     -14.571686      -396.5157
   5   1.0000     -14.571306      -396.5054
   6   1.0000     -14.560763      -396.2185
   7   1.0000     -14.558559      -396.1585
   8   1.0000     -10.512392      -286.0567
   9   1.0000     -10.511784      -286.0402
  10   1.0000     -10.479855      -285.1713
  11   1.0000     -10.473806      -285.0068
  12   1.0000     -10.453940      -284.4662
  13   1.0000     -10.447502      -284.2910
  14   1.0000     -10.424578      -283.6672
  15   1.0000     -10.417282      -283.4687
  16   1.0000     -10.380260      -282.4612
  17   1.0000     -10.375041      -282.3192
  18   1.0000      -1.225412       -33.3452
  19   1.0000      -1.216844       -33.1120
  20   1.0000      -1.199942       -32.6521
  21   1.0000      -1.196757       -32.5654
  22   1.0000      -1.127790       -30.6887
  23   1.0000      -1.104500       -30.0550
  24   1.0000      -1.071305       -29.1517
  25   1.0000      -1.053060       -28.6552
  26   1.0000      -0.987087       -26.8600
  27   1.0000      -0.965200       -26.2644
  28   1.0000      -0.896823       -24.4038
  29   1.0000      -0.848070       -23.0772
  30   1.0000      -0.825107       -22.4523
  31   1.0000      -0.810203       -22.0467
  32   1.0000      -0.785493       -21.3744
  33   1.0000      -0.771133       -20.9836
  34   1.0000      -0.707748       -19.2588
  35   1.0000      -0.697762       -18.9871
  36   1.0000      -0.693355       -18.8671
  37   1.0000      -0.688932       -18.7468
  38   1.0000      -0.669015       -18.2048
  39   1.0000      -0.641338       -17.4517
  40   1.0000      -0.626937       -17.0598
  41   1.0000      -0.607368       -16.5273
  42   1.0000      -0.601120       -16.3573
  43   1.0000      -0.587642       -15.9906
  44   1.0000      -0.574924       -15.6445
  45   1.0000      -0.570027       -15.5112
  46   1.0000      -0.564906       -15.3719
  47   1.0000      -0.564357       -15.3569
  48   1.0000      -0.560926       -15.2636
  49   1.0000      -0.559864       -15.2347
  50   1.0000      -0.553522       -15.0621
  51   1.0000      -0.534496       -14.5444
  52   1.0000      -0.531938       -14.4748
  53   1.0000      -0.524109       -14.2617
  54   1.0000      -0.514387       -13.9972
  55   1.0000      -0.492319       -13.3967
  56   1.0000      -0.491003       -13.3609
  57   1.0000      -0.429855       -11.6970
  58   1.0000      -0.420195       -11.4341
  59   1.0000      -0.416428       -11.3316
  60   1.0000      -0.403354       -10.9758
  61   1.0000      -0.401842       -10.9347
  62   1.0000      -0.393340       -10.7033
  63   1.0000      -0.388806       -10.5799
  64   1.0000      -0.386344       -10.5130
  65   1.0000      -0.356327        -9.6961
  66   1.0000      -0.328600        -8.9417
  67   0.0000       0.009040         0.2460
  68   0.0000       0.026769         0.7284
  69   0.0000       0.034425         0.9367
  70   0.0000       0.034615         0.9419
  71   0.0000       0.053628         1.4593

                 SPIN DOWN ORBITALS
  NO   OCC          E(Eh)            E(eV)
   0   1.0000     -19.331730      -526.0431
   1   1.0000     -19.327728      -525.9342
   2   1.0000     -19.325716      -525.8795
   3   1.0000     -19.320434      -525.7357
   4   1.0000     -14.571455      -396.5094
   5   1.0000     -14.571329      -396.5060
   6   1.0000     -14.560133      -396.2014
   7   1.0000     -14.557952      -396.1420
   8   1.0000     -10.512444      -286.0581
   9   1.0000     -10.511868      -286.0425
  10   1.0000     -10.480914      -285.2002
  11   1.0000     -10.474663      -285.0301
  12   1.0000     -10.453272      -284.4480
  13   1.0000     -10.447311      -284.2858
  14   1.0000     -10.413042      -283.3533
  15   1.0000     -10.406188      -283.1668
  16   1.0000     -10.380961      -282.4803
  17   1.0000     -10.375543      -282.3329
  18   1.0000      -1.222351       -33.2619
  19   1.0000      -1.214170       -33.0392
  20   1.0000      -1.197177       -32.5768
  21   1.0000      -1.192637       -32.4533
  22   1.0000      -1.125126       -30.6162
  23   1.0000      -1.102511       -30.0009
  24   1.0000      -1.069484       -29.1021
  25   1.0000      -1.051266       -28.6064
  26   1.0000      -0.974493       -26.5173
  27   1.0000      -0.947254       -25.7761
  28   1.0000      -0.890281       -24.2258
  29   1.0000      -0.843820       -22.9615
  30   1.0000      -0.816828       -22.2270
  31   1.0000      -0.803820       -21.8730
  32   1.0000      -0.784184       -21.3387
  33   1.0000      -0.769547       -20.9404
  34   1.0000      -0.703561       -19.1449
  35   1.0000      -0.690963       -18.8021
  36   1.0000      -0.688958       -18.7475
  37   1.0000      -0.682069       -18.5600
  38   1.0000      -0.655844       -17.8464
  39   1.0000      -0.635630       -17.2964
  40   1.0000      -0.624042       -16.9810
  41   1.0000      -0.599850       -16.3227
  42   1.0000      -0.594106       -16.1665
  43   1.0000      -0.582425       -15.8486
  44   1.0000      -0.567210       -15.4346
  45   1.0000      -0.561028       -15.2663
  46   1.0000      -0.560830       -15.2609
  47   1.0000      -0.558746       -15.2043
  48   1.0000      -0.554835       -15.0978
  49   1.0000      -0.553620       -15.0648
  50   1.0000      -0.540161       -14.6985
  51   1.0000      -0.526914       -14.3380
  52   1.0000      -0.525211       -14.2917
  53   1.0000      -0.514944       -14.0123
  54   1.0000      -0.506369       -13.7790
  55   1.0000      -0.489095       -13.3089
  56   1.0000      -0.482510       -13.1298
  57   1.0000      -0.426134       -11.5957
  58   1.0000      -0.416490       -11.3333
  59   1.0000      -0.411737       -11.2039
  60   1.0000      -0.391987       -10.6665
  61   1.0000      -0.390362       -10.6223
  62   1.0000      -0.387259       -10.5378
  63   1.0000      -0.384514       -10.4632
  64   1.0000      -0.380087       -10.3427
  65   0.0000      -0.074742        -2.0338
  66   0.0000      -0.051842        -1.4107
  67   0.0000       0.008476         0.2306
  68   0.0000       0.026545         0.7223
  69   0.0000       0.034198         0.9306

----------------------------------------------------------------------------------------------------
          SPIN FLIP ABSORPTION SPECTRUM VIA TRANSITION ELECTRIC DIPOLE MOMENTS
----------------------------------------------------------------------------------------------------
     Transition      Energy     Energy  Wavelength fosc(D2)      D2        DX        DY        DZ
                      (eV)      (cm-1)    (nm)                 (au**2)    (au)      (au)      (au)
----------------------------------------------------------------------------------------------------
  1-3A  ->  2-3A    0.162584    1311.3  7625.9   0.000048680   0.01222   0.08242  -0.05607  -0.04779
  1-3A  ->  3-3A    2.245202   18108.8   552.2   0.000723868   0.01316   0.11406   0.00793  -0.00930

Dispersion correction             ... done (  0.1 sec)

MULLIKEN ATOMIC CHARGES AND SPIN DENSITIES
------------------------------------------
   0 O :   -0.653682    0.061977
   1 O :   -0.662563   -0.057089
   2 O :   -0.653980   -0.003288
   3 O :   -0.672208   -0.000611
   4 N :   -0.278670   -0.014811
   5 N :   -0.332966   -0.018350
   6 N :    0.096198    0.004796
   7 N :    0.060382   -0.014517
   8 C :   -0.155115    0.364774
   9 C :    0.443763    0.339324
  10 C :    0.707254   -0.074475
  11 C :    0.102925   -0.319262
  12 C :   -1.295789   -0.005367
  13 C :   -1.244093   -0.011901
  14 C :    0.301639   -0.020876
  15 C :    0.310854   -0.282032
  16 C :    0.263748   -0.004954
  17 C :    0.366562    0.014987
  18 H :    0.580149    0.017971
  19 H :    0.610253    0.000293
  20 H :    0.340879    0.012116
  21 H :    0.278670    0.001038
  22 H :    0.302580    0.015656
  23 H :    0.346464   -0.007832
  24 H :    0.225300    0.000297
  25 H :    0.288293   -0.004113
  26 H :    0.151856   -0.001428
  27 H :    0.121805    0.003348
  28 H :    0.057448    0.000880
  29 H :   -0.007955    0.003451
Sum of atomic charges       :   -0.0000000

LOEWDIN ATOMIC CHARGES AND SPIN DENSITIES
-----------------------------------------
   0 O :    0.085609    0.055000
   1 O :    0.117178   -0.046743
   2 O :    0.080801   -0.002250
   3 O :    0.060463   -0.000806
   4 N :    0.248450   -0.000279
   5 N :    0.275114   -0.001189
   6 N :    0.318005    0.007208
   7 N :    0.350281   -0.012688
   8 C :   -0.044208    0.214313
   9 C :   -0.029248   -0.186418
  10 C :   -0.100979    0.006186
  11 C :   -0.147723   -0.022692
  12 C :    0.168816    0.032624
  13 C :    0.181097   -0.028797
  14 C :   -0.432186    0.030781
  15 C :   -0.445291   -0.038376
  16 C :   -0.452104   -0.002332
  17 C :   -0.445158   -0.000604
  18 H :    0.068593    0.002335
  19 H :    0.059702   -0.005835
  20 H :    0.030634    0.008490
  21 H :   -0.010583   -0.000258
  22 H :    0.012072    0.009525
  23 H :    0.006121   -0.008636
  24 H :    0.016122    0.001391
  25 H :    0.045578   -0.009546
  26 H :    0.036694    0.000015
  27 H :   -0.011970    0.000174
  28 H :   -0.008855    0.000652
  29 H :   -0.033024   -0.001243

  Mayer bond orders larger than 0.100000
B(  0-O , 14-C ) :   1.3379 B(  1-O , 15-C ) :   1.3515 B(  2-O , 16-C ) :   1.4859
B(  3-O , 17-C ) :   1.5988 B(  4-N ,  8-C ) :   0.3043 B(  4-N , 16-C ) :   1.0832
B(  4-N , 26-H ) :   0.9393 B(  5-N ,  9-C ) :   0.2650 B(  5-N , 10-C ) :   0.1090
B(  5-N , 11-C ) :   0.1482 B(  5-N , 17-C ) :   1.1984 B(  5-N , 19-H ) :  -0.2150
B(  5-N , 27-H ) :   1.0185 B(  6-N ,  8-C ) :  -0.1209 B(  6-N , 10-C ) :   0.1243
B(  6-N , 14-C ) :   1.1029 B(  6-N , 16-C ) :   0.9103 B(  6-N , 28-H ) :   1.0714
B(  7-N , 15-C ) :   1.0555 B(  7-N , 17-C ) :   1.0023 B(  7-N , 29-H ) :   1.1256
B(  8-C ,  9-C ) :   0.1865 B(  8-C , 10-C ) :   0.1858 B(  8-C , 11-C ) :   0.3118
B(  8-C , 12-C ) :   0.7281 B(  8-C , 13-C ) :   0.1035 B(  8-C , 14-C ) :   0.8368
B(  8-C , 16-C ) :   0.1130 B(  8-C , 18-H ) :  -0.1390 B(  8-C , 21-H ) :  -0.1199
B(  9-C , 11-C ) :   0.7261 B(  9-C , 13-C ) :   0.5540 B(  9-C , 15-C ) :   0.5566
B(  9-C , 17-C ) :   0.1079 B(  9-C , 19-H ) :  -0.2020 B( 10-C , 11-C ) :   0.3536
B( 10-C , 12-C ) :  -0.1704 B( 10-C , 16-C ) :  -0.1250 B( 10-C , 18-H ) :   0.7699
B( 10-C , 19-H ) :  -0.1128 B( 11-C , 12-C ) :   0.1235 B( 11-C , 17-C ) :  -0.3346
B( 11-C , 18-H ) :  -0.1188 B( 11-C , 19-H ) :   0.7951 B( 12-C , 20-H ) :   0.9127
B( 12-C , 21-H ) :   1.0523 B( 12-C , 22-H ) :   0.8468 B( 13-C , 23-H ) :   0.8855
B( 13-C , 24-H ) :   0.9798 B( 13-C , 25-H ) :   0.9703

Dispersion correction           -0.059193771
FINAL SINGLE POINT ENERGY      -908.778388930254

DIPOLE MOMENT
-------------

Method             : TDA/CIS
Type of density    : Electron Density
Level              : Relaxed density
State              :   1
Multiplicity       :   3
Irrep              :   0
Energy             :     0.0000000000000000 Eh
Relativity type    :
Basis              : AO
                                X                 Y                 Z
Electronic contribution:     -9.724948623      -3.818811259       0.893193302
Nuclear contribution   :     11.635282562       4.763801798       0.204281061
                        -----------------------------------------
Total Dipole Moment    :      1.910333939       0.944990539       1.097474363
                        -----------------------------------------
Magnitude (a.u.)       :      2.397255275
Magnitude (Debye)      :      6.093338664

Rotational constants in cm-1:             0.024086             0.011812             0.010712
Rotational constants in MHz :           722.065667           354.119919           321.149883

                             ****ORCA TERMINATED NORMALLY****
TOTAL RUN TIME: 0 days 0 hours 5 minutes 1 seconds 426 msec
