                         Program Version 6.0.0  -   RELEASE  -
|  1> ! Opt wB97M-D3BJ def2-TZVPPD
|  2> %pal nprocs 8 end %pal nprocs 64 end
|  3> %geom
|  4> Constraints
|  5>     {A 2 1 0 67.62711864406779 C }
|  6> end
|  7> MaxIter 200
|  8> end
|  9> *xyz 0 1
| 10> O   0.20431238655546846 0.9186448603186793 0.0
| 11> C   0.7509 -0.4065 0.0
| 12> C   -0.7502 -0.4076 0.0
| 13> H   1.2625 -0.6786 0.9136
| 14> H   1.2625 -0.6787 -0.9136
| 15> H   -1.2614 -0.6806 -0.9136
| 16> H   -1.2614 -0.6805 0.9136
| 17> *
| 18>
| 19>                          ****END OF INPUT****
 Total Charge           Charge          ....    0
 Multiplicity           Mult            ....    1
 Number of Electrons    NEL             ....   24
Dispersion correction           -0.005176753
FINAL SINGLE POINT ENERGY      -153.869819388547
Dispersion correction             ... done (  0.1 sec)
Dispersion correction           -0.005222688
FINAL SINGLE POINT ENERGY      -153.879241939489
Dispersion correction             ... done (  0.1 sec)
Dispersion correction           -0.005244810
FINAL SINGLE POINT ENERGY      -153.880570976648
Dispersion correction             ... done (  0.1 sec)
FINAL SINGLE POINT ENERGY      -153.880696809749
FINAL SINGLE POINT ENERGY      -153.880750570968
Dispersion correction             ... done (  0.1 sec)
Dispersion correction           -0.005236663
FINAL SINGLE POINT ENERGY      -153.880755890144
Dispersion correction             ... done (  0.1 sec)
Dispersion correction           -0.005237300
FINAL SINGLE POINT ENERGY      -153.880757353925
Dispersion correction             ... done (  0.1 sec)
                    ***********************HURRAY********************

CARTESIAN COORDINATES (ANGSTROEM)
---------------------------------
  O      0.134626    0.842402   -0.000085
  C      0.724121   -0.402414    0.000029
  C     -0.701471   -0.476315   -0.000047
  H      1.263498   -0.671734    0.905675
  H      1.263503   -0.671771   -0.905609
  H     -1.238586   -0.617225   -0.924112
  H     -1.238479   -0.616797    0.924149

 Multiplicity           Mult            ....    1
 Number of Electrons    NEL             ....   24
 Basis Dimension        Dim             ....  182

ORBITAL ENERGIES
----------------

  NO   OCC          E(Eh)            E(eV)
   0   2.0000     -19.349492      -526.5264
   1   2.0000     -10.403789      -283.1015
   2   2.0000     -10.397109      -282.9197
   3   2.0000      -1.190909       -32.4063
   4   2.0000      -0.821437       -22.3524
   5   2.0000      -0.748436       -20.3660
   6   2.0000      -0.629980       -17.1426
   7   2.0000      -0.593024       -16.1370
   8   2.0000      -0.497274       -13.5315
   9   2.0000      -0.491603       -13.3772
  10   2.0000      -0.426261       -11.5992
  11   2.0000      -0.381911       -10.3923
  12   0.0000       0.041455         1.1280
  13   0.0000       0.058399         1.5891
  14   0.0000       0.070774         1.9259
  15   0.0000       0.077483         2.1084
  16   0.0000       0.113336         3.0840

MULLIKEN ATOMIC CHARGES
-----------------------
   0 O :   -0.396487
   1 C :   -0.129869
   2 C :   -0.222795
   3 H :    0.189620
   4 H :    0.189597
   5 H :    0.184950
   6 H :    0.184983
Sum of atomic charges:   -0.0000000

LOEWDIN ATOMIC CHARGES
----------------------
   0 O :   -0.030195
   1 C :   -0.133096
   2 C :    0.113652
   3 H :    0.020188
   4 H :    0.020188
   5 H :    0.004634
   6 H :    0.004629

  Mayer bond orders larger than 0.100000
B(  0-O ,  1-C ) :   0.7671 B(  0-O ,  2-C ) :   0.8734 B(  1-C ,  2-C ) :   0.8133
B(  1-C ,  3-H ) :   1.0359 B(  1-C ,  4-H ) :   1.0359 B(  2-C ,  5-H ) :   0.9969
B(  2-C ,  6-H ) :   0.9969

Dispersion correction           -0.005237416
FINAL SINGLE POINT ENERGY      -153.880757474183

DIPOLE MOMENT
-------------

Method             : SCF
Type of density    : Electron Density
Multiplicity       :   1
Irrep              :   0
Energy             :  -153.8755200586373633 Eh
Relativity type    :
Basis              : AO
                                X                 Y                 Z
Electronic contribution:      0.051908537       1.586495952      -0.000175811
Nuclear contribution   :     -0.162936053      -2.433513176       0.000221342
                        -----------------------------------------
Total Dipole Moment    :     -0.111027516      -0.847017225       0.000045531
                        -----------------------------------------
Magnitude (a.u.)       :      0.854263010
Magnitude (Debye)      :      2.171364010

Rotational constants in cm-1:             0.870476             0.709719             0.463527
Rotational constants in MHz :         26096.216824         21276.827640         13896.197010

                             ****ORCA TERMINATED NORMALLY****
TOTAL RUN TIME: 0 days 0 hours 1 minutes 40 seconds 473 msec
