                         Program Version 6.0.0  -   RELEASE  -
|  1> ! EnGrad wB97M-D3BJ def2-TZVPPD
|  2> %pal nprocs 8 end%pal nprocs 16 end
|  3> %tddft
|  4>  sf true
|  5>  nroots 2 Iroot 1 end
|  6> *xyz 0 3
|  7> O   0.5552046840945 1.35266518537445 0.09137100461264
|  8> C   0.55294568119495 0.20336639245731 -0.25973156114805
|  9> C   -0.43034714435877 -0.82715629103059 0.20930635441197
| 10> H   0.10709131351004 -1.65115383646049 0.68028249652831
| 11> H   1.31266476227656 -0.15947161149459 -0.97897072926009
| 12> H   -0.95676426955339 -1.24340441691848 -0.65057461292571
| 13> H   -1.1385950271639 -0.39324542192759 0.90831704778092
| 14> *
| 15>
| 16>                          ****END OF INPUT****

CARTESIAN COORDINATES (ANGSTROEM)
---------------------------------
  O      0.555205    1.352665    0.091371
  C      0.552946    0.203366   -0.259732
  C     -0.430347   -0.827156    0.209306
  H      0.107091   -1.651154    0.680282
  H      1.312665   -0.159472   -0.978971
  H     -0.956764   -1.243404   -0.650575
  H     -1.138595   -0.393245    0.908317

 Total Charge           Charge          ....    0
 Multiplicity           Mult            ....    3
 Number of Electrons    NEL             ....   24
 Basis Dimension        Dim             ....  182

ORBITAL ENERGIES
----------------
                 SPIN UP ORBITALS
  NO   OCC          E(Eh)            E(eV)
   0   1.0000     -19.409738      -528.1658
   1   1.0000     -10.379442      -282.4390
   2   1.0000     -10.366918      -282.0982
   3   1.0000      -1.246344       -33.9147
   4   1.0000      -0.882091       -24.0029
   5   1.0000      -0.718244       -19.5444
   6   1.0000      -0.635325       -17.2881
   7   1.0000      -0.586978       -15.9725
   8   1.0000      -0.582053       -15.8385
   9   1.0000      -0.514881       -14.0106
  10   1.0000      -0.513476       -13.9724
  11   1.0000      -0.433867       -11.8061
  12   1.0000      -0.220624        -6.0035
  13   0.0000       0.041031         1.1165
  14   0.0000       0.060266         1.6399
  15   0.0000       0.078562         2.1378
  16   0.0000       0.087978         2.3940
  17   0.0000       0.107852         2.9348

                 SPIN DOWN ORBITALS
  NO   OCC          E(Eh)            E(eV)
   0   1.0000     -19.382073      -527.4130
   1   1.0000     -10.369171      -282.1595
   2   1.0000     -10.364736      -282.0388
   3   1.0000      -1.188568       -32.3426
   4   1.0000      -0.862839       -23.4791
   5   1.0000      -0.673658       -18.3312
   6   1.0000      -0.585984       -15.9454
   7   1.0000      -0.540749       -14.7145
   8   1.0000      -0.535322       -14.5669
   9   1.0000      -0.499552       -13.5935
  10   1.0000      -0.471238       -12.8230
  11   0.0000      -0.083111        -2.2616
  12   0.0000       0.041373         1.1258
  13   0.0000       0.059926         1.6307
  14   0.0000       0.078481         2.1356
  15   0.0000       0.083995         2.2856

----------------------------------------------------------------------------------------------------
          SPIN FLIP ABSORPTION SPECTRUM VIA TRANSITION ELECTRIC DIPOLE MOMENTS
----------------------------------------------------------------------------------------------------
     Transition      Energy     Energy  Wavelength fosc(D2)      D2        DX        DY        DZ
                      (eV)      (cm-1)    (nm)                 (au**2)    (au)      (au)      (au)
----------------------------------------------------------------------------------------------------
  1-3A  ->  2-3A    4.575858   36906.8   271.0   0.000082815   0.00074   0.01643  -0.00632   0.02071

Dispersion correction             ... done (  0.0 sec)

MULLIKEN ATOMIC CHARGES AND SPIN DENSITIES
------------------------------------------
   0 O :   -0.511130    0.056564
   1 C :    0.205793   -0.175739
   2 C :   -0.686418    0.047527
   3 H :    0.229333   -0.005029
   4 H :    0.293107    0.077272
   5 H :    0.228197   -0.005015
   6 H :    0.241118    0.004419
Sum of atomic charges       :   -0.0000000

LOEWDIN ATOMIC CHARGES AND SPIN DENSITIES
-----------------------------------------
   0 O :    0.041206    0.022039
   1 C :   -0.222585   -0.014993
   2 C :    0.176176   -0.001820
   3 H :   -0.009425   -0.001308
   4 H :    0.030378   -0.003550
   5 H :   -0.009373   -0.001293
   6 H :   -0.006377    0.000923

  Mayer bond orders larger than 0.100000
B(  0-O ,  1-C ) :   1.7875 B(  1-C ,  2-C ) :   0.7410 B(  1-C ,  4-H ) :   0.9324
B(  2-C ,  3-H ) :   0.9924 B(  2-C ,  5-H ) :   0.9927 B(  2-C ,  6-H ) :   0.9597

Dispersion correction           -0.005535861
FINAL SINGLE POINT ENERGY      -153.924713630126

DIPOLE MOMENT
-------------

Method             : TDA/CIS
Type of density    : Electron Density
Level              : Relaxed density
State              :   1
Multiplicity       :   3
Irrep              :   0
Energy             :     0.0000000000000000 Eh
Relativity type    :
Basis              : AO
                                X                 Y                 Z
Electronic contribution:      1.284230774       2.906319950      -0.133736165
Nuclear contribution   :     -1.452983255      -4.127016092      -0.106756054
                        -----------------------------------------
Total Dipole Moment    :     -0.168752480      -1.220696142      -0.240492219
                        -----------------------------------------
Magnitude (a.u.)       :      1.255552858
Magnitude (Debye)      :      3.191361742

Rotational constants in cm-1:             1.915063             0.340823             0.305556
Rotational constants in MHz :         57412.134404         10217.619409          9160.329888

                             ****ORCA TERMINATED NORMALLY****
TOTAL RUN TIME: 0 days 0 hours 0 minutes 16 seconds 293 msec
