                         Program Version 6.0.0  -   RELEASE  -
|  1> ! Engrad def2-TZVPPD wB97M-D3BJ
|  2> %pal nprocs 8 end%pal nprocs 64 end
|  3> %tddft
|  4>  Iroot 1 Nroots 3
|  5> sf true
|  6> end
|  7> *xyz 0 3
|  8> O   3.16023436 -1.44240555 -1.87460226
|  9> O   -2.30057501 1.33965212 -1.65804988
| 10> O   -1.21856814 -2.30691387 -1.07206488
| 11> O   -2.65382557 0.9290691 2.89051992
| 12> N   0.08538435 -1.44638546 0.59740742
| 13> N   -0.62857769 1.02097978 2.00940476
| 14> N   0.89043587 -1.6612317 -1.59037661
| 15> N   -2.5221405 0.99872535 0.58273377
| 16> C   2.1973795 -0.56706418 -0.0109241
| 17> C   -0.33567156 1.1775581 -0.36916053
| 18> C   1.05480597 -0.41807247 0.9744796
| 19> C   0.3217812 0.99750726 0.93507376
| 20> C   3.49904227 -0.00563286 0.38579359
| 21> C   0.46534587 1.66163457 -1.54652353
| 22> C   2.11372709 -1.29481866 -1.20190548
| 23> C   -1.78227344 1.15065814 -0.60355609
| 24> C   -0.18953588 -1.83621774 -0.64313732
| 25> C   -1.95919916 0.92827907 1.89460651
| 26> H   1.5227018 -0.61541238 1.9310332
| 27> H   1.11467198 1.76323923 0.94885602
| 28> H   3.77382275 -0.54256177 1.25171364
| 29> H   4.29807031 -0.07860731 -0.32030648
| 30> H   3.45332386 1.03619982 0.67190814
| 31> H   0.00871271 2.63756402 -1.88477462
| 32> H   1.51171824 1.74878267 -1.44375614
| 33> H   0.35638446 1.16830104 -2.47494586
| 34> H   -0.86047037 -1.42974424 0.90508134
| 35> H   -0.38043381 1.04104823 2.94998755
| 36> H   0.67361179 -2.15992001 -2.4518992
| 37> H   -3.50832089 0.90039609 0.47088207
| 38> *
| 39>
| 40>                          ****END OF INPUT****

CARTESIAN COORDINATES (ANGSTROEM)
---------------------------------
  O      3.160234   -1.442406   -1.874602
  O     -2.300575    1.339652   -1.658050
  O     -1.218568   -2.306914   -1.072065
  O     -2.653826    0.929069    2.890520
  N      0.085384   -1.446385    0.597407
  N     -0.628578    1.020980    2.009405
  N      0.890436   -1.661232   -1.590377
  N     -2.522140    0.998725    0.582734
  C      2.197379   -0.567064   -0.010924
  C     -0.335672    1.177558   -0.369161
  C      1.054806   -0.418072    0.974480
  C      0.321781    0.997507    0.935074
  C      3.499042   -0.005633    0.385794
  C      0.465346    1.661635   -1.546524
  C      2.113727   -1.294819   -1.201905
  C     -1.782273    1.150658   -0.603556
  C     -0.189536   -1.836218   -0.643137
  C     -1.959199    0.928279    1.894607
  H      1.522702   -0.615412    1.931033
  H      1.114672    1.763239    0.948856
  H      3.773823   -0.542562    1.251714
  H      4.298070   -0.078607   -0.320306
  H      3.453324    1.036200    0.671908
  H      0.008713    2.637564   -1.884775
  H      1.511718    1.748783   -1.443756
  H      0.356384    1.168301   -2.474946
  H     -0.860470   -1.429744    0.905081
  H     -0.380434    1.041048    2.949988
  H      0.673612   -2.159920   -2.451899
  H     -3.508321    0.900396    0.470882

 Total Charge           Charge          ....    0
 Multiplicity           Mult            ....    3
 Number of Electrons    NEL             ....  132
 Basis Dimension        Dim             ....  882

ORBITAL ENERGIES
----------------
                 SPIN UP ORBITALS
  NO   OCC          E(Eh)            E(eV)
   0   1.0000     -19.337684      -526.2051
   1   1.0000     -19.330077      -525.9981
   2   1.0000     -19.323144      -525.8095
   3   1.0000     -19.321943      -525.7768
   4   1.0000     -14.570388      -396.4804
   5   1.0000     -14.567999      -396.4154
   6   1.0000     -14.565348      -396.3433
   7   1.0000     -14.560900      -396.2222
   8   1.0000     -10.513083      -286.0755
   9   1.0000     -10.510662      -286.0096
  10   1.0000     -10.483868      -285.2805
  11   1.0000     -10.469390      -284.8866
  12   1.0000     -10.457960      -284.5756
  13   1.0000     -10.456128      -284.5257
  14   1.0000     -10.423047      -283.6255
  15   1.0000     -10.414121      -283.3826
  16   1.0000     -10.369392      -282.1655
  17   1.0000     -10.364548      -282.0337
  18   1.0000      -1.229989       -33.4697
  19   1.0000      -1.225930       -33.3593
  20   1.0000      -1.211004       -32.9531
  21   1.0000      -1.182548       -32.1788
  22   1.0000      -1.131123       -30.7794
  23   1.0000      -1.107714       -30.1424
  24   1.0000      -1.069294       -29.0970
  25   1.0000      -1.065507       -28.9939
  26   1.0000      -0.990636       -26.9566
  27   1.0000      -0.963463       -26.2172
  28   1.0000      -0.898194       -24.4411
  29   1.0000      -0.851428       -23.1685
  30   1.0000      -0.831237       -22.6191
  31   1.0000      -0.813383       -22.1333
  32   1.0000      -0.791000       -21.5242
  33   1.0000      -0.776806       -21.1380
  34   1.0000      -0.710712       -19.3395
  35   1.0000      -0.701275       -19.0827
  36   1.0000      -0.699032       -19.0216
  37   1.0000      -0.695471       -18.9247
  38   1.0000      -0.663623       -18.0581
  39   1.0000      -0.642100       -17.4724
  40   1.0000      -0.630326       -17.1520
  41   1.0000      -0.605732       -16.4828
  42   1.0000      -0.599724       -16.3193
  43   1.0000      -0.588379       -16.0106
  44   1.0000      -0.577177       -15.7058
  45   1.0000      -0.573715       -15.6116
  46   1.0000      -0.571570       -15.5532
  47   1.0000      -0.564594       -15.3634
  48   1.0000      -0.563008       -15.3202
  49   1.0000      -0.559142       -15.2150
  50   1.0000      -0.557359       -15.1665
  51   1.0000      -0.534069       -14.5328
  52   1.0000      -0.532028       -14.4772
  53   1.0000      -0.526906       -14.3378
  54   1.0000      -0.516263       -14.0482
  55   1.0000      -0.509650       -13.8683
  56   1.0000      -0.495828       -13.4922
  57   1.0000      -0.427758       -11.6399
  58   1.0000      -0.421900       -11.4805
  59   1.0000      -0.416645       -11.3375
  60   1.0000      -0.408194       -11.1075
  61   1.0000      -0.406646       -11.0654
  62   1.0000      -0.395891       -10.7728
  63   1.0000      -0.393994       -10.7211
  64   1.0000      -0.386015       -10.5040
  65   1.0000      -0.351348        -9.5607
  66   1.0000      -0.327377        -8.9084
  67   0.0000       0.009560         0.2602
  68   0.0000       0.030565         0.8317
  69   0.0000       0.033160         0.9023
  70   0.0000       0.034043         0.9264
  71   0.0000       0.055169         1.5012

                 SPIN DOWN ORBITALS
  NO   OCC          E(Eh)            E(eV)
   0   1.0000     -19.334475      -526.1178
   1   1.0000     -19.329908      -525.9935
   2   1.0000     -19.321829      -525.7737
   3   1.0000     -19.317724      -525.6620
   4   1.0000     -14.570236      -396.4763
   5   1.0000     -14.567916      -396.4132
   6   1.0000     -14.564622      -396.3235
   7   1.0000     -14.560074      -396.1997
   8   1.0000     -10.513132      -286.0769
   9   1.0000     -10.510732      -286.0116
  10   1.0000     -10.484761      -285.3048
  11   1.0000     -10.470574      -284.9188
  12   1.0000     -10.457824      -284.5719
  13   1.0000     -10.455524      -284.5093
  14   1.0000     -10.411509      -283.3116
  15   1.0000     -10.402984      -283.0796
  16   1.0000     -10.369848      -282.1779
  17   1.0000     -10.365034      -282.0469
  18   1.0000      -1.228789       -33.4371
  19   1.0000      -1.224114       -33.3098
  20   1.0000      -1.207920       -32.8692
  21   1.0000      -1.175585       -31.9893
  22   1.0000      -1.128790       -30.7159
  23   1.0000      -1.106016       -30.0962
  24   1.0000      -1.066691       -29.0261
  25   1.0000      -1.063405       -28.9367
  26   1.0000      -0.978668       -26.6309
  27   1.0000      -0.946519       -25.7561
  28   1.0000      -0.891835       -24.2681
  29   1.0000      -0.846950       -23.0467
  30   1.0000      -0.822199       -22.3732
  31   1.0000      -0.806583       -21.9482
  32   1.0000      -0.789900       -21.4943
  33   1.0000      -0.775229       -21.0950
  34   1.0000      -0.706324       -19.2201
  35   1.0000      -0.696100       -18.9419
  36   1.0000      -0.692758       -18.8509
  37   1.0000      -0.689910       -18.7734
  38   1.0000      -0.650812       -17.7095
  39   1.0000      -0.638254       -17.3678
  40   1.0000      -0.624598       -16.9962
  41   1.0000      -0.598757       -16.2930
  42   1.0000      -0.595524       -16.2050
  43   1.0000      -0.583332       -15.8733
  44   1.0000      -0.569538       -15.4979
  45   1.0000      -0.565893       -15.3987
  46   1.0000      -0.564594       -15.3634
  47   1.0000      -0.559398       -15.2220
  48   1.0000      -0.558036       -15.1849
  49   1.0000      -0.551414       -15.0047
  50   1.0000      -0.548241       -14.9184
  51   1.0000      -0.526067       -14.3150
  52   1.0000      -0.524102       -14.2615
  53   1.0000      -0.518363       -14.1054
  54   1.0000      -0.510712       -13.8972
  55   1.0000      -0.497930       -13.5494
  56   1.0000      -0.490953       -13.3595
  57   1.0000      -0.425284       -11.5726
  58   1.0000      -0.418926       -11.3996
  59   1.0000      -0.412820       -11.2334
  60   1.0000      -0.397106       -10.8058
  61   1.0000      -0.391294       -10.6476
  62   1.0000      -0.389844       -10.6082
  63   1.0000      -0.386099       -10.5063
  64   1.0000      -0.378849       -10.3090
  65   0.0000      -0.066643        -1.8134
  66   0.0000      -0.049007        -1.3335
  67   0.0000       0.009296         0.2530
  68   0.0000       0.030060         0.8180
  69   0.0000       0.033165         0.9025

----------------------------------------------------------------------------------------------------
          SPIN FLIP ABSORPTION SPECTRUM VIA TRANSITION ELECTRIC DIPOLE MOMENTS
----------------------------------------------------------------------------------------------------
     Transition      Energy     Energy  Wavelength fosc(D2)      D2        DX        DY        DZ
                      (eV)      (cm-1)    (nm)                 (au**2)    (au)      (au)      (au)
----------------------------------------------------------------------------------------------------
  1-3A  ->  2-3A    0.092291     744.4  13434.1   0.000024207   0.01071   0.08605  -0.03249  -0.04738
  1-3A  ->  3-3A    1.947986   15711.6   636.5   0.000115266   0.00242   0.04366   0.02237   0.00298

Dispersion correction             ... done (  0.1 sec)

MULLIKEN ATOMIC CHARGES AND SPIN DENSITIES
------------------------------------------
   0 O :   -0.711029    0.032652
   1 O :   -0.641282   -0.021119
   2 O :   -0.650918   -0.001492
   3 O :   -0.660209   -0.000336
   4 N :   -0.296707   -0.013924
   5 N :   -0.161758   -0.004374
   6 N :    0.071067   -0.002644
   7 N :    0.020514   -0.009982
   8 C :    0.380553    0.303835
   9 C :    0.975524    0.344993
  10 C :    0.457132   -0.112403
  11 C :   -0.111170   -0.293304
  12 C :   -1.601691    0.008379
  13 C :   -1.657744    0.016410
  14 C :    0.316456   -0.103186
  15 C :    0.222914   -0.204974
  16 C :    0.284419    0.010753
  17 C :    0.447061    0.017608
  18 H :    0.552194    0.000576
  19 H :    0.505342    0.001211
  20 H :    0.428689    0.010166
  21 H :    0.301081   -0.000524
  22 H :    0.310243    0.010173
  23 H :    0.387490    0.002552
  24 H :    0.377557   -0.000612
  25 H :    0.298211    0.000906
  26 H :    0.095735    0.001829
  27 H :   -0.014698    0.001739
  28 H :    0.062016    0.002094
  29 H :    0.013007    0.002998
Sum of atomic charges       :   -0.0000000

LOEWDIN ATOMIC CHARGES AND SPIN DENSITIES
-----------------------------------------
   0 O :    0.050160    0.029480
   1 O :    0.122308   -0.016263
   2 O :    0.102942   -0.001074
   3 O :    0.079361   -0.000426
   4 N :    0.300998   -0.001969
   5 N :    0.299330   -0.000384
   6 N :    0.336884    0.001506
   7 N :    0.345526   -0.006643
   8 C :   -0.039750    0.081081
   9 C :   -0.005736   -0.068981
  10 C :   -0.047813   -0.000580
  11 C :   -0.098862   -0.008974
  12 C :    0.206747    0.011191
  13 C :    0.212798   -0.009608
  14 C :   -0.446756    0.009317
  15 C :   -0.432446   -0.015540
  16 C :   -0.471719   -0.001251
  17 C :   -0.469428   -0.000438
  18 H :    0.051905    0.000613
  19 H :    0.062728   -0.002176
  20 H :   -0.016166    0.003939
  21 H :   -0.006536   -0.000005
  22 H :    0.000764    0.002627
  23 H :    0.048431   -0.003637
  24 H :   -0.026282    0.000580
  25 H :   -0.016115   -0.001913
  26 H :   -0.061988   -0.000130
  27 H :   -0.056069    0.000041
  28 H :    0.004740    0.000187
  29 H :   -0.029955   -0.000570

  Mayer bond orders larger than 0.100000
B(  0-O , 14-C ) :   1.2340 B(  1-O , 13-C ) :   0.1217 B(  1-O , 15-C ) :   1.3195
B(  2-O , 16-C ) :   1.5042 B(  3-O , 17-C ) :   1.5935 B(  4-N ,  8-C ) :   0.2759
B(  4-N , 10-C ) :   0.1520 B(  4-N , 11-C ) :   0.1284 B(  4-N , 16-C ) :   1.1387
B(  4-N , 18-H ) :  -0.1839 B(  4-N , 26-H ) :   0.9278 B(  5-N ,  9-C ) :   0.1318
B(  5-N , 11-C ) :   0.4241 B(  5-N , 17-C ) :   1.1706 B(  5-N , 19-H ) :  -0.1218
B(  5-N , 27-H ) :   1.1606 B(  6-N ,  8-C ) :  -0.1427 B(  6-N , 14-C ) :   1.1885
B(  6-N , 16-C ) :   0.8857 B(  6-N , 28-H ) :   1.0767 B(  7-N , 11-C ) :   0.1025
B(  7-N , 15-C ) :   0.9881 B(  7-N , 17-C ) :   0.9106 B(  7-N , 29-H ) :   1.1392
B(  8-C ,  9-C ) :   0.1958 B(  8-C , 10-C ) :   0.5756 B(  8-C , 12-C ) :   0.4111
B(  8-C , 13-C ) :   0.1297 B(  8-C , 14-C ) :   0.8724 B(  8-C , 18-H ) :  -0.1175
B(  9-C , 11-C ) :   0.8814 B(  9-C , 13-C ) :   0.1962 B(  9-C , 15-C ) :   0.4050
B(  9-C , 19-H ) :  -0.1867 B(  9-C , 24-H ) :  -0.1148 B(  9-C , 25-H ) :  -0.1176
B( 10-C , 11-C ) :   0.6162 B( 10-C , 12-C ) :  -0.1218 B( 10-C , 14-C ) :  -0.1082
B( 10-C , 16-C ) :  -0.2034 B( 10-C , 18-H ) :   0.8048 B( 11-C , 13-C ) :  -0.2283
B( 11-C , 15-C ) :   0.1128 B( 11-C , 17-C ) :  -0.1814 B( 11-C , 19-H ) :   0.9204
B( 12-C , 14-C ) :  -0.1274 B( 12-C , 20-H ) :   0.7910 B( 12-C , 21-H ) :   1.0366
B( 12-C , 22-H ) :   0.9562 B( 13-C , 23-H ) :   0.7549 B( 13-C , 24-H ) :   1.0048
B( 13-C , 25-H ) :   1.0684

Dispersion correction           -0.058974660
FINAL SINGLE POINT ENERGY      -908.767289487315

DIPOLE MOMENT
-------------

Method             : TDA/CIS
Type of density    : Electron Density
Level              : Relaxed density
State              :   1
Multiplicity       :   3
Irrep              :   0
Energy             :     0.0000000000000000 Eh
Relativity type    :
Basis              : AO
                                X                 Y                 Z
Electronic contribution:     -9.631944153      -4.586304600       0.419999588
Nuclear contribution   :     11.253975057       5.636794679       0.803877678
                        -----------------------------------------
Total Dipole Moment    :      1.622030903       1.050490079       1.223877267
                        -----------------------------------------
Magnitude (a.u.)       :      2.287441632
Magnitude (Debye)      :      5.814214566

Rotational constants in cm-1:             0.023789             0.011689             0.010712
Rotational constants in MHz :           713.177911           350.431584           321.123632

                             ****ORCA TERMINATED NORMALLY****
TOTAL RUN TIME: 0 days 0 hours 5 minutes 16 seconds 535 msec
