                         Program Version 6.0.0  -   RELEASE  -
|  1> ! Engrad def2-TZVPPD wB97M-D3BJ
|  2> %pal nprocs 8 end%pal nprocs 64 end
|  3>  %tddft nroots 2 Iroot 2
|  4> sf true
|  5> end
|  6> *xyz 0 3
|  7> O   2.2774577403605 -0.2366160152301 -1.17353689001519
|  8> O   -0.19441858421555 2.76745158140955 -2.28308270753833
|  9> O   0.23536755058487 -3.77774528492779 0.73730616875995
| 10> O   -2.17528430558363 -1.09566489184096 -1.35924131716649
| 11> N   0.38655903076017 -1.87931084735779 1.97200210608084
| 12> N   -1.38697516430291 -0.15802646772767 0.53642375096644
| 13> N   1.06645035541362 -1.90692891445522 -0.25234117404985
| 14> N   -0.81114468167874 0.68567512141133 -1.61266954150757
| 15> C   1.3130372447637 0.19540777795893 0.94695773224393
| 16> C   -0.27418583404264 2.64102372576107 -0.10645841557321
| 17> C   0.58367732906281 -0.47203581958969 2.0648760500751
| 18> C   -0.36666642326836 0.44008057859509 1.30152492236596
| 19> C   2.24420216090096 1.33359550689763 1.22646335720945
| 20> C   -1.48613299948086 3.34310302437233 0.35580469121938
| 21> C   1.60240406198355 -0.63061805601326 -0.25356515837599
| 22> C   -0.44540380241512 1.99013800376743 -1.36953133364379
| 23> C   0.53043085221964 -2.60997259020108 0.82474035835569
| 24> C   -1.50334892758925 -0.2400005123808 -0.83326364055584
| 25> H   0.84827400629011 -0.15738134684484 3.06441792825527
| 26> H   -0.53734779136659 1.40485047561418 1.75123932611328
| 27> H   2.39534102165077 1.92880773886308 0.33433758166266
| 28> H   1.83985948143655 1.97801766475832 2.0031342934512
| 29> H   3.20449815680634 0.94057770511454 1.56116527952386
| 30> H   -2.41909778459201 2.77965736347576 0.26267473823776
| 31> H   -1.38525182585282 3.78490624484451 1.34304248992773
| 32> H   -1.55490600553931 4.16754905593503 -0.3680682058821
| 33> H   -0.02998398277618 -2.37947439052883 2.7362595452748
| 34> H   -1.87307439954493 -0.93080548863533 0.96562037672487
| 35> H   1.24028930898635 -2.46547906585668 -1.0731493607871
| 36> H   -0.87202578897105 0.47421812281123 -2.59848295135269
| 37> *
| 38>
| 39>                          ****END OF INPUT****

CARTESIAN COORDINATES (ANGSTROEM)
---------------------------------
  O      2.277458   -0.236616   -1.173537
  O     -0.194419    2.767452   -2.283083
  O      0.235368   -3.777745    0.737306
  O     -2.175284   -1.095665   -1.359241
  N      0.386559   -1.879311    1.972002
  N     -1.386975   -0.158026    0.536424
  N      1.066450   -1.906929   -0.252341
  N     -0.811145    0.685675   -1.612670
  C      1.313037    0.195408    0.946958
  C     -0.274186    2.641024   -0.106458
  C      0.583677   -0.472036    2.064876
  C     -0.366666    0.440081    1.301525
  C      2.244202    1.333596    1.226463
  C     -1.486133    3.343103    0.355805
  C      1.602404   -0.630618   -0.253565
  C     -0.445404    1.990138   -1.369531
  C      0.530431   -2.609973    0.824740
  C     -1.503349   -0.240001   -0.833264
  H      0.848274   -0.157381    3.064418
  H     -0.537348    1.404850    1.751239
  H      2.395341    1.928808    0.334338
  H      1.839859    1.978018    2.003134
  H      3.204498    0.940578    1.561165
  H     -2.419098    2.779657    0.262675
  H     -1.385252    3.784906    1.343042
  H     -1.554906    4.167549   -0.368068
  H     -0.029984   -2.379474    2.736260
  H     -1.873074   -0.930805    0.965620
  H      1.240289   -2.465479   -1.073149
  H     -0.872026    0.474218   -2.598483

 Total Charge           Charge          ....    0
 Multiplicity           Mult            ....    3
 Number of Electrons    NEL             ....  132
 Basis Dimension        Dim             ....  882

ORBITAL ENERGIES
----------------
                 SPIN UP ORBITALS
  NO   OCC          E(Eh)            E(eV)
   0   1.0000     -19.334857      -526.1282
   1   1.0000     -19.333397      -526.0885
   2   1.0000     -19.325399      -525.8708
   3   1.0000     -19.321590      -525.7672
   4   1.0000     -14.569086      -396.4450
   5   1.0000     -14.567686      -396.4069
   6   1.0000     -14.566905      -396.3856
   7   1.0000     -14.566832      -396.3837
   8   1.0000     -10.512452      -286.0584
   9   1.0000     -10.508911      -285.9620
  10   1.0000     -10.488801      -285.4148
  11   1.0000     -10.482966      -285.2560
  12   1.0000     -10.442242      -284.1479
  13   1.0000     -10.440807      -284.1088
  14   1.0000     -10.418174      -283.4929
  15   1.0000     -10.400871      -283.0221
  16   1.0000     -10.374608      -282.3074
  17   1.0000     -10.367229      -282.1066
  18   1.0000      -1.226396       -33.3719
  19   1.0000      -1.221399       -33.2360
  20   1.0000      -1.201592       -32.6970
  21   1.0000      -1.200889       -32.6779
  22   1.0000      -1.125315       -30.6214
  23   1.0000      -1.093447       -29.7542
  24   1.0000      -1.072983       -29.1974
  25   1.0000      -1.063979       -28.9523
  26   1.0000      -0.996194       -27.1078
  27   1.0000      -0.938809       -25.5463
  28   1.0000      -0.881760       -23.9939
  29   1.0000      -0.824870       -22.4458
  30   1.0000      -0.815311       -22.1858
  31   1.0000      -0.807435       -21.9714
  32   1.0000      -0.790616       -21.5138
  33   1.0000      -0.778001       -21.1705
  34   1.0000      -0.722740       -19.6667
  35   1.0000      -0.700864       -19.0715
  36   1.0000      -0.694221       -18.8907
  37   1.0000      -0.663329       -18.0501
  38   1.0000      -0.641741       -17.4627
  39   1.0000      -0.632011       -17.1979
  40   1.0000      -0.615594       -16.7512
  41   1.0000      -0.606386       -16.5006
  42   1.0000      -0.600124       -16.3302
  43   1.0000      -0.590386       -16.0652
  44   1.0000      -0.579606       -15.7719
  45   1.0000      -0.569367       -15.4933
  46   1.0000      -0.564592       -15.3633
  47   1.0000      -0.560818       -15.2606
  48   1.0000      -0.557641       -15.1742
  49   1.0000      -0.555436       -15.1142
  50   1.0000      -0.544038       -14.8040
  51   1.0000      -0.541697       -14.7403
  52   1.0000      -0.534935       -14.5563
  53   1.0000      -0.514080       -13.9888
  54   1.0000      -0.507693       -13.8150
  55   1.0000      -0.490572       -13.3491
  56   1.0000      -0.438640       -11.9360
  57   1.0000      -0.424626       -11.5547
  58   1.0000      -0.419223       -11.4076
  59   1.0000      -0.409201       -11.1349
  60   1.0000      -0.403116       -10.9693
  61   1.0000      -0.398751       -10.8506
  62   1.0000      -0.394252       -10.7281
  63   1.0000      -0.390240       -10.6190
  64   1.0000      -0.379458       -10.3256
  65   1.0000      -0.377211       -10.2644
  66   1.0000      -0.298740        -8.1291
  67   0.0000       0.009412         0.2561
  68   0.0000       0.026797         0.7292
  69   0.0000       0.032081         0.8730
  70   0.0000       0.035481         0.9655
  71   0.0000       0.041864         1.1392

                 SPIN DOWN ORBITALS
  NO   OCC          E(Eh)            E(eV)
   0   1.0000     -19.333315      -526.0862
   1   1.0000     -19.329436      -525.9807
   2   1.0000     -19.325401      -525.8709
   3   1.0000     -19.321587      -525.7671
   4   1.0000     -14.569012      -396.4430
   5   1.0000     -14.567699      -396.4072
   6   1.0000     -14.566792      -396.3825
   7   1.0000     -14.566782      -396.3823
   8   1.0000     -10.512478      -286.0591
   9   1.0000     -10.508914      -285.9621
  10   1.0000     -10.488834      -285.4157
  11   1.0000     -10.483483      -285.2701
  12   1.0000     -10.441920      -284.1391
  13   1.0000     -10.440522      -284.1010
  14   1.0000     -10.417657      -283.4789
  15   1.0000     -10.374859      -282.3143
  16   1.0000     -10.373300      -282.2719
  17   1.0000     -10.367088      -282.1028
  18   1.0000      -1.225874       -33.3577
  19   1.0000      -1.220613       -33.2146
  20   1.0000      -1.201162       -32.6853
  21   1.0000      -1.193199       -32.4686
  22   1.0000      -1.124951       -30.6115
  23   1.0000      -1.092697       -29.7338
  24   1.0000      -1.071791       -29.1649
  25   1.0000      -1.063448       -28.9379
  26   1.0000      -0.995267       -27.0826
  27   1.0000      -0.910313       -24.7709
  28   1.0000      -0.881073       -23.9752
  29   1.0000      -0.823633       -22.4122
  30   1.0000      -0.811968       -22.0948
  31   1.0000      -0.802154       -21.8277
  32   1.0000      -0.787136       -21.4191
  33   1.0000      -0.772596       -21.0234
  34   1.0000      -0.716551       -19.4983
  35   1.0000      -0.698127       -18.9970
  36   1.0000      -0.688538       -18.7361
  37   1.0000      -0.661471       -17.9995
  38   1.0000      -0.636371       -17.3165
  39   1.0000      -0.627587       -17.0775
  40   1.0000      -0.612795       -16.6750
  41   1.0000      -0.603488       -16.4217
  42   1.0000      -0.588339       -16.0095
  43   1.0000      -0.582042       -15.8382
  44   1.0000      -0.574672       -15.6376
  45   1.0000      -0.562870       -15.3165
  46   1.0000      -0.559035       -15.2121
  47   1.0000      -0.555199       -15.1077
  48   1.0000      -0.554349       -15.0846
  49   1.0000      -0.551935       -15.0189
  50   1.0000      -0.537076       -14.6146
  51   1.0000      -0.534186       -14.5359
  52   1.0000      -0.527385       -14.3509
  53   1.0000      -0.513498       -13.9730
  54   1.0000      -0.495769       -13.4906
  55   1.0000      -0.489208       -13.3120
  56   1.0000      -0.426898       -11.6165
  57   1.0000      -0.422482       -11.4963
  58   1.0000      -0.418608       -11.3909
  59   1.0000      -0.403683       -10.9848
  60   1.0000      -0.395392       -10.7592
  61   1.0000      -0.393183       -10.6991
  62   1.0000      -0.383254       -10.4289
  63   1.0000      -0.379003       -10.3132
  64   1.0000      -0.373522       -10.1641
  65   0.0000      -0.058457        -1.5907
  66   0.0000       0.008449         0.2299
  67   0.0000       0.019183         0.5220
  68   0.0000       0.032196         0.8761
  69   0.0000       0.033727         0.9177

----------------------------------------------------------------------------------------------------
          SPIN FLIP ABSORPTION SPECTRUM VIA TRANSITION ELECTRIC DIPOLE MOMENTS
----------------------------------------------------------------------------------------------------
     Transition      Energy     Energy  Wavelength fosc(D2)      D2        DX        DY        DZ
                      (eV)      (cm-1)    (nm)                 (au**2)    (au)      (au)      (au)
----------------------------------------------------------------------------------------------------
  1-3A  ->  2-3A    2.118543   17087.2   585.2   0.000393100   0.00757  -0.04114  -0.06579   0.03941

Dispersion correction             ... done (  0.1 sec)

MULLIKEN ATOMIC CHARGES AND SPIN DENSITIES
------------------------------------------
   0 O :   -0.659205   -0.000226
   1 O :   -0.581828   -0.001282
   2 O :   -0.646682   -0.000016
   3 O :   -0.652776   -0.000008
   4 N :   -0.185711   -0.000304
   5 N :   -0.134874    0.000570
   6 N :    0.013882   -0.000660
   7 N :    0.074454    0.000335
   8 C :    1.651585    0.002800
   9 C :    0.111680    0.138024
  10 C :   -0.009338    0.002426
  11 C :   -0.803457   -0.044447
  12 C :   -1.626725    0.005736
  13 C :   -1.111015    0.060840
  14 C :    0.042609    0.007639
  15 C :    0.582171   -0.177143
  16 C :    0.448055    0.000259
  17 C :    0.498860    0.007824
  18 H :    0.287084    0.000694
  19 H :    0.456402    0.010355
  20 H :    0.303188   -0.002635
  21 H :    0.330380   -0.007043
  22 H :    0.426609   -0.003141
  23 H :    0.290358    0.003086
  24 H :    0.313902   -0.010551
  25 H :    0.395873    0.006224
  26 H :    0.030809   -0.000208
  27 H :    0.100486   -0.000709
  28 H :    0.032717    0.000005
  29 H :    0.020509    0.001554
Sum of atomic charges       :   -0.0000000

LOEWDIN ATOMIC CHARGES AND SPIN DENSITIES
-----------------------------------------
   0 O :    0.111679   -0.000739
   1 O :    0.106072   -0.012225
   2 O :    0.094762    0.000018
   3 O :    0.098752   -0.000308
   4 N :    0.285261   -0.000432
   5 N :    0.274105   -0.000850
   6 N :    0.340953   -0.000348
   7 N :    0.333881   -0.001895
   8 C :   -0.150536   -0.002350
   9 C :    0.138045    0.044309
  10 C :   -0.087480   -0.001130
  11 C :   -0.014687   -0.001723
  12 C :    0.187602   -0.001662
  13 C :    0.105093   -0.004591
  14 C :   -0.388787   -0.000605
  15 C :   -0.480899   -0.007595
  16 C :   -0.478937   -0.000087
  17 C :   -0.472312   -0.000446
  18 H :    0.054810   -0.000064
  19 H :   -0.001108   -0.001356
  20 H :   -0.007824   -0.000833
  21 H :    0.001013   -0.000288
  22 H :    0.010865   -0.000488
  23 H :    0.009787   -0.001510
  24 H :   -0.008667    0.000040
  25 H :    0.001146   -0.002463
  26 H :   -0.026394   -0.000026
  27 H :   -0.025611   -0.000017
  28 H :   -0.004900   -0.000043
  29 H :   -0.005685   -0.000295

  Mayer bond orders larger than 0.100000
B(  0-O ,  8-C ) :  -0.1440 B(  0-O , 14-C ) :   1.5768 B(  1-O , 15-C ) :   1.3836
B(  2-O , 16-C ) :   1.5731 B(  3-O , 17-C ) :   1.4886 B(  4-N ,  8-C ) :   0.1223
B(  4-N , 10-C ) :   0.5720 B(  4-N , 16-C ) :   1.0978 B(  4-N , 26-H ) :   1.1268
B(  5-N , 11-C ) :   0.6906 B(  5-N , 17-C ) :   0.9657 B(  5-N , 19-H ) :  -0.1322
B(  5-N , 27-H ) :   1.0461 B(  6-N , 10-C ) :   0.1287 B(  6-N , 14-C ) :   1.0686
B(  6-N , 16-C ) :   0.9383 B(  6-N , 28-H ) :   1.1103 B(  7-N , 15-C ) :   0.9410
B(  7-N , 17-C ) :   0.9691 B(  7-N , 29-H ) :   1.1152 B(  8-C , 10-C ) :   0.5833
B(  8-C , 11-C ) :   0.3701 B(  8-C , 14-C ) :   0.2991 B(  8-C , 20-H ) :  -0.1317
B(  8-C , 21-H ) :  -0.1436 B(  9-C , 13-C ) :   0.3650 B(  9-C , 15-C ) :   0.6821
B( 10-C , 11-C ) :   0.8121 B( 10-C , 14-C ) :  -0.1031 B( 10-C , 16-C ) :  -0.1128
B( 10-C , 18-H ) :   1.0850 B( 11-C , 19-H ) :   0.9946 B( 12-C , 20-H ) :   1.0553
B( 12-C , 21-H ) :   1.0727 B( 12-C , 22-H ) :   0.7558 B( 13-C , 23-H ) :   0.9613
B( 13-C , 24-H ) :   0.9834 B( 13-C , 25-H ) :   0.8824

Dispersion correction           -0.057801479
FINAL SINGLE POINT ENERGY      -908.654015737263

DIPOLE MOMENT
-------------

Method             : TDA/CIS
Type of density    : Electron Density
Level              : Relaxed density
State              :   2
Multiplicity       :   3
Irrep              :   0
Energy             :     0.0000000000000000 Eh
Relativity type    :
Basis              : AO
                                X                 Y                 Z
Electronic contribution:     -0.222166610      -9.759230256      -6.555133191
Nuclear contribution   :     -0.057788053      10.740068504       9.139340210
                        -----------------------------------------
Total Dipole Moment    :     -0.279954663       0.980838249       2.584207019
                        -----------------------------------------
Magnitude (a.u.)       :      2.778226808
Magnitude (Debye)      :      7.061691345

Rotational constants in cm-1:             0.022744             0.012681             0.011505
Rotational constants in MHz :           681.835868           380.156018           344.914410

                             ****ORCA TERMINATED NORMALLY****
TOTAL RUN TIME: 0 days 0 hours 4 minutes 47 seconds 699 msec
