                         Program Version 6.0.0  -   RELEASE  -
|  1> ! Engrad def2-TZVPPD wB97M-D3BJ
|  2> %pal nprocs 8 end%pal nprocs 64 end
|  3> %tddft
|  4>  Iroot 1 Nroots 3
|  5> sf true
|  6> end
|  7> *xyz 0 3
|  8> O   -0.70479522 0.35341235 -0.07307369
|  9> C   0.61563568 0.50582781 0.1989039
| 10> C   1.41821994 -0.742665 0.1046593
| 11> H   0.65226753 0.94044749 1.27413343
| 12> H   1.04054608 1.28674699 -0.42660654
| 13> H   1.13359725 -1.70726786 0.47702486
| 14> H   2.26850722 -0.54749661 -0.56199012
| 15> *
| 16>
| 17>                          ****END OF INPUT****

CARTESIAN COORDINATES (ANGSTROEM)
---------------------------------
  O     -0.704795    0.353412   -0.073074
  C      0.615636    0.505828    0.198904
  C      1.418220   -0.742665    0.104659
  H      0.652268    0.940447    1.274133
  H      1.040546    1.286747   -0.426607
  H      1.133597   -1.707268    0.477025
  H      2.268507   -0.547497   -0.561990

 Total Charge           Charge          ....    0
 Multiplicity           Mult            ....    3
 Number of Electrons    NEL             ....   24
 Basis Dimension        Dim             ....  182

ORBITAL ENERGIES
----------------
                 SPIN UP ORBITALS
  NO   OCC          E(Eh)            E(eV)
   0   1.0000     -19.384719      -527.4850
   1   1.0000     -10.415291      -283.4145
   2   1.0000     -10.370961      -282.2082
   3   1.0000      -1.170544       -31.8521
   4   1.0000      -0.877400       -23.8753
   5   1.0000      -0.730434       -19.8761
   6   1.0000      -0.617534       -16.8039
   7   1.0000      -0.583998       -15.8914
   8   1.0000      -0.556240       -15.1361
   9   1.0000      -0.521386       -14.1876
  10   1.0000      -0.432204       -11.7609
  11   1.0000      -0.410848       -11.1797
  12   1.0000      -0.327291        -8.9060
  13   0.0000       0.040994         1.1155
  14   0.0000       0.060773         1.6537
  15   0.0000       0.076955         2.0940
  16   0.0000       0.087610         2.3840
  17   0.0000       0.113873         3.0986

                 SPIN DOWN ORBITALS
  NO   OCC          E(Eh)            E(eV)
   0   1.0000     -19.361174      -526.8443
   1   1.0000     -10.416795      -283.4554
   2   1.0000     -10.357526      -281.8426
   3   1.0000      -1.118232       -30.4286
   4   1.0000      -0.844106       -22.9693
   5   1.0000      -0.703535       -19.1442
   6   1.0000      -0.589545       -16.0423
   7   1.0000      -0.541813       -14.7435
   8   1.0000      -0.534942       -14.5565
   9   1.0000      -0.490547       -13.3485
  10   1.0000      -0.380626       -10.3574
  11   0.0000      -0.052943        -1.4407
  12   0.0000      -0.004476        -0.1218
  13   0.0000       0.040681         1.1070
  14   0.0000       0.060997         1.6598
  15   0.0000       0.076781         2.0893

----------------------------------------------------------------------------------------------------
          SPIN FLIP ABSORPTION SPECTRUM VIA TRANSITION ELECTRIC DIPOLE MOMENTS
----------------------------------------------------------------------------------------------------
     Transition      Energy     Energy  Wavelength fosc(D2)      D2        DX        DY        DZ
                      (eV)      (cm-1)    (nm)                 (au**2)    (au)      (au)      (au)
----------------------------------------------------------------------------------------------------
  1-3A  ->  2-3A    0.137837    1111.7  8995.0   0.000055325   0.01638   0.09178  -0.08774  -0.01620
  1-3A  ->  3-3A    0.875162    7058.7  1416.7   0.009052229   0.42219  -0.62005   0.13827  -0.13643

Dispersion correction             ... done (  0.1 sec)

MULLIKEN ATOMIC CHARGES AND SPIN DENSITIES
------------------------------------------
   0 O :   -0.442078   -0.619926
   1 C :    0.000127   -0.028290
   2 C :   -0.471264    0.555173
   3 H :    0.229363    0.089160
   4 H :    0.201507   -0.064325
   5 H :    0.285169    0.033933
   6 H :    0.197175    0.034276
Sum of atomic charges       :    0.0000000

LOEWDIN ATOMIC CHARGES AND SPIN DENSITIES
-----------------------------------------
   0 O :   -0.039797   -0.606701
   1 C :   -0.315797    0.016264
   2 C :    0.337673    0.487116
   3 H :    0.066316    0.035964
   4 H :    0.023812   -0.047181
   5 H :   -0.042099    0.059038
   6 H :   -0.030108    0.055499

  Mayer bond orders larger than 0.100000
B(  0-O ,  1-C ) :   0.9663 B(  0-O ,  2-C ) :   0.3078 B(  1-C ,  2-C ) :   0.7920
B(  1-C ,  3-H ) :   0.9404 B(  1-C ,  4-H ) :   0.9592 B(  2-C ,  5-H ) :   0.9212
B(  2-C ,  6-H ) :   0.9930

Dispersion correction           -0.005517123
FINAL SINGLE POINT ENERGY      -153.753070942155

DIPOLE MOMENT
-------------

Method             : TDA/CIS
Type of density    : Electron Density
Level              : Relaxed density
State              :   1
Multiplicity       :   3
Irrep              :   0
Energy             :     0.0000000000000000 Eh
Relativity type    :
Basis              : AO
                                X                 Y                 Z
Electronic contribution:     -1.919026853       0.107666918      -0.310346397
Nuclear contribution   :      3.205459058      -0.258543717       0.436762249
                        -----------------------------------------
Total Dipole Moment    :      1.286432205      -0.150876799       0.126415851
                        -----------------------------------------
Magnitude (a.u.)       :      1.301404086
Magnitude (Debye)      :      3.307906302

Rotational constants in cm-1:             1.440015             0.350700             0.308492
Rotational constants in MHz :         43170.569876         10513.724204          9248.345242

                             ****ORCA TERMINATED NORMALLY****
TOTAL RUN TIME: 0 days 0 hours 0 minutes 27 seconds 418 msec
