                         Program Version 6.0.0  -   RELEASE  -
|  1> ! EnGrad wB97M-D3BJ def2-TZVPPD
|  2> %pal nprocs 8 end%pal nprocs 16 end
|  3> %tddft
|  4>  sf true
|  5>  nroots 2 Iroot 2 end
|  6> *xyz 0 3
|  7> O   0.48206145953012 1.09082196509513 -0.00257134841441
|  8> C   0.60382071611263 -0.2438697140448 -0.00045607359656
|  9> C   -0.74952136631062 -0.75436294205381 0.00112495215681
| 10> H   1.15111756580592 -0.62047531429563 0.87892476828687
| 11> H   1.14955929272611 -0.62328796209096 -0.87960686160252
| 12> H   -1.31755789957603 -0.78616366407222 -0.92059552459735
| 13> H   -1.31727976828813 -0.7810623685377 0.92318008776715
| 14> *
| 15>
| 16>                          ****END OF INPUT****

CARTESIAN COORDINATES (ANGSTROEM)
---------------------------------
  O      0.482061    1.090822   -0.002571
  C      0.603821   -0.243870   -0.000456
  C     -0.749521   -0.754363    0.001125
  H      1.151118   -0.620475    0.878925
  H      1.149559   -0.623288   -0.879607
  H     -1.317558   -0.786164   -0.920596
  H     -1.317280   -0.781062    0.923180

 Total Charge           Charge          ....    0
 Multiplicity           Mult            ....    3
 Number of Electrons    NEL             ....   24
 Basis Dimension        Dim             ....  182

ORBITAL ENERGIES
----------------
                 SPIN UP ORBITALS
  NO   OCC          E(Eh)            E(eV)
   0   1.0000     -19.393375      -527.7206
   1   1.0000     -10.407559      -283.2041
   2   1.0000     -10.354669      -281.7649
   3   1.0000      -1.188599       -32.3434
   4   1.0000      -0.877372       -23.8745
   5   1.0000      -0.734355       -19.9828
   6   1.0000      -0.632511       -17.2115
   7   1.0000      -0.590543       -16.0695
   8   1.0000      -0.557059       -15.1583
   9   1.0000      -0.516962       -14.0672
  10   1.0000      -0.436349       -11.8736
  11   1.0000      -0.420039       -11.4298
  12   1.0000      -0.318283        -8.6609
  13   0.0000       0.041060         1.1173
  14   0.0000       0.063131         1.7179
  15   0.0000       0.074049         2.0150
  16   0.0000       0.087280         2.3750
  17   0.0000       0.116952         3.1824

                 SPIN DOWN ORBITALS
  NO   OCC          E(Eh)            E(eV)
   0   1.0000     -19.368062      -527.0318
   1   1.0000     -10.408897      -283.2405
   2   1.0000     -10.341795      -281.4146
   3   1.0000      -1.133067       -30.8323
   4   1.0000      -0.843835       -22.9619
   5   1.0000      -0.710061       -19.3217
   6   1.0000      -0.594518       -16.1777
   7   1.0000      -0.558431       -15.1957
   8   1.0000      -0.535047       -14.5594
   9   1.0000      -0.478716       -13.0265
  10   1.0000      -0.383193       -10.4272
  11   0.0000      -0.063545        -1.7291
  12   0.0000       0.004932         0.1342
  13   0.0000       0.040005         1.0886
  14   0.0000       0.063749         1.7347
  15   0.0000       0.073671         2.0047

----------------------------------------------------------------------------------------------------
          SPIN FLIP ABSORPTION SPECTRUM VIA TRANSITION ELECTRIC DIPOLE MOMENTS
----------------------------------------------------------------------------------------------------
     Transition      Energy     Energy  Wavelength fosc(D2)      D2        DX        DY        DZ
                      (eV)      (cm-1)    (nm)                 (au**2)    (au)      (au)      (au)
----------------------------------------------------------------------------------------------------
  1-3A  ->  2-3A    0.796539    6424.5  1556.5   0.000099074   0.00508  -0.00014   0.00013   0.07125

Dispersion correction             ... done (  0.0 sec)

MULLIKEN ATOMIC CHARGES AND SPIN DENSITIES
------------------------------------------
   0 O :   -0.334251    0.787085
   1 C :    0.111311    0.354879
   2 C :   -0.416319   -0.944400
   3 H :    0.197635    0.013438
   4 H :    0.197600    0.013676
   5 H :    0.121982   -0.112304
   6 H :    0.122043   -0.112374
Sum of atomic charges       :    0.0000000

LOEWDIN ATOMIC CHARGES AND SPIN DENSITIES
-----------------------------------------
   0 O :    0.089958    0.724214
   1 C :   -0.302180    0.026248
   2 C :    0.265174   -0.637052
   3 H :    0.039111    0.029515
   4 H :    0.039105    0.029576
   5 H :   -0.065597   -0.086269
   6 H :   -0.065571   -0.086232

  Mayer bond orders larger than 0.100000
B(  0-O ,  1-C ) :   0.9495 B(  1-C ,  2-C ) :   0.5926 B(  1-C ,  3-H ) :   0.9630
B(  1-C ,  4-H ) :   0.9632 B(  2-C ,  5-H ) :   1.1242 B(  2-C ,  6-H ) :   1.1240

Dispersion correction           -0.005622060
FINAL SINGLE POINT ENERGY      -153.744194393796

DIPOLE MOMENT
-------------

Method             : TDA/CIS
Type of density    : Electron Density
Level              : Relaxed density
State              :   2
Multiplicity       :   3
Irrep              :   0
Energy             :     0.0000000000000000 Eh
Relativity type    :
Basis              : AO
                                X                 Y                 Z
Electronic contribution:      0.958092069       2.377990542      -0.003928357
Nuclear contribution   :     -0.787489123      -2.845892216       0.004414030
                        -----------------------------------------
Total Dipole Moment    :      0.170602946      -0.467901674       0.000485673
                        -----------------------------------------
Magnitude (a.u.)       :      0.498033711
Magnitude (Debye)      :      1.265901091

Rotational constants in cm-1:             1.266440             0.401630             0.345867
Rotational constants in MHz :         37966.929814         12040.565604         10368.842139

                             ****ORCA TERMINATED NORMALLY****
TOTAL RUN TIME: 0 days 0 hours 0 minutes 16 seconds 360 msec
