                         Program Version 6.0.0  -   RELEASE  -
|  1> ! Engrad def2-TZVPPD wB97M-D3BJ
|  2> %pal nprocs 8 end%pal nprocs 64 end
|  3> %tddft
|  4>  Iroot 1 Nroots 3
|  5> sf true
|  6> end
|  7> *xyz 0 3
|  8> O   -0.32601215 -0.34896925 0.93483244
|  9> C   0.31313028 0.52853794 0.06809242
| 10> C   1.32836738 0.0098215 -0.84429539
| 11> H   0.88854075 1.35321113 0.67306704
| 12> H   -0.33782652 1.1094855 -0.50235711
| 13> H   1.46188617 -1.12531709 -0.79994868
| 14> H   1.58494133 0.49362609 -1.82539957
| 15> *
| 16>
| 17>                          ****END OF INPUT****

CARTESIAN COORDINATES (ANGSTROEM)
---------------------------------
  O     -0.326012   -0.348969    0.934832
  C      0.313130    0.528538    0.068092
  C      1.328367    0.009822   -0.844295
  H      0.888541    1.353211    0.673067
  H     -0.337827    1.109485   -0.502357
  H      1.461886   -1.125317   -0.799949
  H      1.584941    0.493626   -1.825400

 Total Charge           Charge          ....    0
 Multiplicity           Mult            ....    3
 Number of Electrons    NEL             ....   24
 Basis Dimension        Dim             ....  182

ORBITAL ENERGIES
----------------
                 SPIN UP ORBITALS
  NO   OCC          E(Eh)            E(eV)
   0   1.0000     -19.398281      -527.8541
   1   1.0000     -10.415369      -283.4166
   2   1.0000     -10.373683      -282.2823
   3   1.0000      -1.164883       -31.6981
   4   1.0000      -0.887879       -24.1604
   5   1.0000      -0.727424       -19.7942
   6   1.0000      -0.606793       -16.5117
   7   1.0000      -0.593171       -16.1410
   8   1.0000      -0.555842       -15.1252
   9   1.0000      -0.495832       -13.4923
  10   1.0000      -0.456480       -12.4215
  11   1.0000      -0.422370       -11.4933
  12   1.0000      -0.316443        -8.6108
  13   0.0000       0.039669         1.0795
  14   0.0000       0.060640         1.6501
  15   0.0000       0.081174         2.2089
  16   0.0000       0.082376         2.2416
  17   0.0000       0.106407         2.8955

                 SPIN DOWN ORBITALS
  NO   OCC          E(Eh)            E(eV)
   0   1.0000     -19.375233      -527.2269
   1   1.0000     -10.416765      -283.4546
   2   1.0000     -10.360065      -281.9117
   3   1.0000      -1.111452       -30.2441
   4   1.0000      -0.857914       -23.3450
   5   1.0000      -0.699983       -19.0475
   6   1.0000      -0.582261       -15.8441
   7   1.0000      -0.547811       -14.9067
   8   1.0000      -0.525655       -14.3038
   9   1.0000      -0.479789       -13.0557
  10   1.0000      -0.393577       -10.7098
  11   0.0000      -0.063648        -1.7320
  12   0.0000       0.006092         0.1658
  13   0.0000       0.039521         1.0754
  14   0.0000       0.060961         1.6588
  15   0.0000       0.081298         2.2122

----------------------------------------------------------------------------------------------------
          SPIN FLIP ABSORPTION SPECTRUM VIA TRANSITION ELECTRIC DIPOLE MOMENTS
----------------------------------------------------------------------------------------------------
     Transition      Energy     Energy  Wavelength fosc(D2)      D2        DX        DY        DZ
                      (eV)      (cm-1)    (nm)                 (au**2)    (au)      (au)      (au)
----------------------------------------------------------------------------------------------------
  1-3A  ->  2-3A    0.426497    3439.9  2907.0   0.000817430   0.07823   0.13462  -0.02963  -0.24337
  1-3A  ->  3-3A    0.856995    6912.1  1446.7   0.030396329   1.44772   0.85356   0.33565  -0.77878

Dispersion correction             ... done (  0.1 sec)

MULLIKEN ATOMIC CHARGES AND SPIN DENSITIES
------------------------------------------
   0 O :   -0.518054    0.032639
   1 C :   -0.058439   -0.056544
   2 C :   -0.330115   -0.013548
   3 H :    0.247473    0.070421
   4 H :    0.241810   -0.035396
   5 H :    0.196668    0.016172
   6 H :    0.220658   -0.013743
Sum of atomic charges       :    0.0000000

LOEWDIN ATOMIC CHARGES AND SPIN DENSITIES
-----------------------------------------
   0 O :   -0.098897   -0.007037
   1 C :   -0.301575   -0.014202
   2 C :    0.307063    0.011714
   3 H :    0.105674    0.033503
   4 H :   -0.001792   -0.022968
   5 H :    0.007983    0.001476
   6 H :   -0.018455   -0.002486

  Mayer bond orders larger than 0.100000
B(  0-O ,  1-C ) :   1.1046 B(  0-O ,  2-C ) :   0.3035 B(  1-C ,  2-C ) :   1.0201
B(  1-C ,  3-H ) :   0.8545 B(  1-C ,  4-H ) :   0.8937 B(  2-C ,  5-H ) :   0.9683
B(  2-C ,  6-H ) :   0.9929

Dispersion correction           -0.005514403
FINAL SINGLE POINT ENERGY      -153.752148918115

DIPOLE MOMENT
-------------

Method             : TDA/CIS
Type of density    : Electron Density
Level              : Relaxed density
State              :   1
Multiplicity       :   3
Irrep              :   0
Energy             :     0.0000000000000000 Eh
Relativity type    :
Basis              : AO
                                X                 Y                 Z
Electronic contribution:     -1.058410493      -0.720027505       1.392024291
Nuclear contribution   :      1.820096664       1.479279207      -2.559233394
                        -----------------------------------------
Total Dipole Moment    :      0.761686171       0.759251702      -1.167209102
                        -----------------------------------------
Magnitude (a.u.)       :      1.587137694
Magnitude (Debye)      :      4.034183416

Rotational constants in cm-1:             1.561476             0.337828             0.293739
Rotational constants in MHz :         46811.861858         10127.817803          8806.078067

                             ****ORCA TERMINATED NORMALLY****
TOTAL RUN TIME: 0 days 0 hours 0 minutes 26 seconds 735 msec
