                         Program Version 6.0.0  -   RELEASE  -
|  1> ! Engrad def2-TZVPPD wB97M-D3BJ
|  2> %pal nprocs 8 end%pal nprocs 64 end
|  3>  %tddft nroots 2 Iroot 2
|  4> sf true
|  5> end
|  6> *xyz 0 3
|  7> O   3.25624522091369 -1.39481768284148 2.52578418890813
|  8> O   -1.66540516583449 0.72849455188289 -2.57156925924772
|  9> O   1.5558814990702 -2.1469340241864 -1.64489427654193
| 10> O   -3.53237138252798 -0.95742407405097 1.18086395341408
| 11> N   1.4652514826594 -0.22566634570943 -0.31141906868331
| 12> N   -1.78101125468787 0.48014290208238 1.42231666298328
| 13> N   2.54950228981299 -2.09175987355822 0.43734114883044
| 14> N   -2.43956690912651 -0.23550575661353 -0.68090531446566
| 15> C   1.9066599145623 0.01685201139804 1.06635567299294
| 16> C   -0.80457382027915 1.58174944179353 -0.49899020595138
| 17> C   0.47214921917967 -0.21381588313953 0.77935224520372
| 18> C   -0.52310152125112 0.93321179133551 0.85029110513583
| 19> C   2.47821503882856 1.34881706204879 1.44753400603408
| 20> C   -1.52259622295326 2.9237650857146 -0.34995533705623
| 21> C   2.65856008115118 -1.21413837804805 1.50052366110542
| 22> C   -1.64242214820108 0.66649486908773 -1.36904650477408
| 23> C   1.83112131831112 -1.57371395944315 -0.63655279802837
| 24> C   -2.64789636037495 -0.28941557579114 0.69681632065687
| 25> H   0.06110036853471 -1.17846632541165 1.05138722994199
| 26> H   -0.13486998383052 1.69762958559295 1.51986752969551
| 27> H   1.95191239198383 2.15475833972743 0.94443629296192
| 28> H   2.41098297450357 1.48933028570916 2.52402759813693
| 29> H   3.52690746645453 1.39960008765628 1.1649174143549
| 30> H   -2.45814542677438 2.81070198453168 0.1938553837964
| 31> H   -0.89392315561052 3.62656009915253 0.19438485766914
| 32> H   -1.73703061228311 3.34134411848113 -1.3297060699538
| 33> H   0.13046409159866 1.71963339378753 -1.03266478797515
| 34> H   -1.85393584466499 0.34619219147964 2.41527543152512
| 35> H   2.90468696424221 -3.03258690564114 0.44725091033772
| 36> H   -3.0701905134068 -0.79603301702714 -1.23227799100672
| 37> *
| 38>
| 39>                          ****END OF INPUT****

CARTESIAN COORDINATES (ANGSTROEM)
---------------------------------
  O      3.256245   -1.394818    2.525784
  O     -1.665405    0.728495   -2.571569
  O      1.555881   -2.146934   -1.644894
  O     -3.532371   -0.957424    1.180864
  N      1.465251   -0.225666   -0.311419
  N     -1.781011    0.480143    1.422317
  N      2.549502   -2.091760    0.437341
  N     -2.439567   -0.235506   -0.680905
  C      1.906660    0.016852    1.066356
  C     -0.804574    1.581749   -0.498990
  C      0.472149   -0.213816    0.779352
  C     -0.523102    0.933212    0.850291
  C      2.478215    1.348817    1.447534
  C     -1.522596    2.923765   -0.349955
  C      2.658560   -1.214138    1.500524
  C     -1.642422    0.666495   -1.369047
  C      1.831121   -1.573714   -0.636553
  C     -2.647896   -0.289416    0.696816
  H      0.061100   -1.178466    1.051387
  H     -0.134870    1.697630    1.519868
  H      1.951912    2.154758    0.944436
  H      2.410983    1.489330    2.524028
  H      3.526907    1.399600    1.164917
  H     -2.458145    2.810702    0.193855
  H     -0.893923    3.626560    0.194385
  H     -1.737031    3.341344   -1.329706
  H      0.130464    1.719633   -1.032665
  H     -1.853936    0.346192    2.415275
  H      2.904687   -3.032587    0.447251
  H     -3.070191   -0.796033   -1.232278

 Total Charge           Charge          ....    0
 Multiplicity           Mult            ....    3
 Number of Electrons    NEL             ....  132
 Basis Dimension        Dim             ....  882

ORBITAL ENERGIES
----------------
                 SPIN UP ORBITALS
  NO   OCC          E(Eh)            E(eV)
   0   1.0000     -19.448615      -529.2237
   1   1.0000     -19.330099      -525.9987
   2   1.0000     -19.324053      -525.8342
   3   1.0000     -19.316177      -525.6199
   4   1.0000     -14.587926      -396.9576
   5   1.0000     -14.561001      -396.2250
   6   1.0000     -14.557839      -396.1389
   7   1.0000     -14.552049      -395.9814
   8   1.0000     -10.499641      -285.7097
   9   1.0000     -10.499586      -285.7083
  10   1.0000     -10.474117      -285.0152
  11   1.0000     -10.450594      -284.3751
  12   1.0000     -10.442030      -284.1421
  13   1.0000     -10.427009      -283.7333
  14   1.0000     -10.420610      -283.5592
  15   1.0000     -10.382199      -282.5140
  16   1.0000     -10.377869      -282.3962
  17   1.0000     -10.357799      -281.8500
  18   1.0000      -1.295831       -35.2614
  19   1.0000      -1.226823       -33.3835
  20   1.0000      -1.214355       -33.0443
  21   1.0000      -1.191347       -32.4182
  22   1.0000      -1.164862       -31.6975
  23   1.0000      -1.103653       -30.0319
  24   1.0000      -1.085516       -29.5384
  25   1.0000      -1.054510       -28.6947
  26   1.0000      -0.954511       -25.9736
  27   1.0000      -0.923388       -25.1267
  28   1.0000      -0.881564       -23.9886
  29   1.0000      -0.834498       -22.7078
  30   1.0000      -0.811970       -22.0948
  31   1.0000      -0.798153       -21.7189
  32   1.0000      -0.778946       -21.1962
  33   1.0000      -0.762245       -20.7417
  34   1.0000      -0.735110       -20.0034
  35   1.0000      -0.705534       -19.1986
  36   1.0000      -0.684993       -18.6396
  37   1.0000      -0.668627       -18.1943
  38   1.0000      -0.649723       -17.6799
  39   1.0000      -0.646962       -17.6047
  40   1.0000      -0.630685       -17.1618
  41   1.0000      -0.608933       -16.5699
  42   1.0000      -0.605120       -16.4661
  43   1.0000      -0.590349       -16.0642
  44   1.0000      -0.579073       -15.7574
  45   1.0000      -0.575440       -15.6585
  46   1.0000      -0.569652       -15.5010
  47   1.0000      -0.563023       -15.3206
  48   1.0000      -0.558207       -15.1896
  49   1.0000      -0.551578       -15.0092
  50   1.0000      -0.545533       -14.8447
  51   1.0000      -0.537665       -14.6306
  52   1.0000      -0.530685       -14.4407
  53   1.0000      -0.501377       -13.6432
  54   1.0000      -0.498197       -13.5566
  55   1.0000      -0.487350       -13.2615
  56   1.0000      -0.482838       -13.1387
  57   1.0000      -0.470692       -12.8082
  58   1.0000      -0.461547       -12.5593
  59   1.0000      -0.450533       -12.2596
  60   1.0000      -0.413228       -11.2445
  61   1.0000      -0.404740       -11.0135
  62   1.0000      -0.401167       -10.9163
  63   1.0000      -0.394096       -10.7239
  64   1.0000      -0.383120       -10.4252
  65   1.0000      -0.375183       -10.2092
  66   1.0000      -0.215446        -5.8626
  67   0.0000       0.012441         0.3385
  68   0.0000       0.026501         0.7211
  69   0.0000       0.033188         0.9031
  70   0.0000       0.038281         1.0417
  71   0.0000       0.052697         1.4340

                 SPIN DOWN ORBITALS
  NO   OCC          E(Eh)            E(eV)
   0   1.0000     -19.423037      -528.5277
   1   1.0000     -19.327281      -525.9221
   2   1.0000     -19.324052      -525.8342
   3   1.0000     -19.316179      -525.6199
   4   1.0000     -14.585380      -396.8884
   5   1.0000     -14.559953      -396.1965
   6   1.0000     -14.557832      -396.1387
   7   1.0000     -14.552052      -395.9815
   8   1.0000     -10.499641      -285.7098
   9   1.0000     -10.498810      -285.6871
  10   1.0000     -10.474121      -285.0153
  11   1.0000     -10.449093      -284.3343
  12   1.0000     -10.431807      -283.8639
  13   1.0000     -10.427034      -283.7340
  14   1.0000     -10.418781      -283.5095
  15   1.0000     -10.382073      -282.5106
  16   1.0000     -10.377413      -282.3838
  17   1.0000     -10.357784      -281.8496
  18   1.0000      -1.246788       -33.9268
  19   1.0000      -1.217534       -33.1308
  20   1.0000      -1.214188       -33.0397
  21   1.0000      -1.191343       -32.4181
  22   1.0000      -1.158620       -31.5277
  23   1.0000      -1.102647       -30.0045
  24   1.0000      -1.076462       -29.2920
  25   1.0000      -1.054323       -28.6896
  26   1.0000      -0.954109       -25.9626
  27   1.0000      -0.917568       -24.9683
  28   1.0000      -0.879050       -23.9202
  29   1.0000      -0.822727       -22.3875
  30   1.0000      -0.800596       -21.7853
  31   1.0000      -0.795886       -21.6572
  32   1.0000      -0.777912       -21.1681
  33   1.0000      -0.747720       -20.3465
  34   1.0000      -0.725878       -19.7521
  35   1.0000      -0.705005       -19.1842
  36   1.0000      -0.669132       -18.2080
  37   1.0000      -0.654010       -17.7965
  38   1.0000      -0.639487       -17.4013
  39   1.0000      -0.631465       -17.1830
  40   1.0000      -0.621137       -16.9020
  41   1.0000      -0.598456       -16.2848
  42   1.0000      -0.587956       -15.9991
  43   1.0000      -0.578600       -15.7445
  44   1.0000      -0.571870       -15.5614
  45   1.0000      -0.564183       -15.3522
  46   1.0000      -0.561488       -15.2789
  47   1.0000      -0.558617       -15.2007
  48   1.0000      -0.545808       -14.8522
  49   1.0000      -0.541296       -14.7294
  50   1.0000      -0.539683       -14.6855
  51   1.0000      -0.530935       -14.4475
  52   1.0000      -0.514360       -13.9965
  53   1.0000      -0.498096       -13.5539
  54   1.0000      -0.483500       -13.1567
  55   1.0000      -0.479694       -13.0531
  56   1.0000      -0.472866       -12.8674
  57   1.0000      -0.467188       -12.7128
  58   1.0000      -0.423239       -11.5169
  59   1.0000      -0.409554       -11.1445
  60   1.0000      -0.401412       -10.9230
  61   1.0000      -0.396747       -10.7960
  62   1.0000      -0.393759       -10.7147
  63   1.0000      -0.381185       -10.3726
  64   1.0000      -0.374585       -10.1930
  65   0.0000      -0.143256        -3.8982
  66   0.0000       0.012349         0.3360
  67   0.0000       0.026724         0.7272
  68   0.0000       0.033194         0.9033
  69   0.0000       0.038268         1.0413

----------------------------------------------------------------------------------------------------
          SPIN FLIP ABSORPTION SPECTRUM VIA TRANSITION ELECTRIC DIPOLE MOMENTS
----------------------------------------------------------------------------------------------------
     Transition      Energy     Energy  Wavelength fosc(D2)      D2        DX        DY        DZ
                      (eV)      (cm-1)    (nm)                 (au**2)    (au)      (au)      (au)
----------------------------------------------------------------------------------------------------
  1-3A  ->  2-3A    5.586284   45056.4   221.9   0.001829947   0.01337   0.05793   0.05522  -0.08346

Dispersion correction             ... done (  0.1 sec)

MULLIKEN ATOMIC CHARGES AND SPIN DENSITIES
------------------------------------------
   0 O :   -0.389922    0.637825
   1 O :   -0.632713   -0.000006
   2 O :   -0.585920   -0.057720
   3 O :   -0.659324    0.000024
   4 N :   -0.431725    0.019365
   5 N :   -0.257282   -0.002505
   6 N :   -0.006128    0.071788
   7 N :    0.007487   -0.000560
   8 C :    1.185028    0.073664
   9 C :    0.767600   -0.005302
  10 C :   -0.719872   -0.171441
  11 C :   -0.047797   -0.010664
  12 C :   -1.722790   -0.083400
  13 C :   -1.611413    0.000167
  14 C :    0.621453   -0.411363
  15 C :    0.173382   -0.001604
  16 C :    0.381311   -0.078874
  17 C :    0.454750   -0.001055
  18 H :    0.165963   -0.010404
  19 H :    0.620262   -0.005417
  20 H :    0.358758    0.000498
  21 H :    0.336095    0.008128
  22 H :    0.390666    0.022011
  23 H :    0.332598    0.000301
  24 H :    0.368447   -0.000148
  25 H :    0.373074    0.000064
  26 H :    0.358038    0.002805
  27 H :    0.065779   -0.000447
  28 H :    0.059735    0.004516
  29 H :    0.044460   -0.000243
Sum of atomic charges       :    0.0000000

LOEWDIN ATOMIC CHARGES AND SPIN DENSITIES
-----------------------------------------
   0 O :    0.257375    0.462910
   1 O :    0.117850   -0.000006
   2 O :    0.119688   -0.060719
   3 O :    0.086116    0.000053
   4 N :    0.175036    0.016499
   5 N :    0.274423   -0.000448
   6 N :    0.341927   -0.002460
   7 N :    0.342249   -0.000672
   8 C :   -0.273163    0.024371
   9 C :   -0.111206   -0.002161
  10 C :   -0.030424   -0.061297
  11 C :   -0.122731   -0.008701
  12 C :    0.225975   -0.002483
  13 C :    0.200168   -0.000129
  14 C :   -0.376274   -0.307635
  15 C :   -0.379570    0.000004
  16 C :   -0.465063   -0.053299
  17 C :   -0.486358   -0.000085
  18 H :    0.066179   -0.002569
  19 H :    0.040791   -0.001852
  20 H :   -0.005805    0.000981
  21 H :    0.007373    0.000017
  22 H :    0.009645   -0.000732
  23 H :   -0.002216   -0.000013
  24 H :   -0.005235   -0.000022
  25 H :    0.000131   -0.000150
  26 H :    0.037779    0.000277
  27 H :   -0.028478   -0.000138
  28 H :   -0.005971    0.000485
  29 H :   -0.010211   -0.000028

  Mayer bond orders larger than 0.100000
B(  0-O , 14-C ) :   1.0032 B(  1-O , 15-C ) :   1.4623 B(  2-O , 16-C ) :   1.6096
B(  3-O , 17-C ) :   1.5811 B(  4-N ,  8-C ) :   0.4833 B(  4-N , 10-C ) :   0.9603
B(  4-N , 11-C ) :   0.1197 B(  4-N , 14-C ) :  -0.1765 B(  4-N , 16-C ) :   0.8509
B(  5-N ,  9-C ) :   0.1314 B(  5-N , 11-C ) :   0.1843 B(  5-N , 17-C ) :   1.1358
B(  5-N , 27-H ) :   1.0888 B(  6-N , 14-C ) :   0.8846 B(  6-N , 16-C ) :   1.0869
B(  6-N , 28-H ) :   1.0596 B(  7-N , 15-C ) :   0.9544 B(  7-N , 17-C ) :   0.9431
B(  7-N , 29-H ) :   1.0802 B(  8-C , 11-C ) :   0.1541 B(  8-C , 12-C ) :   0.2317
B(  8-C , 14-C ) :   0.8689 B(  8-C , 18-H ) :  -0.2844 B(  8-C , 21-H ) :  -0.1261
B(  8-C , 22-H ) :  -0.1035 B(  9-C , 11-C ) :   0.4284 B(  9-C , 13-C ) :   0.3699
B(  9-C , 15-C ) :   0.5530 B(  9-C , 26-H ) :   0.9041 B( 10-C , 11-C ) :   0.9893
B( 10-C , 14-C ) :  -0.1074 B( 10-C , 16-C ) :   0.1259 B( 10-C , 18-H ) :   1.2313
B( 10-C , 19-H ) :  -0.1111 B( 11-C , 17-C ) :  -0.1187 B( 11-C , 19-H ) :   0.6379
B( 12-C , 20-H ) :   0.9240 B( 12-C , 21-H ) :   1.0372 B( 12-C , 22-H ) :   0.8952
B( 13-C , 23-H ) :   0.9597 B( 13-C , 24-H ) :   0.9188 B( 13-C , 25-H ) :   0.9222

Dispersion correction           -0.055290648
FINAL SINGLE POINT ENERGY      -908.674064354726

DIPOLE MOMENT
-------------

Method             : TDA/CIS
Type of density    : Electron Density
Level              : Relaxed density
State              :   2
Multiplicity       :   3
Irrep              :   0
Energy             :     0.0000000000000000 Eh
Relativity type    :
Basis              : AO
                                X                 Y                 Z
Electronic contribution:      1.479185393     -12.897939855      -2.072262377
Nuclear contribution   :     -0.042902082      13.817024753       4.060950020
                        -----------------------------------------
Total Dipole Moment    :      1.436283311       0.919084898       1.988687642
                        -----------------------------------------
Magnitude (a.u.)       :      2.619638399
Magnitude (Debye)      :      6.658591642

Rotational constants in cm-1:             0.022561             0.010128             0.009782
Rotational constants in MHz :           676.348718           303.640112           293.266308

                             ****ORCA TERMINATED NORMALLY****
TOTAL RUN TIME: 0 days 0 hours 6 minutes 50 seconds 604 msec
