                         Program Version 6.0.0  -   RELEASE  -
|  1> ! Engrad def2-TZVPPD wB97M-D3BJ
|  2> %pal nprocs 8 end%pal nprocs 64 end
|  3> %tddft Nroots 2 Iroot 2
|  4> sf true
|  5> end
|  6> *xyz 0 3
|  7> O   2.16009375 -0.04157599 -1.22570343
|  8> O   0.02024237 2.5854623 -1.95354784
|  9> O   0.58019392 -3.77875576 0.74387611
| 10> O   -1.9499522 -1.35234297 -1.52321764
| 11> N   0.93557438 -1.95522946 2.08616623
| 12> N   -1.39986857 -0.50880045 0.50449949
| 13> N   1.18407696 -1.79387995 -0.25853162
| 14> N   -0.88836332 0.61997611 -1.46916069
| 15> C   1.00900584 0.2749374 0.89234848
| 16> C   -1.19925553 2.61962461 -0.0222527
| 17> C   0.67386233 -0.57108876 2.10383276
| 18> C   -0.41134103 0.18730287 1.31746073
| 19> C   1.72380185 1.56333807 1.02709607
| 20> C   -1.20735404 3.97580844 0.29090778
| 21> C   1.50562199 -0.46707465 -0.32052897
| 22> C   -0.60203064 1.91640941 -1.15722836
| 23> C   0.89588852 -2.57811912 0.84508354
| 24> C   -1.50999235 -0.45585688 -0.84507105
| 25> H   0.92927676 0.06203244 2.92695078
| 26> H   -0.70274599 1.12897921 1.83406634
| 27> H   1.69908041 2.18563399 0.1282145
| 28> H   1.46916337 2.12432168 1.90209313
| 29> H   2.77839131 1.4054406 1.16866868
| 30> H   -1.87721714 4.24800255 1.11914327
| 31> H   -0.18441791 4.34541924 0.50662063
| 32> H   -1.55060331 4.61737346 -0.58187664
| 33> H   0.45337276 -2.53342047 2.78630053
| 34> H   -1.88942786 -1.23865019 0.89340517
| 35> H   1.58038023 -2.4024316 -0.98849171
| 36> H   -0.74426302 0.34771317 -2.48292998
| 37> *
| 38>
| 39>                          ****END OF INPUT****

CARTESIAN COORDINATES (ANGSTROEM)
---------------------------------
  O      2.160094   -0.041576   -1.225703
  O      0.020242    2.585462   -1.953548
  O      0.580194   -3.778756    0.743876
  O     -1.949952   -1.352343   -1.523218
  N      0.935574   -1.955229    2.086166
  N     -1.399869   -0.508800    0.504499
  N      1.184077   -1.793880   -0.258532
  N     -0.888363    0.619976   -1.469161
  C      1.009006    0.274937    0.892348
  C     -1.199256    2.619625   -0.022253
  C      0.673862   -0.571089    2.103833
  C     -0.411341    0.187303    1.317461
  C      1.723802    1.563338    1.027096
  C     -1.207354    3.975808    0.290908
  C      1.505622   -0.467075   -0.320529
  C     -0.602031    1.916409   -1.157228
  C      0.895889   -2.578119    0.845084
  C     -1.509992   -0.455857   -0.845071
  H      0.929277    0.062032    2.926951
  H     -0.702746    1.128979    1.834066
  H      1.699080    2.185634    0.128215
  H      1.469163    2.124322    1.902093
  H      2.778391    1.405441    1.168669
  H     -1.877217    4.248003    1.119143
  H     -0.184418    4.345419    0.506621
  H     -1.550603    4.617373   -0.581877
  H      0.453373   -2.533420    2.786301
  H     -1.889428   -1.238650    0.893405
  H      1.580380   -2.402432   -0.988492
  H     -0.744263    0.347713   -2.482930

 Total Charge           Charge          ....    0
 Multiplicity           Mult            ....    3
 Number of Electrons    NEL             ....  132
 Basis Dimension        Dim             ....  882

ORBITAL ENERGIES
----------------
                 SPIN UP ORBITALS
  NO   OCC          E(Eh)            E(eV)
   0   1.0000     -19.336653      -526.1771
   1   1.0000     -19.332256      -526.0574
   2   1.0000     -19.324628      -525.8499
   3   1.0000     -19.316044      -525.6163
   4   1.0000     -14.573906      -396.5761
   5   1.0000     -14.568414      -396.4267
   6   1.0000     -14.558885      -396.1674
   7   1.0000     -14.558156      -396.1476
   8   1.0000     -10.513999      -286.1005
   9   1.0000     -10.500809      -285.7415
  10   1.0000     -10.488136      -285.3967
  11   1.0000     -10.483918      -285.2819
  12   1.0000     -10.438326      -284.0413
  13   1.0000     -10.438131      -284.0360
  14   1.0000     -10.412131      -283.3285
  15   1.0000     -10.407610      -283.2055
  16   1.0000     -10.378408      -282.4108
  17   1.0000     -10.356737      -281.8211
  18   1.0000      -1.226942       -33.3868
  19   1.0000      -1.218886       -33.1676
  20   1.0000      -1.202243       -32.7147
  21   1.0000      -1.196916       -32.5697
  22   1.0000      -1.123582       -30.5742
  23   1.0000      -1.090085       -29.6627
  24   1.0000      -1.072868       -29.1942
  25   1.0000      -1.059328       -28.8258
  26   1.0000      -1.016804       -27.6686
  27   1.0000      -0.946116       -25.7451
  28   1.0000      -0.880829       -23.9686
  29   1.0000      -0.829536       -22.5728
  30   1.0000      -0.820745       -22.3336
  31   1.0000      -0.802668       -21.8417
  32   1.0000      -0.784545       -21.3486
  33   1.0000      -0.775341       -21.0981
  34   1.0000      -0.722728       -19.6664
  35   1.0000      -0.704339       -19.1660
  36   1.0000      -0.689991       -18.7756
  37   1.0000      -0.654200       -17.8017
  38   1.0000      -0.638300       -17.3690
  39   1.0000      -0.630946       -17.1689
  40   1.0000      -0.610077       -16.6010
  41   1.0000      -0.609360       -16.5815
  42   1.0000      -0.602216       -16.3871
  43   1.0000      -0.591906       -16.1066
  44   1.0000      -0.577753       -15.7215
  45   1.0000      -0.568895       -15.4804
  46   1.0000      -0.561007       -15.2658
  47   1.0000      -0.560375       -15.2486
  48   1.0000      -0.553310       -15.0563
  49   1.0000      -0.550213       -14.9721
  50   1.0000      -0.545769       -14.8511
  51   1.0000      -0.540076       -14.6962
  52   1.0000      -0.526985       -14.3400
  53   1.0000      -0.518892       -14.1198
  54   1.0000      -0.503541       -13.7021
  55   1.0000      -0.479077       -13.0364
  56   1.0000      -0.442201       -12.0329
  57   1.0000      -0.435846       -11.8600
  58   1.0000      -0.421095       -11.4586
  59   1.0000      -0.412653       -11.2288
  60   1.0000      -0.402577       -10.9547
  61   1.0000      -0.397724       -10.8226
  62   1.0000      -0.393969       -10.7204
  63   1.0000      -0.384278       -10.4567
  64   1.0000      -0.370568       -10.0837
  65   1.0000      -0.350243        -9.5306
  66   1.0000      -0.333715        -9.0808
  67   0.0000       0.011981         0.3260
  68   0.0000       0.030163         0.8208
  69   0.0000       0.033142         0.9018
  70   0.0000       0.039244         1.0679
  71   0.0000       0.044338         1.2065

                 SPIN DOWN ORBITALS
  NO   OCC          E(Eh)            E(eV)
   0   1.0000     -19.336615      -526.1760
   1   1.0000     -19.325844      -525.8830
   2   1.0000     -19.324617      -525.8496
   3   1.0000     -19.315922      -525.6130
   4   1.0000     -14.573844      -396.5745
   5   1.0000     -14.568412      -396.4266
   6   1.0000     -14.558626      -396.1603
   7   1.0000     -14.558146      -396.1473
   8   1.0000     -10.513998      -286.1004
   9   1.0000     -10.500815      -285.7417
  10   1.0000     -10.488144      -285.3969
  11   1.0000     -10.484158      -285.2884
  12   1.0000     -10.438134      -284.0361
  13   1.0000     -10.437749      -284.0256
  14   1.0000     -10.407588      -283.2049
  15   1.0000     -10.387564      -282.6600
  16   1.0000     -10.378889      -282.4239
  17   1.0000     -10.356717      -281.8206
  18   1.0000      -1.226536       -33.3757
  19   1.0000      -1.216257       -33.0960
  20   1.0000      -1.197462       -32.5846
  21   1.0000      -1.194296       -32.4984
  22   1.0000      -1.123338       -30.5676
  23   1.0000      -1.089465       -29.6459
  24   1.0000      -1.072682       -29.1892
  25   1.0000      -1.057372       -28.7726
  26   1.0000      -1.016441       -27.6588
  27   1.0000      -0.916223       -24.9317
  28   1.0000      -0.880543       -23.9608
  29   1.0000      -0.825514       -22.4634
  30   1.0000      -0.813883       -22.1469
  31   1.0000      -0.801278       -21.8039
  32   1.0000      -0.779598       -21.2139
  33   1.0000      -0.770639       -20.9701
  34   1.0000      -0.718199       -19.5432
  35   1.0000      -0.701803       -19.0970
  36   1.0000      -0.687478       -18.7072
  37   1.0000      -0.652446       -17.7540
  38   1.0000      -0.637105       -17.3365
  39   1.0000      -0.620492       -16.8845
  40   1.0000      -0.607652       -16.5351
  41   1.0000      -0.600313       -16.3353
  42   1.0000      -0.588626       -16.0173
  43   1.0000      -0.584328       -15.9004
  44   1.0000      -0.570069       -15.5124
  45   1.0000      -0.563318       -15.3287
  46   1.0000      -0.556954       -15.1555
  47   1.0000      -0.552232       -15.0270
  48   1.0000      -0.550934       -14.9917
  49   1.0000      -0.544736       -14.8230
  50   1.0000      -0.540197       -14.6995
  51   1.0000      -0.526275       -14.3207
  52   1.0000      -0.525687       -14.3047
  53   1.0000      -0.508574       -13.8390
  54   1.0000      -0.502782       -13.6814
  55   1.0000      -0.478104       -13.0099
  56   1.0000      -0.437422       -11.9029
  57   1.0000      -0.423274       -11.5179
  58   1.0000      -0.418138       -11.3781
  59   1.0000      -0.409515       -11.1435
  60   1.0000      -0.394946       -10.7470
  61   1.0000      -0.389587       -10.6012
  62   1.0000      -0.386951       -10.5295
  63   1.0000      -0.379020       -10.3137
  64   1.0000      -0.367542       -10.0013
  65   0.0000      -0.031677        -0.8620
  66   0.0000      -0.028203        -0.7674
  67   0.0000       0.013381         0.3641
  68   0.0000       0.030233         0.8227
  69   0.0000       0.034954         0.9512

----------------------------------------------------------------------------------------------------
          SPIN FLIP ABSORPTION SPECTRUM VIA TRANSITION ELECTRIC DIPOLE MOMENTS
----------------------------------------------------------------------------------------------------
     Transition      Energy     Energy  Wavelength fosc(D2)      D2        DX        DY        DZ
                      (eV)      (cm-1)    (nm)                 (au**2)    (au)      (au)      (au)
----------------------------------------------------------------------------------------------------
  1-3A  ->  2-1A    0.105514     851.0  11750.5   0.000073338   0.02837  -0.15723   0.01256  -0.05909

Dispersion correction             ... done (  0.1 sec)

MULLIKEN ATOMIC CHARGES AND SPIN DENSITIES
------------------------------------------
   0 O :   -0.629310   -0.002207
   1 O :   -0.591352    0.053626
   2 O :   -0.668723   -0.000067
   3 O :   -0.657025    0.000429
   4 N :   -0.227557   -0.000614
   5 N :    0.015227   -0.012821
   6 N :    0.076055   -0.000211
   7 N :   -0.044453   -0.004690
   8 C :    1.928452    0.048419
   9 C :    0.120467    0.121312
  10 C :   -0.369681   -0.034477
  11 C :   -0.621929   -0.056378
  12 C :   -2.079854    0.051190
  13 C :   -0.841697    0.189612
  14 C :    0.155931   -0.014084
  15 C :    0.542663   -0.330042
  16 C :    0.335318   -0.001949
  17 C :    0.511622    0.005574
  18 H :    0.342439   -0.002700
  19 H :    0.486617   -0.001877
  20 H :    0.277296    0.000611
  21 H :    0.400453   -0.003634
  22 H :    0.413921    0.001045
  23 H :    0.271342    0.020163
  24 H :    0.222600   -0.012500
  25 H :    0.294291   -0.004038
  26 H :    0.147341    0.000553
  27 H :   -0.018436   -0.005547
  28 H :    0.103980    0.000129
  29 H :    0.104001   -0.004828
Sum of atomic charges       :    0.0000000

LOEWDIN ATOMIC CHARGES AND SPIN DENSITIES
-----------------------------------------
   0 O :    0.137875   -0.000005
   1 O :    0.109223    0.034311
   2 O :    0.058257   -0.000176
   3 O :    0.100210   -0.001751
   4 N :    0.277691   -0.000705
   5 N :    0.329081   -0.003516
   6 N :    0.325329   -0.000086
   7 N :    0.290768   -0.007280
   8 C :   -0.247243   -0.000300
   9 C :    0.122345    0.010335
  10 C :   -0.029940   -0.001306
  11 C :   -0.061126   -0.006030
  12 C :    0.199452   -0.000115
  13 C :    0.065116   -0.007431
  14 C :   -0.390567   -0.000065
  15 C :   -0.480857   -0.004578
  16 C :   -0.433895   -0.000138
  17 C :   -0.496586   -0.001803
  18 H :    0.035339   -0.000066
  19 H :    0.033413   -0.004366
  20 H :    0.003764   -0.000032
  21 H :   -0.005270   -0.000063
  22 H :    0.005024    0.000026
  23 H :   -0.010875    0.000440
  24 H :    0.028820   -0.002282
  25 H :    0.046805   -0.002386
  26 H :   -0.005136   -0.000035
  27 H :   -0.079090   -0.000151
  28 H :    0.021232   -0.000003
  29 H :    0.050846   -0.000440

  Mayer bond orders larger than 0.100000
B(  0-O ,  8-C ) :  -0.1336 B(  0-O , 14-C ) :   1.5478 B(  1-O ,  9-C ) :  -0.1239
B(  1-O , 15-C ) :   1.3933 B(  2-O , 16-C ) :   1.5440 B(  3-O , 17-C ) :   1.4642
B(  4-N ,  8-C ) :   0.1881 B(  4-N , 10-C ) :   0.4314 B(  4-N , 16-C ) :   1.0911
B(  4-N , 26-H ) :   0.9792 B(  5-N , 11-C ) :   0.7291 B(  5-N , 17-C ) :   0.9897
B(  5-N , 27-H ) :   1.1278 B(  6-N , 14-C ) :   1.1012 B(  6-N , 16-C ) :   0.9651
B(  6-N , 28-H ) :   1.0222 B(  7-N , 15-C ) :   0.8291 B(  7-N , 17-C ) :   0.9988
B(  7-N , 29-H ) :   1.0895 B(  8-C , 10-C ) :   0.6611 B(  8-C , 11-C ) :  -0.1681
B(  8-C , 12-C ) :  -0.4710 B(  8-C , 14-C ) :   0.4223 B(  8-C , 19-H ) :  -0.1427
B(  8-C , 20-H ) :  -0.1413 B(  8-C , 21-H ) :  -0.1478 B(  9-C , 13-C ) :   0.6918
B(  9-C , 15-C ) :   0.2499 B(  9-C , 19-H ) :  -0.1661 B( 10-C , 11-C ) :   0.6511
B( 10-C , 14-C ) :  -0.1091 B( 10-C , 18-H ) :   1.0482 B( 11-C , 14-C ) :  -0.1465
B( 11-C , 15-C ) :   0.1483 B( 11-C , 18-H ) :  -0.1319 B( 11-C , 19-H ) :   1.1258
B( 12-C , 20-H ) :   1.0406 B( 12-C , 21-H ) :   1.0337 B( 12-C , 22-H ) :   0.8503
B( 13-C , 23-H ) :   1.0397 B( 13-C , 24-H ) :   0.9082 B( 13-C , 25-H ) :   0.9081
B( 14-C , 16-C ) :  -0.1234

Dispersion correction           -0.058176922
FINAL SINGLE POINT ENERGY      -908.669465804883

DIPOLE MOMENT
-------------

Method             : TDA/CIS
Type of density    : Electron Density
Level              : Relaxed density
State              :   2
Multiplicity       :   3
Irrep              :   0
Energy             :     0.0000000000000000 Eh
Relativity type    :
Basis              : AO
                                X                 Y                 Z
Electronic contribution:     -0.774818479     -11.657440908      -6.127905575
Nuclear contribution   :      0.810889418      13.361676147       8.244243302
                        -----------------------------------------
Total Dipole Moment    :      0.036070939       1.704235239       2.116337727
                        -----------------------------------------
Magnitude (a.u.)       :      2.717462831
Magnitude (Debye)      :      6.907241589

Rotational constants in cm-1:             0.024428             0.012294             0.011223
Rotational constants in MHz :           732.329846           368.558316           336.462968

                             ****ORCA TERMINATED NORMALLY****
TOTAL RUN TIME: 0 days 0 hours 4 minutes 37 seconds 907 msec
