                         Program Version 6.0.0  -   RELEASE  -
|  1> ! EnGrad wB97M-D3BJ def2-TZVPPD
|  2> %pal nprocs 8 end%pal nprocs 16 end
|  3> %tddft
|  4>  sf true
|  5>  nroots 2 Iroot 1 end
|  6> *xyz 0 3
|  7> O   0.50638030558483 1.10205920491918 0.05955572130245
|  8> C   0.5983040654353 -0.23364351857613 0.00329954662866
|  9> C   -0.75169723305384 -0.75791377318745 0.0022680847169
| 10> H   1.16203371397718 -0.66549423017703 0.84976553251824
| 11> H   1.12582577981216 -0.57454887570692 -0.90272223247804
| 12> H   -1.29914214268509 -0.90167532183981 -0.92183037671322
| 13> H   -1.33950448907056 -0.68718348543184 0.90966372402502
| 14> *
| 15>
| 16>                          ****END OF INPUT****

CARTESIAN COORDINATES (ANGSTROEM)
---------------------------------
  O      0.506380    1.102059    0.059556
  C      0.598304   -0.233644    0.003300
  C     -0.751697   -0.757914    0.002268
  H      1.162034   -0.665494    0.849766
  H      1.125826   -0.574549   -0.902722
  H     -1.299142   -0.901675   -0.921830
  H     -1.339504   -0.687183    0.909664

 Total Charge           Charge          ....    0
 Multiplicity           Mult            ....    3
 Number of Electrons    NEL             ....   24
 Basis Dimension        Dim             ....  182

ORBITAL ENERGIES
----------------
                 SPIN UP ORBITALS
  NO   OCC          E(Eh)            E(eV)
   0   1.0000     -19.392217      -527.6891
   1   1.0000     -10.407984      -283.2156
   2   1.0000     -10.356441      -281.8131
   3   1.0000      -1.186704       -32.2919
   4   1.0000      -0.878657       -23.9095
   5   1.0000      -0.733923       -19.9711
   6   1.0000      -0.630804       -17.1650
   7   1.0000      -0.589901       -16.0520
   8   1.0000      -0.558054       -15.1854
   9   1.0000      -0.517044       -14.0695
  10   1.0000      -0.435324       -11.8458
  11   1.0000      -0.418277       -11.3819
  12   1.0000      -0.321446        -8.7470
  13   0.0000       0.041043         1.1168
  14   0.0000       0.063000         1.7143
  15   0.0000       0.074357         2.0234
  16   0.0000       0.087383         2.3778
  17   0.0000       0.116474         3.1694

                 SPIN DOWN ORBITALS
  NO   OCC          E(Eh)            E(eV)
   0   1.0000     -19.367233      -527.0092
   1   1.0000     -10.409334      -283.2524
   2   1.0000     -10.343516      -281.4614
   3   1.0000      -1.131754       -30.7966
   4   1.0000      -0.845152       -22.9978
   5   1.0000      -0.709188       -19.2980
   6   1.0000      -0.593956       -16.1624
   7   1.0000      -0.557055       -15.1582
   8   1.0000      -0.535651       -14.5758
   9   1.0000      -0.479470       -13.0470
  10   1.0000      -0.382906       -10.4194
  11   0.0000      -0.062793        -1.7087
  12   0.0000       0.002804         0.0763
  13   0.0000       0.039987         1.0881
  14   0.0000       0.063550         1.7293
  15   0.0000       0.074049         2.0150

----------------------------------------------------------------------------------------------------
          SPIN FLIP ABSORPTION SPECTRUM VIA TRANSITION ELECTRIC DIPOLE MOMENTS
----------------------------------------------------------------------------------------------------
     Transition      Energy     Energy  Wavelength fosc(D2)      D2        DX        DY        DZ
                      (eV)      (cm-1)    (nm)                 (au**2)    (au)      (au)      (au)
----------------------------------------------------------------------------------------------------
  1-3A  ->  2-3A    0.670466    5407.7  1849.2   0.000078477   0.00478   0.00064  -0.00734  -0.06873

Dispersion correction             ... done (  0.0 sec)

MULLIKEN ATOMIC CHARGES AND SPIN DENSITIES
------------------------------------------
   0 O :   -0.493815   -0.487216
   1 C :   -0.092852   -0.038091
   2 C :   -0.347294    0.367671
   3 H :    0.218521    0.069137
   4 H :    0.217970    0.010590
   5 H :    0.237922    0.036544
   6 H :    0.259549    0.041364
Sum of atomic charges       :    0.0000000

LOEWDIN ATOMIC CHARGES AND SPIN DENSITIES
-----------------------------------------
   0 O :   -0.031731   -0.487865
   1 C :   -0.385857    0.029196
   2 C :    0.386078    0.363407
   3 H :    0.033648    0.025031
   4 H :    0.021452   -0.012609
   5 H :   -0.010919    0.041140
   6 H :   -0.012671    0.041701

  Mayer bond orders larger than 0.100000
B(  0-O ,  1-C ) :   0.8576 B(  0-O ,  2-C ) :   0.5944 B(  1-C ,  2-C ) :   0.7553
B(  1-C ,  3-H ) :   1.0031 B(  1-C ,  4-H ) :   1.0253 B(  2-C ,  5-H ) :   0.9428
B(  2-C ,  6-H ) :   0.9460

Dispersion correction           -0.005610395
FINAL SINGLE POINT ENERGY      -153.770147517186

DIPOLE MOMENT
-------------

Method             : TDA/CIS
Type of density    : Electron Density
Level              : Relaxed density
State              :   1
Multiplicity       :   3
Irrep              :   0
Energy             :     0.0000000000000000 Eh
Relativity type    :
Basis              : AO
                                X                 Y                 Z
Electronic contribution:      0.232804756       1.463606894       0.107745939
Nuclear contribution   :     -0.826667437      -2.883219504      -0.141809442
                        -----------------------------------------
Total Dipole Moment    :     -0.593862681      -1.419612611      -0.034063503
                        -----------------------------------------
Magnitude (a.u.)       :      1.539198873
Magnitude (Debye)      :      3.912332616

Rotational constants in cm-1:             1.298832             0.392644             0.340698
Rotational constants in MHz :         38938.011490         11771.182548         10213.871010

                             ****ORCA TERMINATED NORMALLY****
TOTAL RUN TIME: 0 days 0 hours 0 minutes 19 seconds 190 msec
