                         Program Version 6.0.0  -   RELEASE  -
|  1> ! Opt wB97M-D3BJ def2-TZVPPD
|  2> %pal nprocs 8 end %pal nprocs 64 end
|  3> %geom
|  4> Constraints
|  5>     {A 2 1 0 146.94915254237287 C }
|  6> end
|  7> MaxIter 200
|  8> end
|  9> *xyz 0 1
| 10> O   1.9518222955235816 0.3761573708299003 0.0
| 11> C   0.7509 -0.4065 0.0
| 12> C   -0.7502 -0.4076 0.0
| 13> H   1.2625 -0.6786 0.9136
| 14> H   1.2625 -0.6787 -0.9136
| 15> H   -1.2614 -0.6806 -0.9136
| 16> H   -1.2614 -0.6805 0.9136
| 17> *
| 18>
| 19>                          ****END OF INPUT****
 Total Charge           Charge          ....    0
 Multiplicity           Mult            ....    1
 Number of Electrons    NEL             ....   24
Dispersion correction           -0.005278770
FINAL SINGLE POINT ENERGY      -153.677971643919
Dispersion correction             ... done (  0.1 sec)
Dispersion correction           -0.005382154
FINAL SINGLE POINT ENERGY      -153.701845706552
Dispersion correction             ... done (  0.1 sec)
Dispersion correction           -0.005452780
FINAL SINGLE POINT ENERGY      -153.712376487808
Dispersion correction             ... done (  0.1 sec)
FINAL SINGLE POINT ENERGY      -153.719869103101
FINAL SINGLE POINT ENERGY      -153.727563813827
FINAL SINGLE POINT ENERGY      -153.736752843084
FINAL SINGLE POINT ENERGY      -153.749398809566
FINAL SINGLE POINT ENERGY      -153.777530399013
FINAL SINGLE POINT ENERGY      -153.811340703375
FINAL SINGLE POINT ENERGY      -153.834037546857
FINAL SINGLE POINT ENERGY      -153.910151203198
FINAL SINGLE POINT ENERGY      -153.911048129146
FINAL SINGLE POINT ENERGY      -153.911202584974
FINAL SINGLE POINT ENERGY      -153.911337616041
FINAL SINGLE POINT ENERGY      -153.911547200780
FINAL SINGLE POINT ENERGY      -153.911701007380
FINAL SINGLE POINT ENERGY      -153.911744700008
Dispersion correction             ... done (  0.1 sec)
Dispersion correction           -0.005489031
FINAL SINGLE POINT ENERGY      -153.911754922857
Dispersion correction             ... done (  0.1 sec)
Dispersion correction           -0.005489090
FINAL SINGLE POINT ENERGY      -153.911755926065
Dispersion correction             ... done (  0.1 sec)
                    ***********************HURRAY********************

CARTESIAN COORDINATES (ANGSTROEM)
---------------------------------
  O      1.742734    0.894010    0.045554
  C      0.982452   -0.023277    0.183004
  C     -0.303246   -0.670055   -0.251017
  H      1.341757   -0.745869    0.969841
  H     -0.030005   -1.672932   -0.574490
  H     -0.879624   -0.168811   -1.027320
  H     -0.899346   -0.769410    0.654428

 Multiplicity           Mult            ....    1
 Number of Electrons    NEL             ....   24
 Basis Dimension        Dim             ....  182

ORBITAL ENERGIES
----------------

  NO   OCC          E(Eh)            E(eV)
   0   2.0000     -19.344899      -526.4015
   1   2.0000     -10.447777      -284.2985
   2   2.0000     -10.371810      -282.2313
   3   2.0000      -1.191147       -32.4128
   4   2.0000      -0.900174       -24.4950
   5   2.0000      -0.694036       -18.8857
   6   2.0000      -0.595058       -16.1923
   7   2.0000      -0.568870       -15.4797
   8   2.0000      -0.563155       -15.3242
   9   2.0000      -0.511725       -13.9248
  10   2.0000      -0.483209       -13.1488
  11   2.0000      -0.357470        -9.7273
  12   0.0000       0.032433         0.8825
  13   0.0000       0.058353         1.5879
  14   0.0000       0.059118         1.6087
  15   0.0000       0.080675         2.1953
  16   0.0000       0.084643         2.3032

MULLIKEN ATOMIC CHARGES
-----------------------
   0 O :   -0.458576
   1 C :    0.222423
   2 C :   -0.684998
   3 H :    0.187062
   4 H :    0.245816
   5 H :    0.242159
   6 H :    0.246113
Sum of atomic charges:   -0.0000000

LOEWDIN ATOMIC CHARGES
----------------------
   0 O :    0.078372
   1 C :   -0.243156
   2 C :    0.172268
   3 H :    0.016459
   4 H :   -0.006147
   5 H :   -0.011627
   6 H :   -0.006169

  Mayer bond orders larger than 0.100000
B(  0-O ,  1-C ) :   1.7759 B(  1-C ,  2-C ) :   0.7590 B(  1-C ,  3-H ) :   1.0273
B(  2-C ,  4-H ) :   0.9806 B(  2-C ,  5-H ) :   0.9661 B(  2-C ,  6-H ) :   0.9801

Dispersion correction           -0.005488812
FINAL SINGLE POINT ENERGY      -153.911756129547

DIPOLE MOMENT
-------------

Method             : SCF
Type of density    : Electron Density
Multiplicity       :   1
Irrep              :   0
Energy             :  -153.9062673178633815 Eh
Relativity type    :
Basis              : AO
                                X                 Y                 Z
Electronic contribution:      2.585905856       2.493216950      -0.005379248
Nuclear contribution   :     -3.454486112      -3.357910631       0.027341404
                        -----------------------------------------
Total Dipole Moment    :     -0.868580256      -0.864693681       0.021962157
                        -----------------------------------------
Magnitude (a.u.)       :      1.225809593
Magnitude (Debye)      :      3.115760372

Rotational constants in cm-1:             2.653482             0.294762             0.278930
Rotational constants in MHz :         79549.398880          8836.738901          8362.122376

                             ****ORCA TERMINATED NORMALLY****
TOTAL RUN TIME: 0 days 0 hours 5 minutes 53 seconds 368 msec
