                         Program Version 6.0.0  -   RELEASE  -
|  1> ! Engrad def2-TZVPPD wB97M-D3BJ
|  2> %pal nprocs 8 end%pal nprocs 64 end
|  3> %tddft Nroots 2 Iroot 2
|  4> sf true
|  5> end
|  6> *xyz 0 3
|  7> O   3.16878358 1.11947602 -0.02179365
|  8> O   -0.76128028 0.54598911 -2.59000794
|  9> O   1.01157145 -2.63775743 -1.29245617
| 10> O   -2.95070166 -1.56269618 0.81731823
| 11> N   0.48497835 -1.8083447 0.70218273
| 12> N   -2.33442981 0.66936318 1.2209258
| 13> N   2.23708505 -0.93965282 -0.48790545
| 14> N   -2.01887639 -0.4184687 -0.91396261
| 15> C   1.40325039 0.28224279 1.34151869
| 16> C   -0.79720975 1.63625756 -0.45803883
| 17> C   0.5395517 -0.78521764 1.61209024
| 18> C   -1.3539479 1.57851166 0.81286041
| 19> C   1.53585109 1.30946794 2.41906469
| 20> C   0.09044045 2.75770376 -0.85149898
| 21> C   2.3006034 0.23230226 0.19707448
| 22> C   -1.17647336 0.62481276 -1.42334349
| 23> C   1.19153243 -1.82338544 -0.46864313
| 24> C   -2.48475522 -0.55601105 0.3907857
| 25> H   -0.17057838 -0.76495419 2.33244284
| 26> H   -1.17008114 2.35836069 1.46292219
| 27> H   1.96298398 2.20660681 1.90155311
| 28> H   0.62928276 1.54953238 2.90424733
| 29> H   2.35242477 1.13175126 3.1739123
| 30> H   -0.54700319 3.55273671 -1.30614975
| 31> H   0.37008943 3.25382993 0.10442309
| 32> H   0.89032303 2.35033547 -1.47823034
| 33> H   -0.3242193 -2.4188133 0.7821908
| 34> H   -2.41892048 0.53339749 2.25940594
| 35> H   2.90172969 -1.12588966 -1.32861634
| 36> H   -1.87929033 -1.30923751 -1.5032089
| 37> *
| 38>
| 39>                          ****END OF INPUT****

CARTESIAN COORDINATES (ANGSTROEM)
---------------------------------
  O      3.168784    1.119476   -0.021794
  O     -0.761280    0.545989   -2.590008
  O      1.011571   -2.637757   -1.292456
  O     -2.950702   -1.562696    0.817318
  N      0.484978   -1.808345    0.702183
  N     -2.334430    0.669363    1.220926
  N      2.237085   -0.939653   -0.487905
  N     -2.018876   -0.418469   -0.913963
  C      1.403250    0.282243    1.341519
  C     -0.797210    1.636258   -0.458039
  C      0.539552   -0.785218    1.612090
  C     -1.353948    1.578512    0.812860
  C      1.535851    1.309468    2.419065
  C      0.090440    2.757704   -0.851499
  C      2.300603    0.232302    0.197074
  C     -1.176473    0.624813   -1.423343
  C      1.191532   -1.823385   -0.468643
  C     -2.484755   -0.556011    0.390786
  H     -0.170578   -0.764954    2.332443
  H     -1.170081    2.358361    1.462922
  H      1.962984    2.206607    1.901553
  H      0.629283    1.549532    2.904247
  H      2.352425    1.131751    3.173912
  H     -0.547003    3.552737   -1.306150
  H      0.370089    3.253830    0.104423
  H      0.890323    2.350335   -1.478230
  H     -0.324219   -2.418813    0.782191
  H     -2.418920    0.533397    2.259406
  H      2.901730   -1.125890   -1.328616
  H     -1.879290   -1.309238   -1.503209

 Total Charge           Charge          ....    0
 Multiplicity           Mult            ....    3
 Number of Electrons    NEL             ....  132
 Basis Dimension        Dim             ....  882

ORBITAL ENERGIES
----------------
                 SPIN UP ORBITALS
  NO   OCC          E(Eh)            E(eV)
   0   1.0000     -19.350129      -526.5438
   1   1.0000     -19.334163      -526.1093
   2   1.0000     -19.331726      -526.0430
   3   1.0000     -19.320999      -525.7511
   4   1.0000     -14.593700      -397.1148
   5   1.0000     -14.586900      -396.9297
   6   1.0000     -14.582514      -396.8104
   7   1.0000     -14.563015      -396.2798
   8   1.0000     -10.532078      -286.5924
   9   1.0000     -10.506589      -285.8988
  10   1.0000     -10.487665      -285.3839
  11   1.0000     -10.467269      -284.8289
  12   1.0000     -10.438540      -284.0471
  13   1.0000     -10.411269      -283.3050
  14   1.0000     -10.397109      -282.9197
  15   1.0000     -10.389712      -282.7184
  16   1.0000     -10.373085      -282.2660
  17   1.0000     -10.361525      -281.9514
  18   1.0000      -1.247135       -33.9363
  19   1.0000      -1.239925       -33.7401
  20   1.0000      -1.185564       -32.2608
  21   1.0000      -1.173770       -31.9399
  22   1.0000      -1.128388       -30.7050
  23   1.0000      -1.111826       -30.2543
  24   1.0000      -1.068035       -29.0627
  25   1.0000      -1.060561       -28.8593
  26   1.0000      -0.967657       -26.3313
  27   1.0000      -0.954424       -25.9712
  28   1.0000      -0.854307       -23.2469
  29   1.0000      -0.836735       -22.7687
  30   1.0000      -0.818991       -22.2859
  31   1.0000      -0.806794       -21.9540
  32   1.0000      -0.794684       -21.6244
  33   1.0000      -0.785005       -21.3611
  34   1.0000      -0.698083       -18.9958
  35   1.0000      -0.690591       -18.7919
  36   1.0000      -0.688105       -18.7243
  37   1.0000      -0.675327       -18.3766
  38   1.0000      -0.648206       -17.6386
  39   1.0000      -0.638233       -17.3672
  40   1.0000      -0.625926       -17.0323
  41   1.0000      -0.607331       -16.5263
  42   1.0000      -0.605750       -16.4833
  43   1.0000      -0.597866       -16.2688
  44   1.0000      -0.580038       -15.7836
  45   1.0000      -0.577020       -15.7015
  46   1.0000      -0.569337       -15.4925
  47   1.0000      -0.557737       -15.1768
  48   1.0000      -0.551538       -15.0081
  49   1.0000      -0.543605       -14.7922
  50   1.0000      -0.534723       -14.5506
  51   1.0000      -0.528024       -14.3683
  52   1.0000      -0.522208       -14.2100
  53   1.0000      -0.510114       -13.8809
  54   1.0000      -0.504264       -13.7217
  55   1.0000      -0.494358       -13.4522
  56   1.0000      -0.488103       -13.2820
  57   1.0000      -0.479493       -13.0477
  58   1.0000      -0.434917       -11.8347
  59   1.0000      -0.428297       -11.6545
  60   1.0000      -0.410503       -11.1704
  61   1.0000      -0.406399       -11.0587
  62   1.0000      -0.392728       -10.6867
  63   1.0000      -0.388714       -10.5774
  64   1.0000      -0.381698       -10.3865
  65   1.0000      -0.342736        -9.3263
  66   1.0000      -0.225531        -6.1370
  67   0.0000       0.001530         0.0416
  68   0.0000       0.008919         0.2427
  69   0.0000       0.029911         0.8139
  70   0.0000       0.036735         0.9996
  71   0.0000       0.037962         1.0330

                 SPIN DOWN ORBITALS
  NO   OCC          E(Eh)            E(eV)
   0   1.0000     -19.350123      -526.5436
   1   1.0000     -19.332402      -526.0614
   2   1.0000     -19.331620      -526.0401
   3   1.0000     -19.314699      -525.5797
   4   1.0000     -14.593450      -397.1080
   5   1.0000     -14.582499      -396.8100
   6   1.0000     -14.582466      -396.8091
   7   1.0000     -14.561997      -396.2521
   8   1.0000     -10.532070      -286.5922
   9   1.0000     -10.506807      -285.9047
  10   1.0000     -10.487691      -285.3846
  11   1.0000     -10.467399      -284.8324
  12   1.0000     -10.438264      -284.0396
  13   1.0000     -10.401404      -283.0366
  14   1.0000     -10.389314      -282.7076
  15   1.0000     -10.386630      -282.6346
  16   1.0000     -10.373615      -282.2804
  17   1.0000     -10.361520      -281.9513
  18   1.0000      -1.243746       -33.8441
  19   1.0000      -1.239821       -33.7372
  20   1.0000      -1.185410       -32.2566
  21   1.0000      -1.165317       -31.7099
  22   1.0000      -1.117969       -30.4215
  23   1.0000      -1.111253       -30.2387
  24   1.0000      -1.061956       -28.8973
  25   1.0000      -1.060239       -28.8506
  26   1.0000      -0.956027       -26.0148
  27   1.0000      -0.942817       -25.6553
  28   1.0000      -0.843078       -22.9413
  29   1.0000      -0.836328       -22.7576
  30   1.0000      -0.807638       -21.9769
  31   1.0000      -0.805499       -21.9187
  32   1.0000      -0.789184       -21.4748
  33   1.0000      -0.784829       -21.3563
  34   1.0000      -0.689189       -18.7538
  35   1.0000      -0.688170       -18.7261
  36   1.0000      -0.679425       -18.4881
  37   1.0000      -0.674524       -18.3547
  38   1.0000      -0.640096       -17.4179
  39   1.0000      -0.636462       -17.3190
  40   1.0000      -0.614728       -16.7276
  41   1.0000      -0.605724       -16.4826
  42   1.0000      -0.602165       -16.3858
  43   1.0000      -0.591146       -16.0859
  44   1.0000      -0.577585       -15.7169
  45   1.0000      -0.570575       -15.5261
  46   1.0000      -0.561566       -15.2810
  47   1.0000      -0.552000       -15.0207
  48   1.0000      -0.548534       -14.9264
  49   1.0000      -0.533439       -14.5156
  50   1.0000      -0.525417       -14.2973
  51   1.0000      -0.524170       -14.2634
  52   1.0000      -0.510261       -13.8849
  53   1.0000      -0.506322       -13.7777
  54   1.0000      -0.494948       -13.4682
  55   1.0000      -0.485006       -13.1977
  56   1.0000      -0.484867       -13.1939
  57   1.0000      -0.448084       -12.1930
  58   1.0000      -0.434481       -11.8228
  59   1.0000      -0.422997       -11.5103
  60   1.0000      -0.408850       -11.1254
  61   1.0000      -0.392659       -10.6848
  62   1.0000      -0.381995       -10.3946
  63   1.0000      -0.377835       -10.2814
  64   1.0000      -0.345628        -9.4050
  65   0.0000      -0.094569        -2.5734
  66   0.0000       0.002435         0.0663
  67   0.0000       0.008360         0.2275
  68   0.0000       0.026118         0.7107
  69   0.0000       0.033322         0.9067

----------------------------------------------------------------------------------------------------
          SPIN FLIP ABSORPTION SPECTRUM VIA TRANSITION ELECTRIC DIPOLE MOMENTS
----------------------------------------------------------------------------------------------------
     Transition      Energy     Energy  Wavelength fosc(D2)      D2        DX        DY        DZ
                      (eV)      (cm-1)    (nm)                 (au**2)    (au)      (au)      (au)
----------------------------------------------------------------------------------------------------
  1-3A  ->  2-3A    3.415524   27548.1   363.0   0.001237612   0.01479   0.07986   0.06217  -0.06743

Dispersion correction             ... done (  0.1 sec)

MULLIKEN ATOMIC CHARGES AND SPIN DENSITIES
------------------------------------------
   0 O :   -0.714381    0.007723
   1 O :   -0.664293    0.001090
   2 O :   -0.576420    0.001919
   3 O :   -0.557813    0.000036
   4 N :    0.055062    0.038464
   5 N :   -0.215918   -0.004988
   6 N :   -0.123311   -0.011831
   7 N :   -0.073736   -0.000556
   8 C :    1.295722    0.075631
   9 C :    0.737102   -0.003536
  10 C :   -0.687757    0.037288
  11 C :   -0.222002    0.002198
  12 C :   -1.370901   -0.032496
  13 C :   -1.330314   -0.002974
  14 C :    0.080114   -0.120183
  15 C :    0.375039    0.003618
  16 C :    0.421942    0.000112
  17 C :    0.289104   -0.005674
  18 H :    0.432395   -0.007370
  19 H :    0.412798    0.001411
  20 H :    0.293332    0.002790
  21 H :    0.304576    0.002541
  22 H :    0.338024    0.011029
  23 H :    0.396738    0.000121
  24 H :    0.276672    0.001129
  25 H :    0.246910    0.000637
  26 H :    0.085508   -0.000491
  27 H :    0.178209    0.001149
  28 H :    0.157787    0.001427
  29 H :    0.159809   -0.000212
Sum of atomic charges       :   -0.0000000

LOEWDIN ATOMIC CHARGES AND SPIN DENSITIES
-----------------------------------------
   0 O :    0.023888    0.006924
   1 O :    0.072983    0.000848
   2 O :    0.148070    0.001227
   3 O :    0.098142    0.000010
   4 N :    0.304436    0.017904
   5 N :    0.255071   -0.002779
   6 N :    0.282962   -0.007531
   7 N :    0.295947    0.000078
   8 C :   -0.095190    0.005224
   9 C :   -0.144421    0.002732
  10 C :    0.039591   -0.011204
  11 C :    0.046393   -0.000552
  12 C :    0.184654    0.000732
  13 C :    0.171802    0.000092
  14 C :   -0.421139   -0.008131
  15 C :   -0.365221    0.000398
  16 C :   -0.528724   -0.002439
  17 C :   -0.464037   -0.000064
  18 H :   -0.057385   -0.005868
  19 H :   -0.012523   -0.000214
  20 H :    0.013753    0.000627
  21 H :   -0.043448    0.000028
  22 H :    0.039705    0.000942
  23 H :    0.018816    0.000160
  24 H :    0.001690   -0.000007
  25 H :    0.002802   -0.000004
  26 H :   -0.005751    0.001680
  27 H :    0.003954   -0.000163
  28 H :    0.079888   -0.000655
  29 H :    0.053293    0.000006

  Mayer bond orders larger than 0.100000
B(  0-O , 14-C ) :   1.1749 B(  1-O , 15-C ) :   1.4007 B(  2-O , 16-C ) :   1.5245
B(  3-O , 17-C ) :   1.6369 B(  4-N , 10-C ) :   0.7910 B(  4-N , 16-C ) :   0.9638
B(  4-N , 26-H ) :   1.0652 B(  5-N , 11-C ) :   0.8477 B(  5-N , 17-C ) :   0.9535
B(  5-N , 27-H ) :   0.9767 B(  6-N , 14-C ) :   0.9512 B(  6-N , 16-C ) :   0.9906
B(  6-N , 28-H ) :   0.9875 B(  7-N , 15-C ) :   1.0147 B(  7-N , 17-C ) :   0.9285
B(  7-N , 29-H ) :   0.9845 B(  8-C , 10-C ) :   0.2655 B(  8-C , 12-C ) :   0.3560
B(  8-C , 14-C ) :   0.7244 B(  8-C , 20-H ) :  -0.1438 B(  9-C , 11-C ) :   1.0294
B(  9-C , 13-C ) :   0.5265 B(  9-C , 15-C ) :   0.7627 B(  9-C , 24-H ) :  -0.1112
B( 10-C , 18-H ) :   0.8736 B( 11-C , 13-C ) :  -0.1314 B( 11-C , 19-H ) :   0.9518
B( 12-C , 14-C ) :  -0.1258 B( 12-C , 20-H ) :   1.0503 B( 12-C , 21-H ) :   0.9810
B( 12-C , 22-H ) :   0.8151 B( 13-C , 23-H ) :   0.8301 B( 13-C , 24-H ) :   1.0246
B( 13-C , 25-H ) :   0.9868

Dispersion correction           -0.058094563
FINAL SINGLE POINT ENERGY      -908.725410239555

DIPOLE MOMENT
-------------

Method             : TDA/CIS
Type of density    : Electron Density
Level              : Relaxed density
State              :   2
Multiplicity       :   3
Irrep              :   0
Energy             :     0.0000000000000000 Eh
Relativity type    :
Basis              : AO
                                X                 Y                 Z
Electronic contribution:     -3.210680035      -9.883519083      -6.072105298
Nuclear contribution   :      2.332451899      10.611131874       8.228557864
                        -----------------------------------------
Total Dipole Moment    :     -0.878228136       0.727612791       2.156452566
                        -----------------------------------------
Magnitude (a.u.)       :      2.439465659
Magnitude (Debye)      :      6.200628932

Rotational constants in cm-1:             0.018185             0.013860             0.012454
Rotational constants in MHz :           545.175942           415.509281           373.371452

                             ****ORCA TERMINATED NORMALLY****
TOTAL RUN TIME: 0 days 0 hours 5 minutes 54 seconds 134 msec
