                         Program Version 6.0.0  -   RELEASE  -
|  1> ! Engrad def2-TZVPPD wB97M-D3BJ
|  2> %pal nprocs 8 end%pal nprocs 64 end
|  3> %tddft
|  4>  Iroot 1 Nroots 3
|  5> sf true
|  6> end
|  7> *xyz 0 3
|  8> O   0.91306736 -0.8767211 0.51829191
|  9> C   0.61490486 0.07105315 -0.41871171
| 10> C   -0.38475626 1.08045115 0.13060159
| 11> H   0.07389603 -0.44165328 -1.18760383
| 12> H   1.55452383 0.69679532 -0.80938099
| 13> H   -0.21076287 2.12822096 -0.12798599
| 14> H   -1.31512248 0.56176716 0.47056768
| 15> *
| 16>
| 17>                          ****END OF INPUT****

CARTESIAN COORDINATES (ANGSTROEM)
---------------------------------
  O      0.913067   -0.876721    0.518292
  C      0.614905    0.071053   -0.418712
  C     -0.384756    1.080451    0.130602
  H      0.073896   -0.441653   -1.187604
  H      1.554524    0.696795   -0.809381
  H     -0.210763    2.128221   -0.127986
  H     -1.315122    0.561767    0.470568

 Total Charge           Charge          ....    0
 Multiplicity           Mult            ....    3
 Number of Electrons    NEL             ....   24
 Basis Dimension        Dim             ....  182

ORBITAL ENERGIES
----------------
                 SPIN UP ORBITALS
  NO   OCC          E(Eh)            E(eV)
   0   1.0000     -19.390197      -527.6341
   1   1.0000     -10.417890      -283.4852
   2   1.0000     -10.384445      -282.5751
   3   1.0000      -1.170577       -31.8530
   4   1.0000      -0.875141       -23.8138
   5   1.0000      -0.723553       -19.6889
   6   1.0000      -0.615157       -16.7393
   7   1.0000      -0.590560       -16.0700
   8   1.0000      -0.549769       -14.9600
   9   1.0000      -0.513853       -13.9827
  10   1.0000      -0.441232       -12.0065
  11   1.0000      -0.405256       -11.0276
  12   1.0000      -0.333504        -9.0751
  13   0.0000       0.040243         1.0951
  14   0.0000       0.062122         1.6904
  15   0.0000       0.074170         2.0183
  16   0.0000       0.087328         2.3763
  17   0.0000       0.110954         3.0192

                 SPIN DOWN ORBITALS
  NO   OCC          E(Eh)            E(eV)
   0   1.0000     -19.366441      -526.9877
   1   1.0000     -10.419051      -283.5168
   2   1.0000     -10.369512      -282.1688
   3   1.0000      -1.116831       -30.3905
   4   1.0000      -0.839924       -22.8555
   5   1.0000      -0.692934       -18.8557
   6   1.0000      -0.598362       -16.2823
   7   1.0000      -0.544365       -14.8129
   8   1.0000      -0.511879       -13.9289
   9   1.0000      -0.498756       -13.5718
  10   1.0000      -0.378631       -10.3031
  11   0.0000      -0.055501        -1.5103
  12   0.0000      -0.004125        -0.1123
  13   0.0000       0.040592         1.1046
  14   0.0000       0.062572         1.7027
  15   0.0000       0.074660         2.0316

----------------------------------------------------------------------------------------------------
          SPIN FLIP ABSORPTION SPECTRUM VIA TRANSITION ELECTRIC DIPOLE MOMENTS
----------------------------------------------------------------------------------------------------
     Transition      Energy     Energy  Wavelength fosc(D2)      D2        DX        DY        DZ
                      (eV)      (cm-1)    (nm)                 (au**2)    (au)      (au)      (au)
----------------------------------------------------------------------------------------------------
  1-3A  ->  2-3A    0.204301    1647.8  6068.7   0.000061723   0.01233   0.06889   0.08609  -0.01322
  1-3A  ->  3-1A    1.036029    8356.1  1196.7   0.014382641   0.56664  -0.44247   0.57996  -0.18576

Dispersion correction             ... done (  0.1 sec)

MULLIKEN ATOMIC CHARGES AND SPIN DENSITIES
------------------------------------------
   0 O :   -0.425108   -0.398150
   1 C :   -0.061078   -0.031192
   2 C :   -0.466810    0.502887
   3 H :    0.220027   -0.014104
   4 H :    0.258520   -0.080345
   5 H :    0.237478    0.014827
   6 H :    0.236970    0.006078
Sum of atomic charges       :   -0.0000000

LOEWDIN ATOMIC CHARGES AND SPIN DENSITIES
-----------------------------------------
   0 O :   -0.039017   -0.397381
   1 C :   -0.302034   -0.031347
   2 C :    0.319239    0.418071
   3 H :   -0.015436   -0.019660
   4 H :    0.095499   -0.054317
   5 H :   -0.041813    0.046409
   6 H :   -0.016438    0.038225

  Mayer bond orders larger than 0.100000
B(  0-O ,  1-C ) :   0.9663 B(  0-O ,  2-C ) :   0.3140 B(  1-C ,  2-C ) :   0.7806
B(  1-C ,  3-H ) :   1.0298 B(  1-C ,  4-H ) :   0.8864 B(  2-C ,  5-H ) :   0.9568
B(  2-C ,  6-H ) :   0.9627

Dispersion correction           -0.005557770
FINAL SINGLE POINT ENERGY      -153.745725302237

DIPOLE MOMENT
-------------

Method             : TDA/CIS
Type of density    : Electron Density
Level              : Relaxed density
State              :   1
Multiplicity       :   3
Irrep              :   0
Energy             :     0.0000000000000000 Eh
Relativity type    :
Basis              : AO
                                X                 Y                 Z
Electronic contribution:      0.897795972      -1.517789254       1.090079148
Nuclear contribution   :     -1.384866956       2.512954934      -1.815050014
                        -----------------------------------------
Total Dipole Moment    :     -0.487070984       0.995165680      -0.724970866
                        -----------------------------------------
Magnitude (a.u.)       :      1.324075387
Magnitude (Debye)      :      3.365532169

Rotational constants in cm-1:             1.371221             0.351733             0.308505
Rotational constants in MHz :         41108.170981         10544.699713          9248.744144

                             ****ORCA TERMINATED NORMALLY****
TOTAL RUN TIME: 0 days 0 hours 0 minutes 27 seconds 397 msec
