                         Program Version 6.0.0  -   RELEASE  -
|  1> ! Engrad def2-TZVPPD wB97M-D3BJ
|  2> %pal nprocs 8 end%pal nprocs 64 end
|  3> %tddft Nroots 2 Iroot 1
|  4> sf true
|  5> end
|  6> *xyz 0 3
|  7> O   1.99869903 -0.11114001 -1.457146
|  8> O   -0.32567112 3.06289132 -1.74179262
|  9> O   0.43849646 -4.00204148 0.50981556
| 10> O   -1.9227426 -1.16696631 -1.41087339
| 11> N   0.79995596 -2.2397388 1.84307676
| 12> N   -1.08685981 -0.3028348 0.51351279
| 13> N   1.36494275 -2.09680617 -0.46285774
| 14> N   -1.33771166 1.08701741 -1.47381818
| 15> C   1.36633182 0.05766202 0.77521511
| 16> C   -1.31453206 2.71259808 0.34003297
| 17> C   0.90401204 -0.78088087 1.97800942
| 18> C   -0.07529948 0.24479033 1.27008483
| 19> C   2.25322118 1.22609949 0.87367451
| 20> C   -1.54893948 3.96660903 0.99803722
| 21> C   1.55274353 -0.68499959 -0.5147597
| 22> C   -0.94131555 2.33381019 -0.98152609
| 23> C   0.82191441 -2.82433527 0.61028456
| 24> C   -1.50471856 -0.19206388 -0.82596562
| 25> H   1.38254652 -0.49038135 2.86927493
| 26> H   -0.4774291 1.1397132 1.79183976
| 27> H   2.0050913 1.90934881 0.06226675
| 28> H   2.22082294 1.64999321 1.8607826
| 29> H   3.26358442 1.03273754 0.51892893
| 30> H   -0.8864419 4.16879424 1.89793595
| 31> H   -1.45167418 4.80899431 0.29011186
| 32> H   -2.57449232 3.91534639 1.36740395
| 33> H   0.09391336 -2.69427725 2.43397405
| 34> H   -1.36042665 -1.29095608 0.66244096
| 35> H   1.69377102 -2.55588991 -1.24787914
| 36> H   -1.32511024 1.04460144 -2.4381868
| 37> *
| 38>
| 39>                          ****END OF INPUT****

CARTESIAN COORDINATES (ANGSTROEM)
---------------------------------
  O      1.998699   -0.111140   -1.457146
  O     -0.325671    3.062891   -1.741793
  O      0.438496   -4.002041    0.509816
  O     -1.922743   -1.166966   -1.410873
  N      0.799956   -2.239739    1.843077
  N     -1.086860   -0.302835    0.513513
  N      1.364943   -2.096806   -0.462858
  N     -1.337712    1.087017   -1.473818
  C      1.366332    0.057662    0.775215
  C     -1.314532    2.712598    0.340033
  C      0.904012   -0.780881    1.978009
  C     -0.075299    0.244790    1.270085
  C      2.253221    1.226099    0.873675
  C     -1.548939    3.966609    0.998037
  C      1.552744   -0.685000   -0.514760
  C     -0.941316    2.333810   -0.981526
  C      0.821914   -2.824335    0.610285
  C     -1.504719   -0.192064   -0.825966
  H      1.382547   -0.490381    2.869275
  H     -0.477429    1.139713    1.791840
  H      2.005091    1.909349    0.062267
  H      2.220823    1.649993    1.860783
  H      3.263584    1.032738    0.518929
  H     -0.886442    4.168794    1.897936
  H     -1.451674    4.808994    0.290112
  H     -2.574492    3.915346    1.367404
  H      0.093913   -2.694277    2.433974
  H     -1.360427   -1.290956    0.662441
  H      1.693771   -2.555890   -1.247879
  H     -1.325110    1.044601   -2.438187

 Total Charge           Charge          ....    0
 Multiplicity           Mult            ....    3
 Number of Electrons    NEL             ....  132
 Basis Dimension        Dim             ....  882

ORBITAL ENERGIES
----------------
                 SPIN UP ORBITALS
  NO   OCC          E(Eh)            E(eV)
   0   1.0000     -19.345433      -526.4160
   1   1.0000     -19.338815      -526.2359
   2   1.0000     -19.326780      -525.9084
   3   1.0000     -19.318028      -525.6703
   4   1.0000     -14.571828      -396.5196
   5   1.0000     -14.568324      -396.4243
   6   1.0000     -14.553372      -396.0174
   7   1.0000     -14.552228      -395.9863
   8   1.0000     -10.512983      -286.0728
   9   1.0000     -10.511267      -286.0261
  10   1.0000     -10.493366      -285.5390
  11   1.0000     -10.485522      -285.3256
  12   1.0000     -10.440039      -284.0879
  13   1.0000     -10.436086      -283.9803
  14   1.0000     -10.419762      -283.5361
  15   1.0000     -10.408690      -283.2348
  16   1.0000     -10.388386      -282.6824
  17   1.0000     -10.357849      -281.8514
  18   1.0000      -1.226958       -33.3872
  19   1.0000      -1.215670       -33.0801
  20   1.0000      -1.201882       -32.7049
  21   1.0000      -1.196469       -32.5576
  22   1.0000      -1.113634       -30.3035
  23   1.0000      -1.082181       -29.4476
  24   1.0000      -1.064910       -28.9777
  25   1.0000      -1.056845       -28.7582
  26   1.0000      -0.995746       -27.0956
  27   1.0000      -0.948213       -25.8022
  28   1.0000      -0.877964       -23.8906
  29   1.0000      -0.833622       -22.6840
  30   1.0000      -0.813023       -22.1235
  31   1.0000      -0.807186       -21.9646
  32   1.0000      -0.783713       -21.3259
  33   1.0000      -0.763103       -20.7651
  34   1.0000      -0.714670       -19.4472
  35   1.0000      -0.692801       -18.8521
  36   1.0000      -0.688537       -18.7361
  37   1.0000      -0.653031       -17.7699
  38   1.0000      -0.643020       -17.4975
  39   1.0000      -0.625569       -17.0226
  40   1.0000      -0.612809       -16.6754
  41   1.0000      -0.601372       -16.3642
  42   1.0000      -0.597904       -16.2698
  43   1.0000      -0.589717       -16.0470
  44   1.0000      -0.581235       -15.8162
  45   1.0000      -0.571747       -15.5580
  46   1.0000      -0.565693       -15.3933
  47   1.0000      -0.563043       -15.3212
  48   1.0000      -0.555224       -15.1084
  49   1.0000      -0.551678       -15.0119
  50   1.0000      -0.549220       -14.9450
  51   1.0000      -0.540592       -14.7103
  52   1.0000      -0.527300       -14.3485
  53   1.0000      -0.522348       -14.2138
  54   1.0000      -0.506250       -13.7758
  55   1.0000      -0.463914       -12.6237
  56   1.0000      -0.451060       -12.2740
  57   1.0000      -0.437221       -11.8974
  58   1.0000      -0.413508       -11.2521
  59   1.0000      -0.409434       -11.1413
  60   1.0000      -0.405264       -11.0278
  61   1.0000      -0.400175       -10.8893
  62   1.0000      -0.391460       -10.6522
  63   1.0000      -0.381495       -10.3810
  64   1.0000      -0.369169       -10.0456
  65   1.0000      -0.359495        -9.7824
  66   1.0000      -0.340767        -9.2727
  67   0.0000       0.014426         0.3926
  68   0.0000       0.030193         0.8216
  69   0.0000       0.031231         0.8498
  70   0.0000       0.039560         1.0765
  71   0.0000       0.041991         1.1426

                 SPIN DOWN ORBITALS
  NO   OCC          E(Eh)            E(eV)
   0   1.0000     -19.345424      -526.4158
   1   1.0000     -19.331925      -526.0484
   2   1.0000     -19.326617      -525.9040
   3   1.0000     -19.318000      -525.6695
   4   1.0000     -14.571768      -396.5180
   5   1.0000     -14.568326      -396.4243
   6   1.0000     -14.552895      -396.0044
   7   1.0000     -14.552190      -395.9852
   8   1.0000     -10.513007      -286.0735
   9   1.0000     -10.511268      -286.0261
  10   1.0000     -10.493367      -285.5390
  11   1.0000     -10.486159      -285.3429
  12   1.0000     -10.439830      -284.0822
  13   1.0000     -10.435512      -283.9647
  14   1.0000     -10.408705      -283.2353
  15   1.0000     -10.394934      -282.8605
  16   1.0000     -10.388802      -282.6937
  17   1.0000     -10.357818      -281.8505
  18   1.0000      -1.226901       -33.3857
  19   1.0000      -1.212741       -33.0003
  20   1.0000      -1.196684       -32.5634
  21   1.0000      -1.193453       -32.4755
  22   1.0000      -1.113302       -30.2945
  23   1.0000      -1.081592       -29.4316
  24   1.0000      -1.063998       -28.9529
  25   1.0000      -1.054723       -28.7005
  26   1.0000      -0.995458       -27.0878
  27   1.0000      -0.917082       -24.9551
  28   1.0000      -0.877694       -23.8833
  29   1.0000      -0.818667       -22.2771
  30   1.0000      -0.808736       -22.0068
  31   1.0000      -0.806798       -21.9541
  32   1.0000      -0.783264       -21.3137
  33   1.0000      -0.759983       -20.6802
  34   1.0000      -0.712969       -19.4009
  35   1.0000      -0.691835       -18.8258
  36   1.0000      -0.680347       -18.5132
  37   1.0000      -0.649808       -17.6822
  38   1.0000      -0.642379       -17.4800
  39   1.0000      -0.619847       -16.8669
  40   1.0000      -0.602154       -16.3854
  41   1.0000      -0.596853       -16.2412
  42   1.0000      -0.586417       -15.9572
  43   1.0000      -0.577443       -15.7130
  44   1.0000      -0.572586       -15.5809
  45   1.0000      -0.566370       -15.4117
  46   1.0000      -0.560457       -15.2508
  47   1.0000      -0.558777       -15.2051
  48   1.0000      -0.549776       -14.9602
  49   1.0000      -0.545458       -14.8427
  50   1.0000      -0.539166       -14.6715
  51   1.0000      -0.536555       -14.6004
  52   1.0000      -0.525948       -14.3118
  53   1.0000      -0.510157       -13.8821
  54   1.0000      -0.506098       -13.7716
  55   1.0000      -0.462182       -12.5766
  56   1.0000      -0.447567       -12.1789
  57   1.0000      -0.425362       -11.5747
  58   1.0000      -0.412859       -11.2345
  59   1.0000      -0.407581       -11.0908
  60   1.0000      -0.393513       -10.7080
  61   1.0000      -0.390552       -10.6274
  62   1.0000      -0.382806       -10.4167
  63   1.0000      -0.377245       -10.2654
  64   1.0000      -0.366735        -9.9794
  65   0.0000      -0.049070        -1.3353
  66   0.0000      -0.023466        -0.6385
  67   0.0000       0.016016         0.4358
  68   0.0000       0.030304         0.8246
  69   0.0000       0.033482         0.9111

----------------------------------------------------------------------------------------------------
          SPIN FLIP ABSORPTION SPECTRUM VIA TRANSITION ELECTRIC DIPOLE MOMENTS
----------------------------------------------------------------------------------------------------
     Transition      Energy     Energy  Wavelength fosc(D2)      D2        DX        DY        DZ
                      (eV)      (cm-1)    (nm)                 (au**2)    (au)      (au)      (au)
----------------------------------------------------------------------------------------------------
  1-3A  ->  2-3A    0.323948    2612.8  3827.3   0.000562663   0.07089  -0.04727   0.10631  -0.23950

Dispersion correction             ... done (  0.1 sec)

MULLIKEN ATOMIC CHARGES AND SPIN DENSITIES
------------------------------------------
   0 O :   -0.604404   -0.001226
   1 O :   -0.635789   -0.079969
   2 O :   -0.667942   -0.000104
   3 O :   -0.634916   -0.003528
   4 N :   -0.225625    0.000162
   5 N :   -0.225068    0.015410
   6 N :    0.106114    0.000211
   7 N :    0.015694   -0.012311
   8 C :    1.905902    0.032843
   9 C :    0.248057    0.131952
  10 C :   -0.363441   -0.024555
  11 C :   -0.403428   -0.023258
  12 C :   -1.776810    0.009432
  13 C :   -0.894812    0.048507
  14 C :   -0.103800   -0.007565
  15 C :    0.505340   -0.084096
  16 C :    0.389093   -0.000680
  17 C :    0.524470   -0.017001
  18 H :    0.273433    0.000022
  19 H :    0.476138   -0.008218
  20 H :    0.320470    0.001205
  21 H :    0.367458   -0.003570
  22 H :    0.312274    0.000703
  23 H :    0.249345    0.022554
  24 H :    0.320525    0.012987
  25 H :    0.242544   -0.019500
  26 H :    0.144513   -0.000033
  27 H :    0.147621   -0.000258
  28 H :   -0.011000   -0.000033
  29 H :   -0.001955    0.009917
Sum of atomic charges       :   -0.0000000

LOEWDIN ATOMIC CHARGES AND SPIN DENSITIES
-----------------------------------------
   0 O :    0.140936   -0.000133
   1 O :    0.089862   -0.064608
   2 O :    0.051539   -0.000182
   3 O :    0.093634   -0.003582
   4 N :    0.266349   -0.000615
   5 N :    0.231722    0.002863
   6 N :    0.379160    0.000013
   7 N :    0.347768   -0.007125
   8 C :   -0.225480   -0.000628
   9 C :    0.196012    0.100542
  10 C :    0.024122   -0.002004
  11 C :   -0.096459   -0.004048
  12 C :    0.200029   -0.000828
  13 C :    0.109528    0.008941
  14 C :   -0.350327    0.000060
  15 C :   -0.496953   -0.025693
  16 C :   -0.460260   -0.000134
  17 C :   -0.415373    0.000466
  18 H :    0.013380   -0.000096
  19 H :    0.019420   -0.001061
  20 H :    0.000027   -0.000344
  21 H :    0.000715   -0.000020
  22 H :    0.006608   -0.000015
  23 H :    0.034755   -0.013657
  24 H :    0.003309    0.013423
  25 H :    0.010724   -0.001061
  26 H :   -0.011071   -0.000037
  27 H :   -0.022088    0.000090
  28 H :   -0.065574   -0.000001
  29 H :   -0.076013   -0.000526

  Mayer bond orders larger than 0.100000
B(  0-O , 14-C ) :   1.5011 B(  1-O , 15-C ) :   1.3664 B(  2-O , 16-C ) :   1.5382
B(  3-O , 17-C ) :   1.4864 B(  4-N ,  8-C ) :   0.1289 B(  4-N , 10-C ) :   0.4245
B(  4-N , 16-C ) :   1.1037 B(  4-N , 26-H ) :   0.9899 B(  5-N , 11-C ) :   0.4412
B(  5-N , 17-C ) :   1.0246 B(  5-N , 27-H ) :   0.9658 B(  6-N , 14-C ) :   0.9356
B(  6-N , 16-C ) :   0.9536 B(  6-N , 28-H ) :   1.1416 B(  7-N ,  9-C ) :   0.1629
B(  7-N , 15-C ) :   0.7825 B(  7-N , 17-C ) :   0.9515 B(  7-N , 29-H ) :   1.1437
B(  8-C , 10-C ) :   0.6516 B(  8-C , 11-C ) :   0.3262 B(  8-C , 12-C ) :  -0.2198
B(  8-C , 14-C ) :   0.1438 B(  8-C , 20-H ) :  -0.1163 B(  8-C , 21-H ) :  -0.1222
B(  9-C , 13-C ) :   0.8070 B(  9-C , 15-C ) :   0.9211 B(  9-C , 19-H ) :  -0.1933
B(  9-C , 24-H ) :  -0.1032 B( 10-C , 11-C ) :   0.8617 B( 10-C , 18-H ) :   1.0602
B( 11-C , 19-H ) :   0.8789 B( 12-C , 20-H ) :   1.0195 B( 12-C , 21-H ) :   1.0139
B( 12-C , 22-H ) :   0.9132 B( 13-C , 23-H ) :   0.9457 B( 13-C , 24-H ) :   0.9717
B( 13-C , 25-H ) :   0.8955

Dispersion correction           -0.054706178
FINAL SINGLE POINT ENERGY      -908.668514034275

DIPOLE MOMENT
-------------

Method             : TDA/CIS
Type of density    : Electron Density
Level              : Relaxed density
State              :   1
Multiplicity       :   3
Irrep              :   0
Energy             :     0.0000000000000000 Eh
Relativity type    :
Basis              : AO
                                X                 Y                 Z
Electronic contribution:     -1.834364025      -9.887278940      -6.885918531
Nuclear contribution   :      1.519188030      11.791511472       9.173987602
                        -----------------------------------------
Total Dipole Moment    :     -0.315175995       1.904232532       2.288069071
                        -----------------------------------------
Magnitude (a.u.)       :      2.993442419
Magnitude (Debye)      :      7.608725954

Rotational constants in cm-1:             0.024008             0.010903             0.010193
Rotational constants in MHz :           719.727872           326.858411           305.591059

                             ****ORCA TERMINATED NORMALLY****
TOTAL RUN TIME: 0 days 0 hours 4 minutes 37 seconds 436 msec
