                         Program Version 6.0.0  -   RELEASE  -
|  1> ! Engrad def2-TZVPPD wB97M-D3BJ
|  2> %pal nprocs 8 end%pal nprocs 64 end
|  3> %tddft
|  4> Iroot 3 Nroots 3
|  5> sf true
|  6> end
|  7> *xyz 0 3
|  8> O   2.8671564503013593 0.8759966588327206 -0.6722065869731122
|  9> O   -0.45860144279238957 1.0650015478493269 -2.314910617434152
| 10> O   0.5016792875102513 -2.9392053672496234 -1.0108259546239324
| 11> O   -2.993356487766163 -1.506386381667492 0.31103150704949
| 12> N   0.3981483105360284 -1.7855652254103243 0.8858732727129854
| 13> N   -2.0668318270780657 0.24776096816531334 1.2451654128657996
| 14> N   1.6459302056287062 -1.0016191733184616 -0.8340657008770695
| 15> N   -1.604894447158139 -0.28522126769264405 -0.9410136625373029
| 16> C   1.4520162080040706 0.3576732414998792 1.056366788798365
| 17> C   -0.6154745416733117 1.6377187796455186 -0.044012166716311106
| 18> C   0.5587051189877934 -0.5996474287381592 1.5869537918790755
| 19> C   -1.0139813642857138 1.1125063694816129 1.2136924613214901
| 20> C   2.001171175796016 1.357537127180862 1.9211680512461407
| 21> C   -0.39477150413441875 3.03557398846938 -0.20790396452621593
| 22> C   2.0670692268909026 0.12048077945160021 -0.20517118597219045
| 23> C   -0.859125785278145 0.826279194830326 -1.2104979419688968
| 24> C   0.820803375627372 -1.9771864469106684 -0.3747378883065756
| 25> C   -2.2590928921297753 -0.5725973633553686 0.2139708088145002
| 26> H   0.5873501686182522 -0.7696547558445829 2.653384261241196
| 27> H   -1.0850431916533771 1.8311324659277608 2.0129168283883683
| 28> H   2.170863893762947 2.2794840468593343 1.37140030344483
| 29> H   1.401307033274458 1.6233965403622674 2.790859972725966
| 30> H   2.9688403613025094 1.135904590083172 2.367597671279953
| 31> H   -1.3416020709451173 3.465327481863667 -0.5421828678806355
| 32> H   -0.04336758388173348 3.627271153876709 0.6278597566187667
| 33> H   0.3127957082520297 3.2389684905848815 -1.0079906372982623
| 34> H   -0.2631198070959283 -2.4698066262351057 1.1970370773772967
| 35> H   -2.515958145073484 0.02358691084162819 2.1079823311306916
| 36> H   1.986580009613441 -1.1460339069350345 -1.7690913469774274
| 37> H   -1.7725954431603774 -0.8936763924485622 -1.7240497748028216
| 38> *
| 39>
| 40>                          ****END OF INPUT****

CARTESIAN COORDINATES (ANGSTROEM)
---------------------------------
  O      2.867156    0.875997   -0.672207
  O     -0.458601    1.065002   -2.314911
  O      0.501679   -2.939205   -1.010826
  O     -2.993356   -1.506386    0.311032
  N      0.398148   -1.785565    0.885873
  N     -2.066832    0.247761    1.245165
  N      1.645930   -1.001619   -0.834066
  N     -1.604894   -0.285221   -0.941014
  C      1.452016    0.357673    1.056367
  C     -0.615475    1.637719   -0.044012
  C      0.558705   -0.599647    1.586954
  C     -1.013981    1.112506    1.213692
  C      2.001171    1.357537    1.921168
  C     -0.394772    3.035574   -0.207904
  C      2.067069    0.120481   -0.205171
  C     -0.859126    0.826279   -1.210498
  C      0.820803   -1.977186   -0.374738
  C     -2.259093   -0.572597    0.213971
  H      0.587350   -0.769655    2.653384
  H     -1.085043    1.831132    2.012917
  H      2.170864    2.279484    1.371400
  H      1.401307    1.623397    2.790860
  H      2.968840    1.135905    2.367598
  H     -1.341602    3.465327   -0.542183
  H     -0.043368    3.627271    0.627860
  H      0.312796    3.238968   -1.007991
  H     -0.263120   -2.469807    1.197037
  H     -2.515958    0.023587    2.107982
  H      1.986580   -1.146034   -1.769091
  H     -1.772595   -0.893676   -1.724050

 Total Charge           Charge          ....    0
 Multiplicity           Mult            ....    3
 Number of Electrons    NEL             ....  132
 Basis Dimension        Dim             ....  882

ORBITAL ENERGIES
----------------
                 SPIN UP ORBITALS
  NO   OCC          E(Eh)            E(eV)
   0   1.0000     -19.327721      -525.9340
   1   1.0000     -19.319099      -525.6994
   2   1.0000     -19.316981      -525.6418
   3   1.0000     -19.307031      -525.3710
   4   1.0000     -14.578773      -396.7086
   5   1.0000     -14.574162      -396.5831
   6   1.0000     -14.564695      -396.3255
   7   1.0000     -14.555947      -396.0875
   8   1.0000     -10.500548      -285.7344
   9   1.0000     -10.499601      -285.7087
  10   1.0000     -10.473386      -284.9953
  11   1.0000     -10.455628      -284.5121
  12   1.0000     -10.441113      -284.1171
  13   1.0000     -10.430932      -283.8401
  14   1.0000     -10.403544      -283.0948
  15   1.0000     -10.380171      -282.4588
  16   1.0000     -10.361548      -281.9520
  17   1.0000     -10.352420      -281.7037
  18   1.0000      -1.241676       -33.7877
  19   1.0000      -1.232275       -33.5319
  20   1.0000      -1.206700       -32.8360
  21   1.0000      -1.193957       -32.4892
  22   1.0000      -1.133703       -30.8496
  23   1.0000      -1.123232       -30.5647
  24   1.0000      -1.082630       -29.4599
  25   1.0000      -1.073660       -29.2158
  26   1.0000      -0.982480       -26.7346
  27   1.0000      -0.960308       -26.1313
  28   1.0000      -0.862445       -23.4683
  29   1.0000      -0.852808       -23.2061
  30   1.0000      -0.827478       -22.5168
  31   1.0000      -0.814629       -22.1672
  32   1.0000      -0.805300       -21.9133
  33   1.0000      -0.796739       -21.6804
  34   1.0000      -0.708666       -19.2838
  35   1.0000      -0.701432       -19.0869
  36   1.0000      -0.698710       -19.0129
  37   1.0000      -0.690320       -18.7846
  38   1.0000      -0.662956       -18.0400
  39   1.0000      -0.643851       -17.5201
  40   1.0000      -0.635127       -17.2827
  41   1.0000      -0.603974       -16.4350
  42   1.0000      -0.598534       -16.2870
  43   1.0000      -0.590262       -16.0618
  44   1.0000      -0.584076       -15.8935
  45   1.0000      -0.567639       -15.4462
  46   1.0000      -0.564093       -15.3497
  47   1.0000      -0.560301       -15.2466
  48   1.0000      -0.554743       -15.0953
  49   1.0000      -0.549493       -14.9525
  50   1.0000      -0.542134       -14.7522
  51   1.0000      -0.540587       -14.7101
  52   1.0000      -0.535747       -14.5784
  53   1.0000      -0.513204       -13.9650
  54   1.0000      -0.507964       -13.8224
  55   1.0000      -0.494131       -13.4460
  56   1.0000      -0.489704       -13.3255
  57   1.0000      -0.454982       -12.3807
  58   1.0000      -0.417559       -11.3624
  59   1.0000      -0.411864       -11.2074
  60   1.0000      -0.409511       -11.1433
  61   1.0000      -0.401132       -10.9154
  62   1.0000      -0.390650       -10.6301
  63   1.0000      -0.381282       -10.3752
  64   1.0000      -0.379822       -10.3355
  65   1.0000      -0.316770        -8.6198
  66   1.0000      -0.248154        -6.7526
  67   0.0000       0.004803         0.1307
  68   0.0000       0.008904         0.2423
  69   0.0000       0.030013         0.8167
  70   0.0000       0.036915         1.0045
  71   0.0000       0.037919         1.0318

                 SPIN DOWN ORBITALS
  NO   OCC          E(Eh)            E(eV)
   0   1.0000     -19.325153      -525.8641
   1   1.0000     -19.318654      -525.6873
   2   1.0000     -19.315907      -525.6126
   3   1.0000     -19.304019      -525.2891
   4   1.0000     -14.577673      -396.6787
   5   1.0000     -14.571982      -396.5238
   6   1.0000     -14.564136      -396.3103
   7   1.0000     -14.555563      -396.0770
   8   1.0000     -10.500611      -285.7361
   9   1.0000     -10.499587      -285.7083
  10   1.0000     -10.473963      -285.0110
  11   1.0000     -10.455702      -284.5141
  12   1.0000     -10.438532      -284.0469
  13   1.0000     -10.424524      -283.6657
  14   1.0000     -10.394736      -282.8551
  15   1.0000     -10.373777      -282.2848
  16   1.0000     -10.361764      -281.9579
  17   1.0000     -10.352748      -281.7126
  18   1.0000      -1.239278       -33.7225
  19   1.0000      -1.230913       -33.4948
  20   1.0000      -1.203030       -32.7361
  21   1.0000      -1.190009       -32.3818
  22   1.0000      -1.128623       -30.7114
  23   1.0000      -1.120147       -30.4807
  24   1.0000      -1.079810       -29.3831
  25   1.0000      -1.071630       -29.1605
  26   1.0000      -0.968604       -26.3571
  27   1.0000      -0.949183       -25.8286
  28   1.0000      -0.855271       -23.2731
  29   1.0000      -0.847437       -23.0599
  30   1.0000      -0.820552       -22.3283
  31   1.0000      -0.809156       -22.0183
  32   1.0000      -0.802631       -21.8407
  33   1.0000      -0.795071       -21.6350
  34   1.0000      -0.703299       -19.1377
  35   1.0000      -0.695791       -18.9334
  36   1.0000      -0.691261       -18.8102
  37   1.0000      -0.684498       -18.6261
  38   1.0000      -0.651992       -17.7416
  39   1.0000      -0.639355       -17.3977
  40   1.0000      -0.631759       -17.1910
  41   1.0000      -0.596843       -16.2409
  42   1.0000      -0.592817       -16.1314
  43   1.0000      -0.586131       -15.9494
  44   1.0000      -0.569566       -15.4987
  45   1.0000      -0.563561       -15.3353
  46   1.0000      -0.560364       -15.2483
  47   1.0000      -0.551904       -15.0181
  48   1.0000      -0.546384       -14.8679
  49   1.0000      -0.544134       -14.8066
  50   1.0000      -0.533362       -14.5135
  51   1.0000      -0.532193       -14.4817
  52   1.0000      -0.528748       -14.3880
  53   1.0000      -0.503966       -13.7136
  54   1.0000      -0.500737       -13.6257
  55   1.0000      -0.489610       -13.3230
  56   1.0000      -0.478649       -13.0247
  57   1.0000      -0.440361       -11.9828
  58   1.0000      -0.414399       -11.2764
  59   1.0000      -0.410036       -11.1576
  60   1.0000      -0.397832       -10.8255
  61   1.0000      -0.390944       -10.6381
  62   1.0000      -0.386275       -10.5111
  63   1.0000      -0.375248       -10.2110
  64   1.0000      -0.327407        -8.9092
  65   0.0000      -0.079968        -2.1760
  66   0.0000      -0.015917        -0.4331
  67   0.0000       0.007160         0.1948
  68   0.0000       0.026489         0.7208
  69   0.0000       0.034161         0.9296

----------------------------------------------------------------------------------------------------
          SPIN FLIP ABSORPTION SPECTRUM VIA TRANSITION ELECTRIC DIPOLE MOMENTS
----------------------------------------------------------------------------------------------------
     Transition      Energy     Energy  Wavelength fosc(D2)      D2        DX        DY        DZ
                      (eV)      (cm-1)    (nm)                 (au**2)    (au)      (au)      (au)
----------------------------------------------------------------------------------------------------
  1-3A  ->  2-3A    1.439686   11611.9   861.2   0.000403515   0.01144  -0.04123   0.05087   0.08457
  1-3A  ->  3-1A    1.891266   15254.1   655.6   0.027151176   0.58597  -0.46944   0.09977  -0.59636

Dispersion correction             ... done (  0.1 sec)

MULLIKEN ATOMIC CHARGES AND SPIN DENSITIES
------------------------------------------
   0 O :   -0.699321    0.028409
   1 O :   -0.673218   -0.029554
   2 O :   -0.647158   -0.003895
   3 O :   -0.652792   -0.010307
   4 N :   -0.098919    0.015499
   5 N :   -0.078483    0.018618
   6 N :    0.015962    0.006495
   7 N :    0.068360    0.009619
   8 C :    0.719395    0.045645
   9 C :    1.286462    0.207244
  10 C :    0.140100    0.066065
  11 C :   -0.080233   -0.192509
  12 C :   -1.680363    0.021987
  13 C :   -1.707735    0.035124
  14 C :    0.462967   -0.016870
  15 C :    0.144123   -0.197757
  16 C :    0.447856    0.000230
  17 C :    0.348474    0.010792
  18 H :    0.302536   -0.005553
  19 H :    0.221965    0.001157
  20 H :    0.294241    0.003857
  21 H :    0.304907   -0.000462
  22 H :    0.368903    0.000785
  23 H :    0.383771   -0.010409
  24 H :    0.387661    0.002060
  25 H :    0.310527   -0.004754
  26 H :    0.033194   -0.001046
  27 H :    0.074748   -0.003114
  28 H :   -0.008858    0.000605
  29 H :    0.010929    0.002040
Sum of atomic charges       :   -0.0000000

LOEWDIN ATOMIC CHARGES AND SPIN DENSITIES
-----------------------------------------
   0 O :    0.117704    0.027520
   1 O :    0.119839   -0.025270
   2 O :    0.116807   -0.003347
   3 O :    0.114704   -0.008643
   4 N :    0.289975    0.010904
   5 N :    0.282506    0.007210
   6 N :    0.346521    0.006570
   7 N :    0.349395    0.004623
   8 C :   -0.151576    0.055472
   9 C :   -0.129272   -0.111427
  10 C :    0.019398    0.039918
  11 C :    0.048049    0.004116
  12 C :    0.160589    0.006957
  13 C :    0.166328   -0.022276
  14 C :   -0.460821    0.013985
  15 C :   -0.446810   -0.009987
  16 C :   -0.523253    0.000250
  17 C :   -0.535800    0.001288
  18 H :    0.026715    0.006556
  19 H :    0.043361    0.003365
  20 H :    0.004817    0.001058
  21 H :    0.003747    0.000548
  22 H :    0.017719    0.002477
  23 H :    0.019520   -0.008381
  24 H :    0.002114    0.000163
  25 H :    0.014263   -0.005580
  26 H :   -0.017003    0.000756
  27 H :   -0.008266   -0.000252
  28 H :    0.003965    0.000793
  29 H :    0.004766    0.000633

  Mayer bond orders larger than 0.100000
B(  0-O , 14-C ) :   1.2354 B(  1-O , 15-C ) :   1.4056 B(  2-O , 16-C ) :   1.5288
B(  3-O , 17-C ) :   1.5513 B(  4-N ,  8-C ) :   0.2249 B(  4-N , 10-C ) :   0.5862
B(  4-N , 16-C ) :   1.0067 B(  4-N , 26-H ) :   1.1181 B(  5-N ,  9-C ) :   0.1936
B(  5-N , 11-C ) :   0.4942 B(  5-N , 17-C ) :   1.1588 B(  5-N , 27-H ) :   1.0737
B(  6-N ,  8-C ) :  -0.1130 B(  6-N , 14-C ) :   1.0656 B(  6-N , 16-C ) :   0.9344
B(  6-N , 28-H ) :   1.1305 B(  7-N , 15-C ) :   0.9238 B(  7-N , 17-C ) :   0.9425
B(  7-N , 29-H ) :   1.1269 B(  8-C ,  9-C ) :   0.3228 B(  8-C , 10-C ) :   0.4132
B(  8-C , 12-C ) :   0.1415 B(  8-C , 14-C ) :   0.7747 B(  8-C , 16-C ) :   0.1186
B(  8-C , 18-H ) :  -0.1571 B(  8-C , 20-H ) :  -0.1184 B(  8-C , 21-H ) :  -0.1736
B(  9-C , 10-C ) :  -0.1144 B(  9-C , 11-C ) :   0.3280 B(  9-C , 13-C ) :   0.2471
B(  9-C , 15-C ) :   0.4416 B(  9-C , 17-C ) :   0.1285 B(  9-C , 19-H ) :  -0.1292
B(  9-C , 25-H ) :  -0.1524 B( 10-C , 11-C ) :   0.2892 B( 10-C , 12-C ) :  -0.1953
B( 10-C , 18-H ) :   1.1150 B( 11-C , 13-C ) :  -0.1893 B( 11-C , 17-C ) :  -0.2426
B( 11-C , 19-H ) :   1.1069 B( 12-C , 20-H ) :   0.9817 B( 12-C , 21-H ) :   1.1037
B( 12-C , 22-H ) :   0.7993 B( 13-C , 23-H ) :   0.7970 B( 13-C , 24-H ) :   0.9034
B( 13-C , 25-H ) :   1.0730 B( 15-C , 17-C ) :  -0.1067

Dispersion correction           -0.062381791
FINAL SINGLE POINT ENERGY      -908.729803682950

DIPOLE MOMENT
-------------

Method             : TDA/CIS
Type of density    : Electron Density
Level              : Relaxed density
State              :   3
Multiplicity       :   3
Irrep              :   0
Energy             :     0.0000000000000000 Eh
Relativity type    :
Basis              : AO
                                X                 Y                 Z
Electronic contribution:     -2.913823724     -10.265015035      -6.462594103
Nuclear contribution   :      2.273896350      11.332612050       9.247472175
                        -----------------------------------------
Total Dipole Moment    :     -0.639927374       1.067597016       2.784878072
                        -----------------------------------------
Magnitude (a.u.)       :      3.050379699
Magnitude (Debye)      :      7.753449017

Rotational constants in cm-1:             0.018960             0.016564             0.013514
Rotational constants in MHz :           568.401271           496.579349           405.149847

                             ****ORCA TERMINATED NORMALLY****
TOTAL RUN TIME: 0 days 0 hours 7 minutes 8 seconds 432 msec
