                         Program Version 6.0.0  -   RELEASE  -
|  1> ! EnGrad wB97M-D3BJ def2-TZVPPD
|  2> %pal nprocs 8 end%pal nprocs 16 end
|  3> %tddft
|  4>  sf true
|  5>  nroots 2 Iroot 1 end
|  6> *xyz 0 3
|  7> O   0.15039275762571 0.88570505340562 -0.00026450359113
|  8> C   0.66949636744758 -0.36585443570417 0.00018453709518
|  9> C   -0.72993428387788 -0.58476496291163 -0.0002282190468
| 10> H   1.2243853449269 -0.64980739483027 0.89712051649886
| 11> H   1.22384576029941 -0.65003299277996 -0.89710130377684
| 12> H   -1.26839981666734 -0.67795052120341 -0.9279133639401
| 13> H   -1.26758612975437 -0.67569474597617 0.92820233676084
| 14> *
| 15>
| 16>                          ****END OF INPUT****

CARTESIAN COORDINATES (ANGSTROEM)
---------------------------------
  O      0.150393    0.885705   -0.000265
  C      0.669496   -0.365854    0.000185
  C     -0.729934   -0.584765   -0.000228
  H      1.224385   -0.649807    0.897121
  H      1.223846   -0.650033   -0.897101
  H     -1.268400   -0.677951   -0.927913
  H     -1.267586   -0.675695    0.928202

 Total Charge           Charge          ....    0
 Multiplicity           Mult            ....    3
 Number of Electrons    NEL             ....   24
 Basis Dimension        Dim             ....  182

ORBITAL ENERGIES
----------------
                 SPIN UP ORBITALS
  NO   OCC          E(Eh)            E(eV)
   0   1.0000     -19.433245      -528.8055
   1   1.0000     -10.410825      -283.2929
   2   1.0000     -10.335972      -281.2561
   3   1.0000      -1.249707       -34.0062
   4   1.0000      -0.859470       -23.3874
   5   1.0000      -0.753973       -20.5166
   6   1.0000      -0.662482       -18.0270
   7   1.0000      -0.626443       -17.0464
   8   1.0000      -0.552134       -15.0243
   9   1.0000      -0.498819       -13.5735
  10   1.0000      -0.474055       -12.8997
  11   1.0000      -0.456719       -12.4280
  12   1.0000      -0.207724        -5.6525
  13   0.0000       0.039460         1.0738
  14   0.0000       0.063246         1.7210
  15   0.0000       0.071724         1.9517
  16   0.0000       0.085834         2.3357
  17   0.0000       0.113446         3.0870

                 SPIN DOWN ORBITALS
  NO   OCC          E(Eh)            E(eV)
   0   1.0000     -19.401457      -527.9405
   1   1.0000     -10.411626      -283.3147
   2   1.0000     -10.324355      -280.9400
   3   1.0000      -1.184155       -32.2225
   4   1.0000      -0.824786       -22.4436
   5   1.0000      -0.734341       -19.9824
   6   1.0000      -0.613242       -16.6872
   7   1.0000      -0.590541       -16.0694
   8   1.0000      -0.520698       -14.1689
   9   1.0000      -0.471367       -12.8266
  10   1.0000      -0.410235       -11.1631
  11   0.0000      -0.092075        -2.5055
  12   0.0000       0.035983         0.9791
  13   0.0000       0.054807         1.4914
  14   0.0000       0.061045         1.6611
  15   0.0000       0.068026         1.8511

----------------------------------------------------------------------------------------------------
          SPIN FLIP ABSORPTION SPECTRUM VIA TRANSITION ELECTRIC DIPOLE MOMENTS
----------------------------------------------------------------------------------------------------
     Transition      Energy     Energy  Wavelength fosc(D2)      D2        DX        DY        DZ
                      (eV)      (cm-1)    (nm)                 (au**2)    (au)      (au)      (au)
----------------------------------------------------------------------------------------------------
  1-3A  ->  2-3A    4.602309   37120.1   269.4   0.003177377   0.02818   0.00063   0.00068  -0.16787

Dispersion correction             ... done (  0.0 sec)

MULLIKEN ATOMIC CHARGES AND SPIN DENSITIES
------------------------------------------
   0 O :   -0.439166    0.034030
   1 C :   -0.133130   -0.076975
   2 C :   -0.381283   -0.015206
   3 H :    0.214468    0.027316
   4 H :    0.214356    0.027346
   5 H :    0.262350    0.001728
   6 H :    0.262405    0.001761
Sum of atomic charges       :   -0.0000000

LOEWDIN ATOMIC CHARGES AND SPIN DENSITIES
-----------------------------------------
   0 O :   -0.058172   -0.007485
   1 C :   -0.237967   -0.008962
   2 C :    0.233805    0.012256
   3 H :    0.028500    0.004720
   4 H :    0.028512    0.004737
   5 H :    0.002680   -0.002621
   6 H :    0.002642   -0.002645

  Mayer bond orders larger than 0.100000
B(  0-O ,  1-C ) :   0.7591 B(  0-O ,  2-C ) :   0.9005 B(  1-C ,  2-C ) :   0.7806
B(  1-C ,  3-H ) :   1.0340 B(  1-C ,  4-H ) :   1.0338 B(  2-C ,  5-H ) :   0.9301
B(  2-C ,  6-H ) :   0.9302

Dispersion correction           -0.005269377
FINAL SINGLE POINT ENERGY      -153.843844233606

DIPOLE MOMENT
-------------

Method             : TDA/CIS
Type of density    : Electron Density
Level              : Relaxed density
State              :   1
Multiplicity       :   3
Irrep              :   0
Energy             :     0.0000000000000000 Eh
Relativity type    :
Basis              : AO
                                X                 Y                 Z
Electronic contribution:     -0.033518232       1.306027129      -0.000511571
Nuclear contribution   :     -0.216235358      -2.482991625       0.000665434
                        -----------------------------------------
Total Dipole Moment    :     -0.249753591      -1.176964496       0.000153864
                        -----------------------------------------
Magnitude (a.u.)       :      1.203171768
Magnitude (Debye)      :      3.058219595

Rotational constants in cm-1:             0.934728             0.622670             0.439112
Rotational constants in MHz :         28022.438000         18667.171833         13164.259825

                             ****ORCA TERMINATED NORMALLY****
TOTAL RUN TIME: 0 days 0 hours 0 minutes 18 seconds 186 msec
