                         Program Version 6.0.0  -   RELEASE  -
|  1> ! Engrad def2-TZVPPD wB97M-D3BJ
|  2> %pal nprocs 8 end%pal nprocs 64 end
|  3> %tddft
|  4>  Iroot 2 Nroots 3
|  5> sf true
|  6> end
|  7> *xyz 0 3
|  8> O   3.14111976 -0.8214515 -1.89246311
|  9> O   -1.95856886 1.64841551 -1.58455611
| 10> O   -0.93777416 -2.80713444 -1.49121564
| 11> O   -3.06254877 0.92467418 2.69731597
| 12> N   -0.19308294 -1.48437302 0.26469021
| 13> N   -0.86714743 0.74286673 2.08699927
| 14> N   1.1054583 -1.80624574 -1.7019622
| 15> N   -2.49865129 0.93357958 0.50867201
| 16> C   2.06786079 -0.61544208 0.14714452
| 17> C   -0.15818913 1.43842628 -0.08128239
| 18> C   0.78163428 -0.67971081 0.92207158
| 19> C   0.22374236 0.73865076 1.11595213
| 20> C   3.25882286 0.02070759 0.68162973
| 21> C   0.86044782 1.90834398 -1.09780057
| 22> C   2.20348042 -1.14017816 -1.21727445
| 23> C   -1.55388295 1.35646347 -0.45552241
| 24> C   -0.08554099 -2.06218651 -1.00754359
| 25> C   -2.22417151 0.87918208 1.83327424
| 26> H   1.02738506 -1.05451044 1.95642365
| 27> H   1.10015171 1.16230646 1.54179286
| 28> H   3.22729535 0.4788036 1.70639135
| 29> H   4.10707217 -0.68652577 0.69607371
| 30> H   3.58554667 0.81308191 -0.0576818
| 31> H   0.48180492 2.73521332 -1.71086932
| 32> H   1.7481216 2.32136543 -0.57024282
| 33> H   1.26668148 1.10400402 -1.69880856
| 34> H   -0.99489652 -1.5530789 0.817508
| 35> H   -0.53758334 0.9157726 2.9642071
| 36> H   1.3012011 -2.27178322 -2.59496498
| 37> H   -3.45621684 1.23703007 0.31947938
| 38> *
| 39>
| 40>                          ****END OF INPUT****

CARTESIAN COORDINATES (ANGSTROEM)
---------------------------------
  O      3.141120   -0.821451   -1.892463
  O     -1.958569    1.648416   -1.584556
  O     -0.937774   -2.807134   -1.491216
  O     -3.062549    0.924674    2.697316
  N     -0.193083   -1.484373    0.264690
  N     -0.867147    0.742867    2.086999
  N      1.105458   -1.806246   -1.701962
  N     -2.498651    0.933580    0.508672
  C      2.067861   -0.615442    0.147145
  C     -0.158189    1.438426   -0.081282
  C      0.781634   -0.679711    0.922072
  C      0.223742    0.738651    1.115952
  C      3.258823    0.020708    0.681630
  C      0.860448    1.908344   -1.097801
  C      2.203480   -1.140178   -1.217274
  C     -1.553883    1.356463   -0.455522
  C     -0.085541   -2.062187   -1.007544
  C     -2.224172    0.879182    1.833274
  H      1.027385   -1.054510    1.956424
  H      1.100152    1.162306    1.541793
  H      3.227295    0.478804    1.706391
  H      4.107072   -0.686526    0.696074
  H      3.585547    0.813082   -0.057682
  H      0.481805    2.735213   -1.710869
  H      1.748122    2.321365   -0.570243
  H      1.266681    1.104004   -1.698809
  H     -0.994897   -1.553079    0.817508
  H     -0.537583    0.915773    2.964207
  H      1.301201   -2.271783   -2.594965
  H     -3.456217    1.237030    0.319479

 Total Charge           Charge          ....    0
 Multiplicity           Mult            ....    3
 Number of Electrons    NEL             ....  132
 Basis Dimension        Dim             ....  882

ORBITAL ENERGIES
----------------
                 SPIN UP ORBITALS
  NO   OCC          E(Eh)            E(eV)
   0   1.0000     -19.339974      -526.2674
   1   1.0000     -19.338884      -526.2378
   2   1.0000     -19.322092      -525.7809
   3   1.0000     -19.321802      -525.7730
   4   1.0000     -14.572770      -396.5452
   5   1.0000     -14.565479      -396.3468
   6   1.0000     -14.560165      -396.2022
   7   1.0000     -14.556681      -396.1074
   8   1.0000     -10.519866      -286.2601
   9   1.0000     -10.506216      -285.8887
  10   1.0000     -10.485665      -285.3295
  11   1.0000     -10.484297      -285.2922
  12   1.0000     -10.445424      -284.2344
  13   1.0000     -10.435124      -283.9542
  14   1.0000     -10.422402      -283.6080
  15   1.0000     -10.418018      -283.4887
  16   1.0000     -10.384362      -282.5728
  17   1.0000     -10.377557      -282.3877
  18   1.0000      -1.225983       -33.3607
  19   1.0000      -1.223888       -33.3037
  20   1.0000      -1.197021       -32.5726
  21   1.0000      -1.194448       -32.5026
  22   1.0000      -1.125203       -30.6183
  23   1.0000      -1.101541       -29.9745
  24   1.0000      -1.075144       -29.2562
  25   1.0000      -1.061786       -28.8927
  26   1.0000      -0.988757       -26.9055
  27   1.0000      -0.959103       -26.0985
  28   1.0000      -0.894878       -24.3509
  29   1.0000      -0.844322       -22.9752
  30   1.0000      -0.828047       -22.5323
  31   1.0000      -0.806309       -21.9408
  32   1.0000      -0.794278       -21.6134
  33   1.0000      -0.785980       -21.3876
  34   1.0000      -0.710400       -19.3310
  35   1.0000      -0.706860       -19.2346
  36   1.0000      -0.690553       -18.7909
  37   1.0000      -0.682349       -18.5677
  38   1.0000      -0.653132       -17.7726
  39   1.0000      -0.643715       -17.5164
  40   1.0000      -0.627326       -17.0704
  41   1.0000      -0.610911       -16.6237
  42   1.0000      -0.605325       -16.4717
  43   1.0000      -0.591533       -16.0964
  44   1.0000      -0.576766       -15.6946
  45   1.0000      -0.573619       -15.6090
  46   1.0000      -0.569161       -15.4877
  47   1.0000      -0.564998       -15.3744
  48   1.0000      -0.560630       -15.2555
  49   1.0000      -0.558061       -15.1856
  50   1.0000      -0.552357       -15.0304
  51   1.0000      -0.533677       -14.5221
  52   1.0000      -0.530448       -14.4342
  53   1.0000      -0.526886       -14.3373
  54   1.0000      -0.517965       -14.0945
  55   1.0000      -0.502182       -13.6651
  56   1.0000      -0.497124       -13.5274
  57   1.0000      -0.424869       -11.5613
  58   1.0000      -0.421908       -11.4807
  59   1.0000      -0.416392       -11.3306
  60   1.0000      -0.407717       -11.0946
  61   1.0000      -0.402870       -10.9627
  62   1.0000      -0.394753       -10.7418
  63   1.0000      -0.392582       -10.6827
  64   1.0000      -0.382790       -10.4162
  65   1.0000      -0.355759        -9.6807
  66   1.0000      -0.325896        -8.8681
  67   0.0000       0.007652         0.2082
  68   0.0000       0.029748         0.8095
  69   0.0000       0.032289         0.8786
  70   0.0000       0.034421         0.9366
  71   0.0000       0.052404         1.4260

                 SPIN DOWN ORBITALS
  NO   OCC          E(Eh)            E(eV)
   0   1.0000     -19.335736      -526.1521
   1   1.0000     -19.334533      -526.1194
   2   1.0000     -19.322008      -525.7786
   3   1.0000     -19.321753      -525.7716
   4   1.0000     -14.572009      -396.5245
   5   1.0000     -14.565250      -396.3406
   6   1.0000     -14.560213      -396.2035
   7   1.0000     -14.556435      -396.1007
   8   1.0000     -10.519899      -286.2610
   9   1.0000     -10.506230      -285.8891
  10   1.0000     -10.486834      -285.3613
  11   1.0000     -10.485069      -285.3132
  12   1.0000     -10.444873      -284.2194
  13   1.0000     -10.434849      -283.9467
  14   1.0000     -10.411284      -283.3054
  15   1.0000     -10.406555      -283.1768
  16   1.0000     -10.384982      -282.5897
  17   1.0000     -10.378026      -282.4005
  18   1.0000      -1.223255       -33.2865
  19   1.0000      -1.221422       -33.2366
  20   1.0000      -1.195745       -32.5379
  21   1.0000      -1.187747       -32.3202
  22   1.0000      -1.122400       -30.5421
  23   1.0000      -1.099648       -29.9229
  24   1.0000      -1.073313       -29.2063
  25   1.0000      -1.060541       -28.8588
  26   1.0000      -0.976542       -26.5731
  27   1.0000      -0.941249       -25.6127
  28   1.0000      -0.888314       -24.1722
  29   1.0000      -0.839232       -22.8367
  30   1.0000      -0.819700       -22.3052
  31   1.0000      -0.802881       -21.8475
  32   1.0000      -0.792715       -21.5709
  33   1.0000      -0.782943       -21.3050
  34   1.0000      -0.707062       -19.2401
  35   1.0000      -0.700571       -19.0635
  36   1.0000      -0.683939       -18.6109
  37   1.0000      -0.677023       -18.4227
  38   1.0000      -0.645270       -17.5587
  39   1.0000      -0.632378       -17.2079
  40   1.0000      -0.623474       -16.9656
  41   1.0000      -0.605063       -16.4646
  42   1.0000      -0.598153       -16.2766
  43   1.0000      -0.585836       -15.9414
  44   1.0000      -0.569345       -15.4927
  45   1.0000      -0.566238       -15.4081
  46   1.0000      -0.562829       -15.3154
  47   1.0000      -0.559948       -15.2370
  48   1.0000      -0.553118       -15.0511
  49   1.0000      -0.548685       -14.9305
  50   1.0000      -0.544028       -14.8037
  51   1.0000      -0.527240       -14.3469
  52   1.0000      -0.524086       -14.2611
  53   1.0000      -0.516700       -14.0601
  54   1.0000      -0.509926       -13.8758
  55   1.0000      -0.496591       -13.5129
  56   1.0000      -0.491440       -13.3728
  57   1.0000      -0.420194       -11.4341
  58   1.0000      -0.417771       -11.3681
  59   1.0000      -0.408195       -11.1076
  60   1.0000      -0.397570       -10.8184
  61   1.0000      -0.394785       -10.7426
  62   1.0000      -0.390587       -10.6284
  63   1.0000      -0.388467       -10.5707
  64   1.0000      -0.375568       -10.2197
  65   0.0000      -0.069744        -1.8978
  66   0.0000      -0.049696        -1.3523
  67   0.0000       0.006945         0.1890
  68   0.0000       0.029519         0.8033
  69   0.0000       0.031859         0.8669

----------------------------------------------------------------------------------------------------
          SPIN FLIP ABSORPTION SPECTRUM VIA TRANSITION ELECTRIC DIPOLE MOMENTS
----------------------------------------------------------------------------------------------------
     Transition      Energy     Energy  Wavelength fosc(D2)      D2        DX        DY        DZ
                      (eV)      (cm-1)    (nm)                 (au**2)    (au)      (au)      (au)
----------------------------------------------------------------------------------------------------
  1-3A  ->  2-3A    0.112929     910.8  10979.0   0.000042513   0.01537  -0.09274   0.07639   0.03050
  1-3A  ->  3-3A    2.084324   16811.2   594.8   0.001715988   0.03360  -0.11630   0.08634  -0.11235

Dispersion correction             ... done (  0.1 sec)

MULLIKEN ATOMIC CHARGES AND SPIN DENSITIES
------------------------------------------
   0 O :   -0.629362    0.030534
   1 O :   -0.667098   -0.048456
   2 O :   -0.666303    0.000433
   3 O :   -0.641254   -0.000152
   4 N :   -0.140999   -0.011969
   5 N :   -0.152614    0.000707
   6 N :   -0.010012    0.007846
   7 N :   -0.039831    0.000642
   8 C :    0.406533    0.365823
   9 C :    0.622008    0.294432
  10 C :    0.272009   -0.117580
  11 C :   -0.071632   -0.245026
  12 C :   -1.410890    0.004746
  13 C :   -1.300254   -0.024577
  14 C :    0.347109   -0.081573
  15 C :    0.054501   -0.169246
  16 C :    0.418047    0.002668
  17 C :    0.405142    0.007038
  18 H :    0.378743    0.002282
  19 H :    0.869914   -0.033647
  20 H :    0.286906   -0.000448
  21 H :    0.368382    0.012200
  22 H :    0.281115    0.010741
  23 H :    0.324857   -0.006126
  24 H :    0.306368    0.004088
  25 H :    0.270724   -0.001262
  26 H :   -0.013440   -0.001743
  27 H :   -0.057945   -0.001907
  28 H :    0.067761    0.000174
  29 H :    0.121514   -0.000644
Sum of atomic charges       :    0.0000000

LOEWDIN ATOMIC CHARGES AND SPIN DENSITIES
-----------------------------------------
   0 O :    0.101108    0.025239
   1 O :    0.081500   -0.044952
   2 O :    0.070289    0.000004
   3 O :    0.098100   -0.000554
   4 N :    0.308768   -0.001960
   5 N :    0.328892   -0.001142
   6 N :    0.321316    0.006214
   7 N :    0.313223   -0.004563
   8 C :   -0.046951    0.135564
   9 C :    0.011885   -0.110381
  10 C :   -0.128281    0.006216
  11 C :   -0.146912   -0.012851
  12 C :    0.145422    0.021038
  13 C :    0.220456   -0.015454
  14 C :   -0.459389    0.017179
  15 C :   -0.366395   -0.025691
  16 C :   -0.403921   -0.000289
  17 C :   -0.503620   -0.000485
  18 H :    0.088787    0.003354
  19 H :    0.021628   -0.002690
  20 H :    0.023896   -0.000196
  21 H :    0.020572    0.006623
  22 H :    0.030554    0.006929
  23 H :    0.013384   -0.001122
  24 H :    0.014601   -0.000929
  25 H :   -0.011798   -0.005001
  26 H :   -0.067506   -0.000100
  27 H :   -0.097374   -0.000035
  28 H :    0.011695    0.000437
  29 H :    0.006071   -0.000401

  Mayer bond orders larger than 0.100000
B(  0-O , 14-C ) :   1.4189 B(  1-O , 15-C ) :   1.3260 B(  2-O , 16-C ) :   1.5957
B(  3-O , 17-C ) :   1.6333 B(  4-N ,  8-C ) :   0.1193 B(  4-N , 10-C ) :   0.5247
B(  4-N , 15-C ) :   0.1033 B(  4-N , 16-C ) :   1.0121 B(  4-N , 26-H ) :   1.2219
B(  5-N , 10-C ) :   0.2959 B(  5-N , 11-C ) :   0.2361 B(  5-N , 17-C ) :   1.1019
B(  5-N , 19-H ) :  -0.1460 B(  5-N , 27-H ) :   1.2281 B(  6-N ,  8-C ) :  -0.1508
B(  6-N , 14-C ) :   1.0818 B(  6-N , 16-C ) :   0.9633 B(  6-N , 28-H ) :   1.0896
B(  7-N , 15-C ) :   1.0177 B(  7-N , 17-C ) :   1.0179 B(  7-N , 29-H ) :   0.9952
B(  8-C ,  9-C ) :   0.1177 B(  8-C , 10-C ) :   0.6578 B(  8-C , 11-C ) :   0.1677
B(  8-C , 12-C ) :   0.3160 B(  8-C , 14-C ) :   0.6307 B(  8-C , 16-C ) :   0.1371
B(  8-C , 18-H ) :  -0.2013 B(  8-C , 20-H ) :  -0.1491 B(  9-C , 10-C ) :   0.1071
B(  9-C , 11-C ) :   0.8584 B(  9-C , 13-C ) :   0.2696 B(  9-C , 15-C ) :   0.8476
B(  9-C , 19-H ) :  -0.2022 B(  9-C , 24-H ) :  -0.1177 B( 10-C , 11-C ) :   0.5936
B( 10-C , 12-C ) :  -0.1762 B( 10-C , 16-C ) :  -0.1094 B( 10-C , 18-H ) :   0.9865
B( 10-C , 19-H ) :  -0.1365 B( 10-C , 26-H ) :  -0.1315 B( 11-C , 12-C ) :   0.1325
B( 11-C , 15-C ) :  -0.1343 B( 11-C , 17-C ) :  -0.1919 B( 11-C , 19-H ) :   0.4238
B( 12-C , 20-H ) :   1.0909 B( 12-C , 21-H ) :   0.9089 B( 12-C , 22-H ) :   0.9245
B( 13-C , 23-H ) :   1.0338 B( 13-C , 24-H ) :   1.0419 B( 13-C , 25-H ) :   0.8115

Dispersion correction           -0.058796315
FINAL SINGLE POINT ENERGY      -908.776995104306

DIPOLE MOMENT
-------------

Method             : TDA/CIS
Type of density    : Electron Density
Level              : Relaxed density
State              :   2
Multiplicity       :   3
Irrep              :   0
Energy             :     0.0000000000000000 Eh
Relativity type    :
Basis              : AO
                                X                 Y                 Z
Electronic contribution:    -10.008789982      -4.740624128      -1.901308084
Nuclear contribution   :     12.093651165       5.399651040       3.431114395
                        -----------------------------------------
Total Dipole Moment    :      2.084861183       0.659026912       1.529806311
                        -----------------------------------------
Magnitude (a.u.)       :      2.668570773
Magnitude (Debye)      :      6.782967854

Rotational constants in cm-1:             0.022675             0.011334             0.010580
Rotational constants in MHz :           679.790624           339.798232           317.172323

                             ****ORCA TERMINATED NORMALLY****
TOTAL RUN TIME: 0 days 0 hours 4 minutes 56 seconds 277 msec
