                         Program Version 6.0.0  -   RELEASE  -
|  1> ! Engrad def2-TZVPPD wB97M-D3BJ
|  2> %pal nprocs 8 end%pal nprocs 64 end
|  3> %tddft
|  4>  Iroot 2 Nroots 3
|  5> sf true
|  6> end
|  7> *xyz 0 3
|  8> O   0.69922928 0.97065034 -0.55974344
|  9> C   0.88923704 -0.10493407 0.27535403
| 10> C   -0.44308265 -0.73087488 0.54937861
| 11> H   1.44506163 0.18491134 1.17233608
| 12> H   1.5379216 -0.81359951 -0.21764451
| 13> H   -0.84175898 -0.72836989 1.56764866
| 14> H   -0.97397614 -1.14248459 -0.32474811
| 15> *
| 16>
| 17>                          ****END OF INPUT****

CARTESIAN COORDINATES (ANGSTROEM)
---------------------------------
  O      0.699229    0.970650   -0.559743
  C      0.889237   -0.104934    0.275354
  C     -0.443083   -0.730875    0.549379
  H      1.445062    0.184911    1.172336
  H      1.537922   -0.813600   -0.217645
  H     -0.841759   -0.728370    1.567649
  H     -0.973976   -1.142485   -0.324748

 Total Charge           Charge          ....    0
 Multiplicity           Mult            ....    3
 Number of Electrons    NEL             ....   24
 Basis Dimension        Dim             ....  182

ORBITAL ENERGIES
----------------
                 SPIN UP ORBITALS
  NO   OCC          E(Eh)            E(eV)
   0   1.0000     -19.388672      -527.5926
   1   1.0000     -10.408777      -283.2372
   2   1.0000     -10.370792      -282.2036
   3   1.0000      -1.168121       -31.7862
   4   1.0000      -0.871873       -23.7249
   5   1.0000      -0.736754       -20.0481
   6   1.0000      -0.618341       -16.8259
   7   1.0000      -0.585998       -15.9458
   8   1.0000      -0.546721       -14.8770
   9   1.0000      -0.519461       -14.1353
  10   1.0000      -0.439439       -11.9577
  11   1.0000      -0.414034       -11.2664
  12   1.0000      -0.325420        -8.8551
  13   0.0000       0.041192         1.1209
  14   0.0000       0.061294         1.6679
  15   0.0000       0.076394         2.0788
  16   0.0000       0.088223         2.4007
  17   0.0000       0.115065         3.1311

                 SPIN DOWN ORBITALS
  NO   OCC          E(Eh)            E(eV)
   0   1.0000     -19.364046      -526.9225
   1   1.0000     -10.410097      -283.2731
   2   1.0000     -10.357248      -281.8350
   3   1.0000      -1.112604       -30.2755
   4   1.0000      -0.838384       -22.8136
   5   1.0000      -0.709873       -19.3166
   6   1.0000      -0.591257       -16.0889
   7   1.0000      -0.546520       -14.8716
   8   1.0000      -0.521704       -14.1963
   9   1.0000      -0.492528       -13.4024
  10   1.0000      -0.381893       -10.3918
  11   0.0000      -0.055212        -1.5024
  12   0.0000       0.000707         0.0192
  13   0.0000       0.040278         1.0960
  14   0.0000       0.061799         1.6816
  15   0.0000       0.076379         2.0784

----------------------------------------------------------------------------------------------------
          SPIN FLIP ABSORPTION SPECTRUM VIA TRANSITION ELECTRIC DIPOLE MOMENTS
----------------------------------------------------------------------------------------------------
     Transition      Energy     Energy  Wavelength fosc(D2)      D2        DX        DY        DZ
                      (eV)      (cm-1)    (nm)                 (au**2)    (au)      (au)      (au)
----------------------------------------------------------------------------------------------------
  1-3A  ->  2-3A    0.363871    2934.8  3407.4   0.000120068   0.01347  -0.05170  -0.00889   0.10352
  1-3A  ->  3-3A    1.209433    9754.7  1025.1   0.011567397   0.39039  -0.44642  -0.39247   0.19250

Dispersion correction             ... done (  0.2 sec)

MULLIKEN ATOMIC CHARGES AND SPIN DENSITIES
------------------------------------------
   0 O :   -0.331697    0.629100
   1 C :   -0.093147    0.068319
   2 C :   -0.224900   -0.601926
   3 H :    0.225231    0.017892
   4 H :    0.177738    0.017990
   5 H :    0.124331   -0.052053
   6 H :    0.122445   -0.079322
Sum of atomic charges       :   -0.0000000

LOEWDIN ATOMIC CHARGES AND SPIN DENSITIES
-----------------------------------------
   0 O :    0.049871    0.586480
   1 C :   -0.253081    0.009041
   2 C :    0.280768   -0.510488
   3 H :    0.029665    0.020348
   4 H :    0.015872    0.024259
   5 H :   -0.070393   -0.069216
   6 H :   -0.052702   -0.060423

  Mayer bond orders larger than 0.100000
B(  0-O ,  1-C ) :   0.9362 B(  1-C ,  2-C ) :   0.8222 B(  1-C ,  3-H ) :   0.9534
B(  1-C ,  4-H ) :   0.9478 B(  2-C ,  5-H ) :   1.0275 B(  2-C ,  6-H ) :   1.0297

Dispersion correction           -0.005527940
FINAL SINGLE POINT ENERGY      -153.749434022209

DIPOLE MOMENT
-------------

Method             : TDA/CIS
Type of density    : Electron Density
Level              : Relaxed density
State              :   2
Multiplicity       :   3
Irrep              :   0
Energy             :     0.0000000000000000 Eh
Relativity type    :
Basis              : AO
                                X                 Y                 Z
Electronic contribution:      0.626581707       2.036456301      -1.364032389
Nuclear contribution   :     -0.410219832      -2.584741736       1.782714191
                        -----------------------------------------
Total Dipole Moment    :      0.216361875      -0.548285435       0.418681802
                        -----------------------------------------
Magnitude (a.u.)       :      0.722996425
Magnitude (Debye)      :      1.837710867

Rotational constants in cm-1:             1.311762             0.365691             0.317536
Rotational constants in MHz :         39325.636322         10963.138737          9519.479040

                             ****ORCA TERMINATED NORMALLY****
TOTAL RUN TIME: 0 days 0 hours 0 minutes 29 seconds 915 msec
