                         Program Version 6.0.0  -   RELEASE  -
|  1> ! Engrad def2-TZVPPD wB97M-D3BJ
|  2> %pal nprocs 8 end%pal nprocs 64 end
|  3> %tddft
|  4>  Iroot 1 Nroots 3
|  5> sf true
|  6> end
|  7> *xyz 0 3
|  8> O   0.78618869 -0.78089023 -0.7009962
|  9> C   0.7507561 0.11187649 0.42995706
| 10> C   -0.40463255 0.94571835 0.55251829
| 11> H   1.64834483 0.70264419 0.28163033
| 12> H   0.96365896 -0.51854106 1.34890768
| 13> H   -0.30934206 1.99633409 0.47977095
| 14> H   -1.40088977 0.60084681 0.54782483
| 15> *
| 16>
| 17>                          ****END OF INPUT****

CARTESIAN COORDINATES (ANGSTROEM)
---------------------------------
  O      0.786189   -0.780890   -0.700996
  C      0.750756    0.111876    0.429957
  C     -0.404633    0.945718    0.552518
  H      1.648345    0.702644    0.281630
  H      0.963659   -0.518541    1.348908
  H     -0.309342    1.996334    0.479771
  H     -1.400890    0.600847    0.547825

 Total Charge           Charge          ....    0
 Multiplicity           Mult            ....    3
 Number of Electrons    NEL             ....   24
 Basis Dimension        Dim             ....  182

ORBITAL ENERGIES
----------------
                 SPIN UP ORBITALS
  NO   OCC          E(Eh)            E(eV)
   0   1.0000     -19.389426      -527.6131
   1   1.0000     -10.412459      -283.3374
   2   1.0000     -10.361833      -281.9598
   3   1.0000      -1.144681       -31.1483
   4   1.0000      -0.893099       -24.3025
   5   1.0000      -0.737935       -20.0802
   6   1.0000      -0.615219       -16.7410
   7   1.0000      -0.575473       -15.6594
   8   1.0000      -0.558359       -15.1937
   9   1.0000      -0.516740       -14.0612
  10   1.0000      -0.441170       -12.0049
  11   1.0000      -0.418619       -11.3912
  12   1.0000      -0.330055        -8.9812
  13   0.0000       0.041350         1.1252
  14   0.0000       0.061582         1.6757
  15   0.0000       0.078191         2.1277
  16   0.0000       0.088453         2.4069
  17   0.0000       0.114302         3.1103

                 SPIN DOWN ORBITALS
  NO   OCC          E(Eh)            E(eV)
   0   1.0000     -19.364113      -526.9243
   1   1.0000     -10.413900      -283.3766
   2   1.0000     -10.349181      -281.6155
   3   1.0000      -1.085990       -29.5513
   4   1.0000      -0.860191       -23.4070
   5   1.0000      -0.713206       -19.4073
   6   1.0000      -0.587167       -15.9776
   7   1.0000      -0.553871       -15.0716
   8   1.0000      -0.524208       -14.2644
   9   1.0000      -0.481209       -13.0944
  10   1.0000      -0.386528       -10.5180
  11   0.0000      -0.048682        -1.3247
  12   0.0000      -0.008649        -0.2354
  13   0.0000       0.040187         1.0935
  14   0.0000       0.061653         1.6777
  15   0.0000       0.078336         2.1316

----------------------------------------------------------------------------------------------------
          SPIN FLIP ABSORPTION SPECTRUM VIA TRANSITION ELECTRIC DIPOLE MOMENTS
----------------------------------------------------------------------------------------------------
     Transition      Energy     Energy  Wavelength fosc(D2)      D2        DX        DY        DZ
                      (eV)      (cm-1)    (nm)                 (au**2)    (au)      (au)      (au)
----------------------------------------------------------------------------------------------------
  1-3A  ->  2-3A    0.148756    1199.8  8334.7   0.000292542   0.08027   0.15805  -0.21777  -0.08868
  1-3A  ->  3-3A    0.875043    7057.7  1416.9   0.007211996   0.33641   0.20321  -0.43829  -0.32096

Dispersion correction             ... done (  0.2 sec)

MULLIKEN ATOMIC CHARGES AND SPIN DENSITIES
------------------------------------------
   0 O :   -0.356594    0.359380
   1 C :   -0.083574    0.012472
   2 C :   -0.297827   -0.353903
   3 H :    0.181137    0.044257
   4 H :    0.209376    0.001285
   5 H :    0.147044   -0.024399
   6 H :    0.200437   -0.039093
Sum of atomic charges       :   -0.0000000

LOEWDIN ATOMIC CHARGES AND SPIN DENSITIES
-----------------------------------------
   0 O :   -0.009886    0.326151
   1 C :   -0.239707   -0.000632
   2 C :    0.311100   -0.278611
   3 H :    0.026313    0.031059
   4 H :    0.049877    0.005104
   5 H :   -0.069775   -0.043516
   6 H :   -0.067921   -0.039555

  Mayer bond orders larger than 0.100000
B(  0-O ,  1-C ) :   0.9024 B(  0-O ,  2-C ) :   0.1870 B(  1-C ,  2-C ) :   0.8685
B(  1-C ,  3-H ) :   0.9583 B(  1-C ,  4-H ) :   0.9579 B(  2-C ,  5-H ) :   1.0256
B(  2-C ,  6-H ) :   0.9909

Dispersion correction           -0.005494354
FINAL SINGLE POINT ENERGY      -153.750026645186

DIPOLE MOMENT
-------------

Method             : TDA/CIS
Type of density    : Electron Density
Level              : Relaxed density
State              :   1
Multiplicity       :   3
Irrep              :   0
Energy             :     0.0000000000000000 Eh
Relativity type    :
Basis              : AO
                                X                 Y                 Z
Electronic contribution:      0.592713009      -1.629984671      -1.536556764
Nuclear contribution   :     -0.651343045       2.340122285       2.204230328
                        -----------------------------------------
Total Dipole Moment    :     -0.058630037       0.710137614       0.667673564
                        -----------------------------------------
Magnitude (a.u.)       :      0.976483948
Magnitude (Debye)      :      2.482024946

Rotational constants in cm-1:             1.484873             0.335961             0.300059
Rotational constants in MHz :         44515.363408         10071.854915          8995.545657

                             ****ORCA TERMINATED NORMALLY****
TOTAL RUN TIME: 0 days 0 hours 0 minutes 26 seconds 936 msec
