                         Program Version 6.0.0  -   RELEASE  -
|  1> ! Engrad wB97M-D3BJ def2-TZVPPD
|  2> %pal nprocs 8 end%pal nprocs 16 end
|  3> %tddft nroots 2 Iroot 2
|  4>  sf true
|  5> end
|  6> *xyz 0 3
|  7> O   0.71282122617851 1.00204969961165 -0.00020197175
|  8> C   0.76567068521669 -0.33545183366487 -0.00010812364292
|  9> C   -0.64609334206611 -0.59451769508056 9.139777136e-05
| 10> H   1.26614251852451 -0.75993206366859 0.88269751469916
| 11> H   1.2659421805489 -0.76022664221675 -0.88290043837717
| 12> H   -1.20465100647431 -0.53610854526698 -0.92389105843177
| 13> H   -1.20421632505204 -0.5356451186337 0.92431267973135
| 14> *
| 15>
| 16>                          ****END OF INPUT****

CARTESIAN COORDINATES (ANGSTROEM)
---------------------------------
  O      0.712821    1.002050   -0.000202
  C      0.765671   -0.335452   -0.000108
  C     -0.646093   -0.594518    0.000091
  H      1.266143   -0.759932    0.882698
  H      1.265942   -0.760227   -0.882900
  H     -1.204651   -0.536109   -0.923891
  H     -1.204216   -0.535645    0.924313

 Total Charge           Charge          ....    0
 Multiplicity           Mult            ....    3
 Number of Electrons    NEL             ....   24
 Basis Dimension        Dim             ....  182

ORBITAL ENERGIES
----------------
                 SPIN UP ORBITALS
  NO   OCC          E(Eh)            E(eV)
   0   1.0000     -19.398393      -527.8571
   1   1.0000     -10.406837      -283.1844
   2   1.0000     -10.347580      -281.5720
   3   1.0000      -1.198415       -32.6105
   4   1.0000      -0.872718       -23.7479
   5   1.0000      -0.736641       -20.0450
   6   1.0000      -0.637424       -17.3452
   7   1.0000      -0.597815       -16.2674
   8   1.0000      -0.554199       -15.0805
   9   1.0000      -0.512551       -13.9472
  10   1.0000      -0.442480       -12.0405
  11   1.0000      -0.427294       -11.6273
  12   1.0000      -0.300853        -8.1866
  13   0.0000       0.041198         1.1211
  14   0.0000       0.063472         1.7272
  15   0.0000       0.073541         2.0012
  16   0.0000       0.086690         2.3589
  17   0.0000       0.117391         3.1944

                 SPIN DOWN ORBITALS
  NO   OCC          E(Eh)            E(eV)
   0   1.0000     -19.371943      -527.1374
   1   1.0000     -10.408122      -283.2194
   2   1.0000     -10.334786      -281.2238
   3   1.0000      -1.141174       -31.0529
   4   1.0000      -0.838865       -22.8267
   5   1.0000      -0.713592       -19.4178
   6   1.0000      -0.597516       -16.2592
   7   1.0000      -0.563435       -15.3319
   8   1.0000      -0.532119       -14.4797
   9   1.0000      -0.476552       -12.9676
  10   1.0000      -0.385210       -10.4821
  11   0.0000      -0.068066        -1.8522
  12   0.0000       0.016000         0.4354
  13   0.0000       0.040017         1.0889
  14   0.0000       0.064186         1.7466
  15   0.0000       0.072865         1.9827

----------------------------------------------------------------------------------------------------
          SPIN FLIP ABSORPTION SPECTRUM VIA TRANSITION ELECTRIC DIPOLE MOMENTS
----------------------------------------------------------------------------------------------------
     Transition      Energy     Energy  Wavelength fosc(D2)      D2        DX        DY        DZ
                      (eV)      (cm-1)    (nm)                 (au**2)    (au)      (au)      (au)
----------------------------------------------------------------------------------------------------
  1-3A  ->  2-3A    1.435218   11575.8   863.9   0.000292906   0.00833  -0.00004  -0.00005  -0.09127

Dispersion correction             ... done (  0.0 sec)

MULLIKEN ATOMIC CHARGES AND SPIN DENSITIES
------------------------------------------
   0 O :   -0.322798    0.768233
   1 C :    0.102151    0.294305
   2 C :   -0.440951   -0.868747
   3 H :    0.202483    0.017227
   4 H :    0.202521    0.017201
   5 H :    0.128278   -0.114134
   6 H :    0.128317   -0.114085
Sum of atomic charges       :    0.0000000

LOEWDIN ATOMIC CHARGES AND SPIN DENSITIES
-----------------------------------------
   0 O :    0.099887    0.703858
   1 C :   -0.285642    0.036538
   2 C :    0.238235   -0.626016
   3 H :    0.040540    0.030045
   4 H :    0.040542    0.030034
   5 H :   -0.066784   -0.087235
   6 H :   -0.066779   -0.087225

  Mayer bond orders larger than 0.100000
B(  0-O ,  1-C ) :   0.9068 B(  0-O ,  2-C ) :   0.1432 B(  1-C ,  2-C ) :   0.6047
B(  1-C ,  3-H ) :   0.9745 B(  1-C ,  4-H ) :   0.9744 B(  2-C ,  5-H ) :   1.1144
B(  2-C ,  6-H ) :   1.1144

Dispersion correction           -0.005664070
FINAL SINGLE POINT ENERGY      -153.735676413711

DIPOLE MOMENT
-------------

Method             : TDA/CIS
Type of density    : Electron Density
Level              : Relaxed density
State              :   2
Multiplicity       :   3
Irrep              :   0
Energy             :     0.0000000000000000 Eh
Relativity type    :
Basis              : AO
                                X                 Y                 Z
Electronic contribution:      1.233805225       2.227016400      -0.000492359
Nuclear contribution   :     -0.982638468      -2.609214205       0.000476868
                        -----------------------------------------
Total Dipole Moment    :      0.251166757      -0.382197805      -0.000015491
                        -----------------------------------------
Magnitude (a.u.)       :      0.457340029
Magnitude (Debye)      :      1.162465972

Rotational constants in cm-1:             1.159525             0.445236             0.367949
Rotational constants in MHz :         34761.680118         13347.835242         11030.818594

                             ****ORCA TERMINATED NORMALLY****
TOTAL RUN TIME: 0 days 0 hours 0 minutes 16 seconds 334 msec
