                         Program Version 6.0.0  -   RELEASE  -
|  1> ! Opt wB97M-D3BJ def2-TZVPPD
|  2> %pal nprocs 8 end %pal nprocs 64 end
|  3> %geom
|  4> Constraints
|  5>     {A 2 1 0 84.40677966101694 C }
|  6> end
|  7> MaxIter 200
|  8> end
|  9> *xyz 0 1
| 10> O   0.6101436232250022 1.0200183358082624 0.0
| 11> C   0.7509 -0.4065 0.0
| 12> C   -0.7502 -0.4076 0.0
| 13> H   1.2625 -0.6786 0.9136
| 14> H   1.2625 -0.6787 -0.9136
| 15> H   -1.2614 -0.6806 -0.9136
| 16> H   -1.2614 -0.6805 0.9136
| 17> *
| 18>
| 19>                          ****END OF INPUT****
 Total Charge           Charge          ....    0
 Multiplicity           Mult            ....    1
 Number of Electrons    NEL             ....   24
Dispersion correction           -0.005553543
FINAL SINGLE POINT ENERGY      -153.812918482625
Dispersion correction             ... done (  0.1 sec)
Dispersion correction           -0.005553522
FINAL SINGLE POINT ENERGY      -153.829880567145
Dispersion correction             ... done (  0.1 sec)
Dispersion correction           -0.005509783
FINAL SINGLE POINT ENERGY      -153.836757108366
Dispersion correction             ... done (  0.1 sec)
FINAL SINGLE POINT ENERGY      -153.840186455991
FINAL SINGLE POINT ENERGY      -153.840382634475
FINAL SINGLE POINT ENERGY      -153.840407138472
Dispersion correction             ... done (  0.1 sec)
Dispersion correction           -0.005510991
FINAL SINGLE POINT ENERGY      -153.840415957418
Dispersion correction             ... done (  0.1 sec)
Dispersion correction           -0.005509832
FINAL SINGLE POINT ENERGY      -153.840415654569
Dispersion correction             ... done (  0.1 sec)
                    ***********************HURRAY********************

CARTESIAN COORDINATES (ANGSTROEM)
---------------------------------
  O      0.424528    0.946736   -0.000293
  C      0.739987   -0.360481   -0.000025
  C     -0.665096   -0.557304    0.000100
  H      1.270347   -0.713160    0.891211
  H      1.270086   -0.713600   -0.891249
  H     -1.213453   -0.557489   -0.927611
  H     -1.213355   -0.557183    0.927868

 Multiplicity           Mult            ....    1
 Number of Electrons    NEL             ....   24
 Basis Dimension        Dim             ....  182

ORBITAL ENERGIES
----------------

  NO   OCC          E(Eh)            E(eV)
   0   2.0000     -19.340869      -526.2918
   1   2.0000     -10.423657      -283.6421
   2   2.0000     -10.396713      -282.9090
   3   2.0000      -1.154191       -31.4071
   4   2.0000      -0.857704       -23.3393
   5   2.0000      -0.736596       -20.0438
   6   2.0000      -0.626161       -17.0387
   7   2.0000      -0.583192       -15.8695
   8   2.0000      -0.511205       -13.9106
   9   2.0000      -0.503885       -13.7114
  10   2.0000      -0.395445       -10.7606
  11   2.0000      -0.367604       -10.0030
  12   0.0000       0.005077         0.1381
  13   0.0000       0.042056         1.1444
  14   0.0000       0.060697         1.6516
  15   0.0000       0.076692         2.0869
  16   0.0000       0.099334         2.7030

MULLIKEN ATOMIC CHARGES
-----------------------
   0 O :   -0.463908
   1 C :   -0.084268
   2 C :   -0.309578
   3 H :    0.214130
   4 H :    0.214107
   5 H :    0.214756
   6 H :    0.214760
Sum of atomic charges:   -0.0000000

LOEWDIN ATOMIC CHARGES
----------------------
   0 O :   -0.020106
   1 C :   -0.311982
   2 C :    0.292497
   3 H :    0.024838
   4 H :    0.024834
   5 H :   -0.005039
   6 H :   -0.005041

  Mayer bond orders larger than 0.100000
B(  0-O ,  1-C ) :   0.6701 B(  0-O ,  2-C ) :   0.9463 B(  1-C ,  2-C ) :   0.7680
B(  1-C ,  3-H ) :   1.0507 B(  1-C ,  4-H ) :   1.0508 B(  2-C ,  5-H ) :   0.9659
B(  2-C ,  6-H ) :   0.9659

Dispersion correction           -0.005509573
FINAL SINGLE POINT ENERGY      -153.840415747248

DIPOLE MOMENT
-------------

Method             : SCF
Type of density    : Electron Density
Multiplicity       :   1
Irrep              :   0
Energy             :  -153.8349061738914827 Eh
Relativity type    :
Basis              : AO
                                X                 Y                 Z
Electronic contribution:      0.163024225       1.450350881      -0.000249524
Nuclear contribution   :     -0.554712033      -2.503856768       0.000505478
                        -----------------------------------------
Total Dipole Moment    :     -0.391687808      -1.053505887       0.000255954
                        -----------------------------------------
Magnitude (a.u.)       :      1.123963548
Magnitude (Debye)      :      2.856888299

Rotational constants in cm-1:             1.005164             0.548371             0.412779
Rotational constants in MHz :         30134.065811         16439.759710         12374.801867

                             ****ORCA TERMINATED NORMALLY****
TOTAL RUN TIME: 0 days 0 hours 1 minutes 57 seconds 393 msec
