                         Program Version 6.0.0  -   RELEASE  -
|  1> ! Engrad def2-TZVPPD wB97M-D3BJ
|  2> %pal nprocs 8 end%pal nprocs 64 end
|  3> %tddft
|  4>  Iroot 2 Nroots 3
|  5> sf true
|  6> end
|  7> *xyz 0 3
|  8> O   0.14227517 0.99628976 0.76487703
|  9> C   0.49476854 -0.30459707 0.43578483
| 10> C   0.57795131 -0.56433058 -1.04492392
| 11> H   -0.24733947 -0.93094919 0.98172631
| 12> H   1.48683021 -0.65676108 0.73043287
| 13> H   1.45985475 -0.94444897 -1.6031198
| 14> H   0.0094052 -0.12622072 -1.80320928
| 15> *
| 16>
| 17>                          ****END OF INPUT****

CARTESIAN COORDINATES (ANGSTROEM)
---------------------------------
  O      0.142275    0.996290    0.764877
  C      0.494769   -0.304597    0.435785
  C      0.577951   -0.564331   -1.044924
  H     -0.247339   -0.930949    0.981726
  H      1.486830   -0.656761    0.730433
  H      1.459855   -0.944449   -1.603120
  H      0.009405   -0.126221   -1.803209

 Total Charge           Charge          ....    0
 Multiplicity           Mult            ....    3
 Number of Electrons    NEL             ....   24
 Basis Dimension        Dim             ....  182

ORBITAL ENERGIES
----------------
                 SPIN UP ORBITALS
  NO   OCC          E(Eh)            E(eV)
   0   1.0000     -19.397485      -527.8324
   1   1.0000     -10.421566      -283.5852
   2   1.0000     -10.366584      -282.0891
   3   1.0000      -1.167469       -31.7684
   4   1.0000      -0.876463       -23.8498
   5   1.0000      -0.743981       -20.2448
   6   1.0000      -0.616979       -16.7889
   7   1.0000      -0.583829       -15.8868
   8   1.0000      -0.559888       -15.2353
   9   1.0000      -0.499022       -13.5791
  10   1.0000      -0.448379       -12.2010
  11   1.0000      -0.419250       -11.4084
  12   1.0000      -0.327815        -8.9203
  13   0.0000       0.040390         1.0991
  14   0.0000       0.060187         1.6378
  15   0.0000       0.079598         2.1660
  16   0.0000       0.086937         2.3657
  17   0.0000       0.110900         3.0178

                 SPIN DOWN ORBITALS
  NO   OCC          E(Eh)            E(eV)
   0   1.0000     -19.373149      -527.1702
   1   1.0000     -10.422937      -283.6225
   2   1.0000     -10.353466      -281.7321
   3   1.0000      -1.111413       -30.2431
   4   1.0000      -0.844657       -22.9843
   5   1.0000      -0.717782       -19.5318
   6   1.0000      -0.580741       -15.8028
   7   1.0000      -0.552916       -15.0456
   8   1.0000      -0.534331       -14.5399
   9   1.0000      -0.473653       -12.8888
  10   1.0000      -0.388369       -10.5681
  11   0.0000      -0.058180        -1.5832
  12   0.0000      -0.005203        -0.1416
  13   0.0000       0.039408         1.0724
  14   0.0000       0.060556         1.6478
  15   0.0000       0.079642         2.1672

----------------------------------------------------------------------------------------------------
          SPIN FLIP ABSORPTION SPECTRUM VIA TRANSITION ELECTRIC DIPOLE MOMENTS
----------------------------------------------------------------------------------------------------
     Transition      Energy     Energy  Wavelength fosc(D2)      D2        DX        DY        DZ
                      (eV)      (cm-1)    (nm)                 (au**2)    (au)      (au)      (au)
----------------------------------------------------------------------------------------------------
  1-3A  ->  2-3A    0.143542    1157.7  8637.5   0.000008779   0.00250   0.02786   0.00356   0.04132
  1-3A  ->  3-3A    1.028758    8297.5  1205.2   0.018974416   0.75283  -0.15692   0.66398   0.53604

Dispersion correction             ... done (  0.1 sec)

MULLIKEN ATOMIC CHARGES AND SPIN DENSITIES
------------------------------------------
   0 O :   -0.330661    0.862019
   1 C :    0.026670    0.096692
   2 C :   -0.372653   -0.844004
   3 H :    0.169172   -0.019249
   4 H :    0.194572   -0.005938
   5 H :    0.130640   -0.038008
   6 H :    0.182260   -0.051512
Sum of atomic charges       :    0.0000000

LOEWDIN ATOMIC CHARGES AND SPIN DENSITIES
-----------------------------------------
   0 O :    0.060116    0.814231
   1 C :   -0.240124   -0.022517
   2 C :    0.292511   -0.639055
   3 H :    0.045232    0.013715
   4 H :    0.009218    0.006637
   5 H :   -0.054226   -0.080985
   6 H :   -0.112727   -0.092026

  Mayer bond orders larger than 0.100000
B(  0-O ,  1-C ) :   0.8780 B(  1-C ,  2-C ) :   0.7942 B(  1-C ,  3-H ) :   0.9539
B(  1-C ,  4-H ) :   0.9600 B(  2-C ,  5-H ) :   1.0912 B(  2-C ,  6-H ) :   1.0339

Dispersion correction           -0.005435420
FINAL SINGLE POINT ENERGY      -153.740147676391

DIPOLE MOMENT
-------------

Method             : TDA/CIS
Type of density    : Electron Density
Level              : Relaxed density
State              :   2
Multiplicity       :   3
Irrep              :   0
Energy             :     0.0000000000000000 Eh
Relativity type    :
Basis              : AO
                                X                 Y                 Z
Electronic contribution:     -0.789180881       2.147580833       1.769321954
Nuclear contribution   :      1.013308180      -2.720749100      -1.852914965
                        -----------------------------------------
Total Dipole Moment    :      0.224127299      -0.573168268      -0.083593011
                        -----------------------------------------
Magnitude (a.u.)       :      0.621081879
Magnitude (Debye)      :      1.578664678

Rotational constants in cm-1:             1.442645             0.338757             0.295901
Rotational constants in MHz :         43249.415972         10155.688807          8870.900723

                             ****ORCA TERMINATED NORMALLY****
TOTAL RUN TIME: 0 days 0 hours 0 minutes 27 seconds 711 msec
