                         Program Version 6.0.0  -   RELEASE  -
|  1> ! Opt wB97M-D3BJ def2-TZVPPD
|  2> %pal nprocs 8 end %pal nprocs 64 end
|  3> %geom
|  4> Constraints
|  5>     {A 2 1 0 105.45454545454545 C }
|  6> end
|  7> MaxIter 500
|  8> end
|  9> *xyz 0 1
| 10> O   -0.0007 0.8141 0.0
| 11> C   0.7509 -0.4065 0.0
| 12> C   -0.7502 -0.4076 0.0
| 13> H   1.2625 -0.6786 0.9136
| 14> H   1.2625 -0.6787 -0.9136
| 15> H   -1.2614 -0.6806 -0.9136
| 16> H   -1.2614 -0.6805 0.9136
| 17> *
| 18>
| 19>                          ****END OF INPUT****
 Total Charge           Charge          ....    0
 Multiplicity           Mult            ....    1
 Number of Electrons    NEL             ....   24
Dispersion correction           -0.005799142
FINAL SINGLE POINT ENERGY      -153.711225629500
Dispersion correction             ... done (  0.1 sec)
Dispersion correction           -0.005691656
FINAL SINGLE POINT ENERGY      -153.759808012235
Dispersion correction             ... done (  0.2 sec)
Dispersion correction           -0.005633444
FINAL SINGLE POINT ENERGY      -153.774072975952
Dispersion correction             ... done (  0.1 sec)
FINAL SINGLE POINT ENERGY      -153.780832841537
FINAL SINGLE POINT ENERGY      -153.782755504481
FINAL SINGLE POINT ENERGY      -153.783113728415
FINAL SINGLE POINT ENERGY      -153.783229318616
FINAL SINGLE POINT ENERGY      -153.783291386542
FINAL SINGLE POINT ENERGY      -153.783309275956
FINAL SINGLE POINT ENERGY      -153.783323277023
FINAL SINGLE POINT ENERGY      -153.783336235573
FINAL SINGLE POINT ENERGY      -153.783350619252
FINAL SINGLE POINT ENERGY      -153.783371041774
FINAL SINGLE POINT ENERGY      -153.783397849563
FINAL SINGLE POINT ENERGY      -153.783423818293
FINAL SINGLE POINT ENERGY      -153.783438642273
Dispersion correction             ... done (  0.2 sec)
Dispersion correction           -0.005621322
FINAL SINGLE POINT ENERGY      -153.783444122553
Dispersion correction             ... done (  0.2 sec)
Dispersion correction           -0.005622004
FINAL SINGLE POINT ENERGY      -153.783445892336
Dispersion correction             ... done (  0.1 sec)
                    ***********************HURRAY********************

CARTESIAN COORDINATES (ANGSTROEM)
---------------------------------
  O      0.482061    1.090822   -0.002571
  C      0.603821   -0.243870   -0.000456
  C     -0.749521   -0.754363    0.001125
  H      1.151118   -0.620475    0.878925
  H      1.149559   -0.623288   -0.879607
  H     -1.317558   -0.786164   -0.920596
  H     -1.317280   -0.781062    0.923180

 Multiplicity           Mult            ....    1
 Number of Electrons    NEL             ....   24
 Basis Dimension        Dim             ....  182

ORBITAL ENERGIES
----------------

  NO   OCC          E(Eh)            E(eV)
   0   2.0000     -19.324758      -525.8534
   1   2.0000     -10.453066      -284.4424
   2   2.0000     -10.397278      -282.9243
   3   2.0000      -1.120105       -30.4796
   4   2.0000      -0.889475       -24.2039
   5   2.0000      -0.733831       -19.9686
   6   2.0000      -0.625439       -17.0191
   7   2.0000      -0.571256       -15.5447
   8   2.0000      -0.517126       -14.0717
   9   2.0000      -0.513158       -13.9637
  10   2.0000      -0.361492        -9.8367
  11   2.0000      -0.349309        -9.5052
  12   0.0000      -0.074111        -2.0167
  13   0.0000       0.034523         0.9394
  14   0.0000       0.061374         1.6701
  15   0.0000       0.076041         2.0692
  16   0.0000       0.098878         2.6906

MULLIKEN ATOMIC CHARGES
-----------------------
   0 O :   -0.514955
   1 C :   -0.128947
   2 C :   -0.202898
   3 H :    0.208062
   4 H :    0.207944
   5 H :    0.215294
   6 H :    0.215500
Sum of atomic charges:    0.0000000

LOEWDIN ATOMIC CHARGES
----------------------
   0 O :   -0.022942
   1 C :   -0.415478
   2 C :    0.413642
   3 H :    0.020665
   4 H :    0.020657
   5 H :   -0.008262
   6 H :   -0.008282

  Mayer bond orders larger than 0.100000
B(  0-O ,  1-C ) :   0.7796 B(  0-O ,  2-C ) :   0.8506 B(  1-C ,  2-C ) :   0.7968
B(  1-C ,  3-H ) :   1.0407 B(  1-C ,  4-H ) :   1.0408 B(  2-C ,  5-H ) :   0.9695
B(  2-C ,  6-H ) :   0.9695

Dispersion correction           -0.005622060
FINAL SINGLE POINT ENERGY      -153.783446353616

DIPOLE MOMENT
-------------

Method             : SCF
Type of density    : Electron Density
Multiplicity       :   1
Irrep              :   0
Energy             :  -153.7778242941045050 Eh
Relativity type    :
Basis              : AO
                                X                 Y                 Z
Electronic contribution:      0.117463992       1.414889131      -0.001828075
Nuclear contribution   :     -0.787489123      -2.845892216       0.004414030
                        -----------------------------------------
Total Dipole Moment    :     -0.670025131      -1.431003085       0.002585955
                        -----------------------------------------
Magnitude (a.u.)       :      1.580098159
Magnitude (Debye)      :      4.016290340

Rotational constants in cm-1:             1.266440             0.401630             0.345867
Rotational constants in MHz :         37966.929814         12040.565604         10368.842139

                             ****ORCA TERMINATED NORMALLY****
TOTAL RUN TIME: 0 days 0 hours 4 minutes 32 seconds 40 msec
