                         Program Version 6.0.0  -   RELEASE  -
|  1> ! Engrad def2-TZVPPD wB97M-D3BJ
|  2> %pal nprocs 8 end%pal nprocs 64 end
|  3> %tddft
|  4>  Iroot 2 Nroots 3
|  5> sf true
|  6> end
|  7> *xyz 0 3
|  8> O   0.86623451 1.03893095 -0.29348295
|  9> C   0.65217237 -0.02751492 0.49243929
| 10> C   -0.41688955 -0.87135951 0.00393704
| 11> H   0.56501586 0.19005266 1.57131388
| 12> H   1.72405749 -0.40623178 0.48120907
| 13> H   -0.90169582 -1.48366318 0.82635651
| 14> H   -0.37416862 -1.10878726 -0.99213382
| 15> *
| 16>
| 17>                          ****END OF INPUT****

CARTESIAN COORDINATES (ANGSTROEM)
---------------------------------
  O      0.866235    1.038931   -0.293483
  C      0.652172   -0.027515    0.492439
  C     -0.416890   -0.871360    0.003937
  H      0.565016    0.190053    1.571314
  H      1.724057   -0.406232    0.481209
  H     -0.901696   -1.483663    0.826357
  H     -0.374169   -1.108787   -0.992134

 Total Charge           Charge          ....    0
 Multiplicity           Mult            ....    3
 Number of Electrons    NEL             ....   24
 Basis Dimension        Dim             ....  182

ORBITAL ENERGIES
----------------
                 SPIN UP ORBITALS
  NO   OCC          E(Eh)            E(eV)
   0   1.0000     -19.381238      -527.3903
   1   1.0000     -10.410663      -283.2885
   2   1.0000     -10.368809      -282.1496
   3   1.0000      -1.177775       -32.0489
   4   1.0000      -0.883137       -24.0314
   5   1.0000      -0.736705       -20.0468
   6   1.0000      -0.621784       -16.9196
   7   1.0000      -0.596497       -16.2315
   8   1.0000      -0.548979       -14.9385
   9   1.0000      -0.521874       -14.2009
  10   1.0000      -0.430783       -11.7222
  11   1.0000      -0.408448       -11.1144
  12   1.0000      -0.330725        -8.9995
  13   0.0000       0.039519         1.0754
  14   0.0000       0.062176         1.6919
  15   0.0000       0.076883         2.0921
  16   0.0000       0.086240         2.3467
  17   0.0000       0.112056         3.0492

                 SPIN DOWN ORBITALS
  NO   OCC          E(Eh)            E(eV)
   0   1.0000     -19.358040      -526.7591
   1   1.0000     -10.411969      -283.3241
   2   1.0000     -10.355603      -281.7903
   3   1.0000      -1.127641       -30.6847
   4   1.0000      -0.849906       -23.1271
   5   1.0000      -0.709286       -19.3007
   6   1.0000      -0.589446       -16.0397
   7   1.0000      -0.557067       -15.1586
   8   1.0000      -0.524107       -14.2617
   9   1.0000      -0.497753       -13.5445
  10   1.0000      -0.380060       -10.3420
  11   0.0000      -0.045728        -1.2443
  12   0.0000      -0.009539        -0.2596
  13   0.0000       0.039673         1.0796
  14   0.0000       0.061670         1.6781
  15   0.0000       0.076943         2.0937

----------------------------------------------------------------------------------------------------
          SPIN FLIP ABSORPTION SPECTRUM VIA TRANSITION ELECTRIC DIPOLE MOMENTS
----------------------------------------------------------------------------------------------------
     Transition      Energy     Energy  Wavelength fosc(D2)      D2        DX        DY        DZ
                      (eV)      (cm-1)    (nm)                 (au**2)    (au)      (au)      (au)
----------------------------------------------------------------------------------------------------
  1-3A  ->  2-3A    0.210614    1698.7  5886.8   0.000629922   0.12208   0.22892   0.23009  -0.12935
  1-3A  ->  3-3A    0.692082    5582.0  1791.5   0.002510997   0.14809   0.11120   0.34349  -0.13320

Dispersion correction             ... done (  0.2 sec)

MULLIKEN ATOMIC CHARGES AND SPIN DENSITIES
------------------------------------------
   0 O :   -0.397269   -0.315871
   1 C :    0.073009   -0.020389
   2 C :   -0.576821    0.386696
   3 H :    0.209441   -0.097928
   4 H :    0.195501    0.029624
   5 H :    0.219597    0.004375
   6 H :    0.276542    0.013493
Sum of atomic charges       :   -0.0000000

LOEWDIN ATOMIC CHARGES AND SPIN DENSITIES
-----------------------------------------
   0 O :    0.014248   -0.306417
   1 C :   -0.327294   -0.035464
   2 C :    0.310826    0.333798
   3 H :    0.031650   -0.071717
   4 H :    0.054042    0.005955
   5 H :    0.005683    0.032863
   6 H :   -0.089154    0.040983

  Mayer bond orders larger than 0.100000
B(  0-O ,  1-C ) :   0.8874 B(  0-O ,  2-C ) :   0.2548 B(  1-C ,  2-C ) :   0.7464
B(  1-C ,  3-H ) :   0.9599 B(  1-C ,  4-H ) :   0.9604 B(  2-C ,  5-H ) :   0.9883
B(  2-C ,  6-H ) :   0.9611

Dispersion correction           -0.005581530
FINAL SINGLE POINT ENERGY      -153.736336713753

DIPOLE MOMENT
-------------

Method             : TDA/CIS
Type of density    : Electron Density
Level              : Relaxed density
State              :   2
Multiplicity       :   3
Irrep              :   0
Energy             :     0.0000000000000000 Eh
Relativity type    :
Basis              : AO
                                X                 Y                 Z
Electronic contribution:      0.409565321       1.905196944      -0.967961991
Nuclear contribution   :     -0.550886140      -2.875709669       1.494793902
                        -----------------------------------------
Total Dipole Moment    :     -0.141320819      -0.970512725       0.526831911
                        -----------------------------------------
Magnitude (a.u.)       :      1.113291689
Magnitude (Debye)      :      2.829762589

Rotational constants in cm-1:             1.491404             0.371654             0.319844
Rotational constants in MHz :         44711.173387         11141.896553          9588.673342

                             ****ORCA TERMINATED NORMALLY****
TOTAL RUN TIME: 0 days 0 hours 0 minutes 26 seconds 619 msec
