                         Program Version 6.0.0  -   RELEASE  -
|  1> ! Opt wB97M-D3BJ def2-TZVPPD
|  2> %pal nprocs 8 end %pal nprocs 64 end
|  3> %geom
|  4> Constraints
|  5>     {A 2 1 0 50.0 C }
|  6> end
|  7> MaxIter 500
|  8> end
|  9> *xyz 0 1
| 10> O   -0.0007 0.8141 0.0
| 11> C   0.7509 -0.4065 0.0
| 12> C   -0.7502 -0.4076 0.0
| 13> H   1.2625 -0.6786 0.9136
| 14> H   1.2625 -0.6787 -0.9136
| 15> H   -1.2614 -0.6806 -0.9136
| 16> H   -1.2614 -0.6805 0.9136
| 17> *
| 18>
| 19>                          ****END OF INPUT****
 Total Charge           Charge          ....    0
 Multiplicity           Mult            ....    1
 Number of Electrons    NEL             ....   24
Dispersion correction           -0.005149449
FINAL SINGLE POINT ENERGY      -153.869362854318
Dispersion correction             ... done (  0.1 sec)
Dispersion correction           -0.005152775
FINAL SINGLE POINT ENERGY      -153.871678555019
Dispersion correction             ... done (  0.2 sec)
Dispersion correction           -0.005168075
FINAL SINGLE POINT ENERGY      -153.872737687156
Dispersion correction             ... done (  0.1 sec)
FINAL SINGLE POINT ENERGY      -153.872998203820
FINAL SINGLE POINT ENERGY      -153.873123687972
Dispersion correction             ... done (  0.2 sec)
Dispersion correction           -0.005183723
FINAL SINGLE POINT ENERGY      -153.873135952260
Dispersion correction             ... done (  0.2 sec)
Dispersion correction           -0.005183218
FINAL SINGLE POINT ENERGY      -153.873138492752
Dispersion correction             ... done (  0.2 sec)
                    ***********************HURRAY********************

CARTESIAN COORDINATES (ANGSTROEM)
---------------------------------
  O     -0.087936    0.755865   -0.000038
  C      0.786616   -0.512485    0.000029
  C     -0.743103   -0.367535   -0.000013
  H      1.298481   -0.650071    0.936347
  H      1.298422   -0.650286   -0.936292
  H     -1.275150   -0.646912   -0.910571
  H     -1.275130   -0.646977    0.910538

 Multiplicity           Mult            ....    1
 Number of Electrons    NEL             ....   24
 Basis Dimension        Dim             ....  182

ORBITAL ENERGIES
----------------

  NO   OCC          E(Eh)            E(eV)
   0   2.0000     -19.353554      -526.6370
   1   2.0000     -10.406116      -283.1648
   2   2.0000     -10.403942      -283.1057
   3   2.0000      -1.220638       -33.2153
   4   2.0000      -0.801509       -21.8102
   5   2.0000      -0.755687       -20.5633
   6   2.0000      -0.631151       -17.1745
   7   2.0000      -0.592715       -16.1286
   8   2.0000      -0.525874       -14.3098
   9   2.0000      -0.504637       -13.7319
  10   2.0000      -0.398351       -10.8397
  11   2.0000      -0.381864       -10.3910
  12   0.0000       0.042074         1.1449
  13   0.0000       0.058299         1.5864
  14   0.0000       0.072988         1.9861
  15   0.0000       0.078066         2.1243
  16   0.0000       0.111062         3.0221

MULLIKEN ATOMIC CHARGES
-----------------------
   0 O :   -0.373707
   1 C :   -0.278503
   2 C :   -0.118032
   3 H :    0.191442
   4 H :    0.191426
   5 H :    0.193686
   6 H :    0.193689
Sum of atomic charges:    0.0000000

LOEWDIN ATOMIC CHARGES
----------------------
   0 O :   -0.026112
   1 C :    0.160166
   2 C :   -0.144246
   3 H :   -0.010431
   4 H :   -0.010434
   5 H :    0.015530
   6 H :    0.015527

  Mayer bond orders larger than 0.100000
B(  0-O ,  1-C ) :   0.8689 B(  0-O ,  2-C ) :   0.7808 B(  1-C ,  2-C ) :   0.7837
B(  1-C ,  3-H ) :   0.9926 B(  1-C ,  4-H ) :   0.9926 B(  2-C ,  5-H ) :   1.0397
B(  2-C ,  6-H ) :   1.0398

Dispersion correction           -0.005182867
FINAL SINGLE POINT ENERGY      -153.873139603898

DIPOLE MOMENT
-------------

Method             : SCF
Type of density    : Electron Density
Multiplicity       :   1
Irrep              :   0
Energy             :  -153.8679567366194760 Eh
Relativity type    :
Basis              : AO
                                X                 Y                 Z
Electronic contribution:     -0.035302239       1.658238848      -0.000033254
Nuclear contribution   :      0.114043990      -2.329306775       0.000054706
                        -----------------------------------------
Total Dipole Moment    :      0.078741751      -0.671067927       0.000021452
                        -----------------------------------------
Magnitude (a.u.)       :      0.675671834
Magnitude (Debye)      :      1.717421315

Rotational constants in cm-1:             0.941884             0.663271             0.462665
Rotational constants in MHz :         28236.968813         19884.350186         13870.357725

                             ****ORCA TERMINATED NORMALLY****
TOTAL RUN TIME: 0 days 0 hours 1 minutes 48 seconds 130 msec
