                         Program Version 6.0.0  -   RELEASE  -
|  1> ! Engrad def2-TZVPPD wB97M-D3BJ
|  2> %pal nprocs 8 end%pal nprocs 32 end
|  3>  %tddft nroots 2 Iroot 1
|  4> sf true
|  5> end
|  6> *xyz 0 3
|  7> O   2.30509204774426 -0.287209491588 -1.16208958592659
|  8> O   -0.19464487012832 2.79971054909139 -2.27448919083545
|  9> O   0.21522343480567 -3.78629779514216 0.77492526560974
| 10> O   -2.14187320819015 -1.08703319815565 -1.39527354909788
| 11> N   0.38741687536687 -1.87919625308875 1.99384810416867
| 12> N   -1.38164226462432 -0.17326973412754 0.52314031661685
| 13> N   1.06682855048878 -1.93243215879077 -0.22987891008539
| 14> N   -0.79460971791421 0.71110970412613 -1.61102125723218
| 15> C   1.35683534038532 0.16618986578335 0.95898251337501
| 16> C   -0.30663435768854 2.6841772475486 -0.10525812903394
| 17> C   0.58447139080968 -0.4694050338188 2.06737216254538
| 18> C   -0.37976523075286 0.42665420294169 1.30318037515418
| 19> C   2.26837626066829 1.32092459050632 1.22260875529184
| 20> C   -1.53424303333908 3.36763719301866 0.34139791926927
| 21> C   1.62669390163438 -0.66511162865023 -0.23690284530321
| 22> C   -0.45021664798365 2.02024232492599 -1.36308697215199
| 23> C   0.52378716453474 -2.62110306547722 0.85235912197357
| 24> C   -1.48486735483761 -0.23211471364718 -0.85021866258022
| 25> H   0.83761100453575 -0.14585326372728 3.0676138226718
| 26> H   -0.53312891886126 1.40854547729005 1.72029279287174
| 27> H   2.4106315106927 1.90740144453349 0.32267626676215
| 28> H   1.85484228872298 1.96901679113618 1.99129234930028
| 29> H   3.23638739985724 0.94995406113957 1.56124557867391
| 30> H   -2.45557192590148 2.78614566571728 0.24183347796329
| 31> H   -1.45030577232823 3.81400332282614 1.32806550304769
| 32> H   -1.61391986589505 4.188382693634 -0.3854937816506
| 33> H   -0.03416777538764 -2.36824978799109 2.76250945411655
| 34> H   -1.85476613917046 -0.96511070243123 0.93237210287401
| 35> H   1.22926057100301 -2.4975971844833 -1.04843429117976
| 36> H   -0.84050065824684 0.50488887690033 -2.59896870720871
| 37> *
| 38>
| 39>                          ****END OF INPUT****

CARTESIAN COORDINATES (ANGSTROEM)
---------------------------------
  O      2.305092   -0.287209   -1.162090
  O     -0.194645    2.799711   -2.274489
  O      0.215223   -3.786298    0.774925
  O     -2.141873   -1.087033   -1.395274
  N      0.387417   -1.879196    1.993848
  N     -1.381642   -0.173270    0.523140
  N      1.066829   -1.932432   -0.229879
  N     -0.794610    0.711110   -1.611021
  C      1.356835    0.166190    0.958983
  C     -0.306634    2.684177   -0.105258
  C      0.584471   -0.469405    2.067372
  C     -0.379765    0.426654    1.303180
  C      2.268376    1.320925    1.222609
  C     -1.534243    3.367637    0.341398
  C      1.626694   -0.665112   -0.236903
  C     -0.450217    2.020242   -1.363087
  C      0.523787   -2.621103    0.852359
  C     -1.484867   -0.232115   -0.850219
  H      0.837611   -0.145853    3.067614
  H     -0.533129    1.408545    1.720293
  H      2.410632    1.907401    0.322676
  H      1.854842    1.969017    1.991292
  H      3.236387    0.949954    1.561246
  H     -2.455572    2.786146    0.241833
  H     -1.450306    3.814003    1.328066
  H     -1.613920    4.188383   -0.385494
  H     -0.034168   -2.368250    2.762509
  H     -1.854766   -0.965111    0.932372
  H      1.229261   -2.497597   -1.048434
  H     -0.840501    0.504889   -2.598969

 Total Charge           Charge          ....    0
 Multiplicity           Mult            ....    3
 Number of Electrons    NEL             ....  132
 Basis Dimension        Dim             ....  882

ORBITAL ENERGIES
----------------
                 SPIN UP ORBITALS
  NO   OCC          E(Eh)            E(eV)
   0   1.0000     -19.335658      -526.1500
   1   1.0000     -19.331994      -526.0503
   2   1.0000     -19.326589      -525.9032
   3   1.0000     -19.321479      -525.7642
   4   1.0000     -14.569921      -396.4677
   5   1.0000     -14.569228      -396.4489
   6   1.0000     -14.566547      -396.3759
   7   1.0000     -14.566004      -396.3611
   8   1.0000     -10.513605      -286.0897
   9   1.0000     -10.508647      -285.9548
  10   1.0000     -10.487585      -285.3817
  11   1.0000     -10.483748      -285.2773
  12   1.0000     -10.443923      -284.1936
  13   1.0000     -10.441747      -284.1344
  14   1.0000     -10.417854      -283.4842
  15   1.0000     -10.401859      -283.0490
  16   1.0000     -10.375147      -282.3221
  17   1.0000     -10.367133      -282.1040
  18   1.0000      -1.226539       -33.3758
  19   1.0000      -1.221488       -33.2384
  20   1.0000      -1.202208       -32.7137
  21   1.0000      -1.199985       -32.6533
  22   1.0000      -1.124466       -30.5983
  23   1.0000      -1.093879       -29.7660
  24   1.0000      -1.073075       -29.1999
  25   1.0000      -1.063851       -28.9489
  26   1.0000      -0.992099       -26.9964
  27   1.0000      -0.939280       -25.5591
  28   1.0000      -0.881911       -23.9980
  29   1.0000      -0.825400       -22.4603
  30   1.0000      -0.815405       -22.1883
  31   1.0000      -0.807173       -21.9643
  32   1.0000      -0.790458       -21.5094
  33   1.0000      -0.778672       -21.1888
  34   1.0000      -0.722308       -19.6550
  35   1.0000      -0.700262       -19.0551
  36   1.0000      -0.693626       -18.8745
  37   1.0000      -0.662108       -18.0169
  38   1.0000      -0.641539       -17.4572
  39   1.0000      -0.632710       -17.2169
  40   1.0000      -0.615768       -16.7559
  41   1.0000      -0.605903       -16.4875
  42   1.0000      -0.600596       -16.3430
  43   1.0000      -0.590634       -16.0720
  44   1.0000      -0.579501       -15.7690
  45   1.0000      -0.569579       -15.4990
  46   1.0000      -0.564797       -15.3689
  47   1.0000      -0.560732       -15.2583
  48   1.0000      -0.558045       -15.1852
  49   1.0000      -0.555261       -15.1094
  50   1.0000      -0.544551       -14.8180
  51   1.0000      -0.542438       -14.7605
  52   1.0000      -0.534131       -14.5344
  53   1.0000      -0.514669       -14.0049
  54   1.0000      -0.508453       -13.8357
  55   1.0000      -0.492506       -13.4018
  56   1.0000      -0.438757       -11.9392
  57   1.0000      -0.424841       -11.5605
  58   1.0000      -0.418687       -11.3930
  59   1.0000      -0.409026       -11.1302
  60   1.0000      -0.403654       -10.9840
  61   1.0000      -0.398280       -10.8377
  62   1.0000      -0.394114       -10.7244
  63   1.0000      -0.390868       -10.6361
  64   1.0000      -0.380734       -10.3603
  65   1.0000      -0.370492       -10.0816
  66   1.0000      -0.299795        -8.1578
  67   0.0000       0.009322         0.2537
  68   0.0000       0.023542         0.6406
  69   0.0000       0.031478         0.8565
  70   0.0000       0.035025         0.9531
  71   0.0000       0.041090         1.1181

                 SPIN DOWN ORBITALS
  NO   OCC          E(Eh)            E(eV)
   0   1.0000     -19.331903      -526.0478
   1   1.0000     -19.330122      -525.9994
   2   1.0000     -19.326591      -525.9033
   3   1.0000     -19.321477      -525.7641
   4   1.0000     -14.569857      -396.4660
   5   1.0000     -14.569248      -396.4494
   6   1.0000     -14.566436      -396.3729
   7   1.0000     -14.565962      -396.3600
   8   1.0000     -10.513633      -286.0905
   9   1.0000     -10.508650      -285.9549
  10   1.0000     -10.487617      -285.3826
  11   1.0000     -10.484274      -285.2916
  12   1.0000     -10.443646      -284.1861
  13   1.0000     -10.441440      -284.1260
  14   1.0000     -10.417378      -283.4713
  15   1.0000     -10.375401      -282.3290
  16   1.0000     -10.374352      -282.3005
  17   1.0000     -10.367013      -282.1008
  18   1.0000      -1.225855       -33.3572
  19   1.0000      -1.220899       -33.2223
  20   1.0000      -1.199942       -32.6521
  21   1.0000      -1.193922       -32.4883
  22   1.0000      -1.124150       -30.5897
  23   1.0000      -1.093166       -29.7465
  24   1.0000      -1.071767       -29.1643
  25   1.0000      -1.063423       -28.9372
  26   1.0000      -0.991262       -26.9736
  27   1.0000      -0.910719       -24.7819
  28   1.0000      -0.881281       -23.9809
  29   1.0000      -0.824101       -22.4249
  30   1.0000      -0.811806       -22.0904
  31   1.0000      -0.802177       -21.8284
  32   1.0000      -0.787045       -21.4166
  33   1.0000      -0.773226       -21.0406
  34   1.0000      -0.715579       -19.4719
  35   1.0000      -0.697595       -18.9825
  36   1.0000      -0.688795       -18.7431
  37   1.0000      -0.660167       -17.9641
  38   1.0000      -0.636690       -17.3252
  39   1.0000      -0.628206       -17.0944
  40   1.0000      -0.613052       -16.6820
  41   1.0000      -0.602273       -16.3887
  42   1.0000      -0.588397       -16.0111
  43   1.0000      -0.582572       -15.8526
  44   1.0000      -0.574492       -15.6327
  45   1.0000      -0.562783       -15.3141
  46   1.0000      -0.558620       -15.2008
  47   1.0000      -0.556059       -15.1311
  48   1.0000      -0.554681       -15.0936
  49   1.0000      -0.552112       -15.0237
  50   1.0000      -0.537227       -14.6187
  51   1.0000      -0.533780       -14.5249
  52   1.0000      -0.528062       -14.3693
  53   1.0000      -0.514112       -13.9897
  54   1.0000      -0.496513       -13.5108
  55   1.0000      -0.491317       -13.3694
  56   1.0000      -0.426861       -11.6155
  57   1.0000      -0.423011       -11.5107
  58   1.0000      -0.418179       -11.3792
  59   1.0000      -0.402776       -10.9601
  60   1.0000      -0.394989       -10.7482
  61   1.0000      -0.392946       -10.6926
  62   1.0000      -0.383873       -10.4457
  63   1.0000      -0.380004       -10.3404
  64   1.0000      -0.367021        -9.9872
  65   0.0000      -0.059629        -1.6226
  66   0.0000       0.008000         0.2177
  67   0.0000       0.016932         0.4608
  68   0.0000       0.031576         0.8592
  69   0.0000       0.033342         0.9073

----------------------------------------------------------------------------------------------------
          SPIN FLIP ABSORPTION SPECTRUM VIA TRANSITION ELECTRIC DIPOLE MOMENTS
----------------------------------------------------------------------------------------------------
     Transition      Energy     Energy  Wavelength fosc(D2)      D2        DX        DY        DZ
                      (eV)      (cm-1)    (nm)                 (au**2)    (au)      (au)      (au)
----------------------------------------------------------------------------------------------------
  1-3A  ->  2-3A    2.118169   17084.2   585.3   0.000406524   0.00783  -0.04149  -0.06716   0.04002

Dispersion correction             ... done (  0.0 sec)

MULLIKEN ATOMIC CHARGES AND SPIN DENSITIES
------------------------------------------
   0 O :   -0.657079    0.000239
   1 O :   -0.628570   -0.027026
   2 O :   -0.644733   -0.000029
   3 O :   -0.650229    0.000230
   4 N :   -0.202170   -0.000428
   5 N :   -0.125885   -0.000887
   6 N :    0.015504   -0.000389
   7 N :    0.044708   -0.010707
   8 C :    1.566242   -0.004408
   9 C :   -0.131040    0.119413
  10 C :    0.137244    0.002678
  11 C :   -0.945051   -0.143520
  12 C :   -1.608698    0.027631
  13 C :   -0.888135    0.193530
  14 C :    0.107820    0.010834
  15 C :    0.734686   -0.165362
  16 C :    0.445079    0.000480
  17 C :    0.504532    0.008844
  18 H :    0.294899    0.000249
  19 H :    0.475802    0.051822
  20 H :    0.295680   -0.021333
  21 H :    0.313316   -0.013444
  22 H :    0.421399   -0.007199
  23 H :    0.291237   -0.012419
  24 H :    0.289037    0.002145
  25 H :    0.357879   -0.013020
  26 H :    0.032855   -0.000322
  27 H :    0.100230   -0.001506
  28 H :    0.032328   -0.000049
  29 H :    0.021110    0.003953
Sum of atomic charges       :    0.0000000

LOEWDIN ATOMIC CHARGES AND SPIN DENSITIES
-----------------------------------------
   0 O :    0.113576   -0.000236
   1 O :    0.094634   -0.031903
   2 O :    0.095420    0.000021
   3 O :    0.099062   -0.000623
   4 N :    0.285507   -0.000073
   5 N :    0.266513    0.000078
   6 N :    0.340565   -0.000135
   7 N :    0.338877    0.000472
   8 C :   -0.128127   -0.001156
   9 C :    0.154752    0.054345
  10 C :   -0.095652   -0.000075
  11 C :    0.008146   -0.001466
  12 C :    0.176820   -0.006654
  13 C :    0.105054    0.001317
  14 C :   -0.389920   -0.000179
  15 C :   -0.515457   -0.007664
  16 C :   -0.479467   -0.000010
  17 C :   -0.471686   -0.000269
  18 H :    0.055975    0.000019
  19 H :   -0.001750   -0.000621
  20 H :   -0.010251   -0.002748
  21 H :   -0.001362   -0.001276
  22 H :    0.008513   -0.000995
  23 H :    0.004346    0.000823
  24 H :   -0.014074   -0.000515
  25 H :    0.021780   -0.000480
  26 H :   -0.026129   -0.000007
  27 H :   -0.026077   -0.000050
  28 H :   -0.004719   -0.000010
  29 H :   -0.004870    0.000069

  Mayer bond orders larger than 0.100000
B(  0-O ,  8-C ) :  -0.1465 B(  0-O , 14-C ) :   1.5832 B(  1-O ,  9-C ) :   0.2837
B(  1-O , 15-C ) :   1.1916 B(  2-O , 16-C ) :   1.5747 B(  3-O , 17-C ) :   1.4938
B(  4-N ,  8-C ) :   0.1348 B(  4-N , 10-C ) :   0.5477 B(  4-N , 16-C ) :   1.0956
B(  4-N , 26-H ) :   1.1237 B(  5-N , 11-C ) :   0.6568 B(  5-N , 17-C ) :   0.9668
B(  5-N , 19-H ) :  -0.1428 B(  5-N , 27-H ) :   1.0377 B(  6-N , 10-C ) :   0.1396
B(  6-N , 14-C ) :   1.0615 B(  6-N , 16-C ) :   0.9409 B(  6-N , 28-H ) :   1.1096
B(  7-N , 15-C ) :   0.9434 B(  7-N , 17-C ) :   0.9630 B(  7-N , 29-H ) :   1.1229
B(  8-C , 10-C ) :   0.6181 B(  8-C , 11-C ) :   0.3531 B(  8-C , 12-C ) :   0.1004
B(  8-C , 14-C ) :   0.3652 B(  8-C , 18-H ) :  -0.1039 B(  8-C , 19-H ) :  -0.1222
B(  8-C , 20-H ) :  -0.1131 B(  8-C , 21-H ) :  -0.1244 B(  9-C , 12-C ) :  -0.1091
B(  9-C , 13-C ) :   0.4338 B(  9-C , 15-C ) :   0.6174 B( 10-C , 11-C ) :   0.8285
B( 10-C , 12-C ) :  -0.1365 B( 10-C , 14-C ) :  -0.1211 B( 10-C , 16-C ) :  -0.1119
B( 10-C , 18-H ) :   1.0712 B( 11-C , 14-C ) :   0.1252 B( 11-C , 17-C ) :  -0.1021
B( 11-C , 19-H ) :   0.9721 B( 12-C , 20-H ) :   1.0613 B( 12-C , 21-H ) :   1.0538
B( 12-C , 22-H ) :   0.7482 B( 13-C , 23-H ) :   0.9850 B( 13-C , 24-H ) :   1.0262
B( 13-C , 25-H ) :   0.8536

Dispersion correction           -0.057331493
FINAL SINGLE POINT ENERGY      -908.727264015236

DIPOLE MOMENT
-------------

Method             : TDA/CIS
Type of density    : Electron Density
Level              : Relaxed density
State              :   1
Multiplicity       :   3
Irrep              :   0
Energy             :     0.0000000000000000 Eh
Relativity type    :
Basis              : AO
                                X                 Y                 Z
Electronic contribution:     -0.383355198      -9.874225979      -6.452053330
Nuclear contribution   :     -0.167013337      10.781724383       9.008107277
                        -----------------------------------------
Total Dipole Moment    :     -0.550368535       0.907498404       2.556053947
                        -----------------------------------------
Magnitude (a.u.)       :      2.767647133
Magnitude (Debye)      :      7.034799948

Rotational constants in cm-1:             0.022699             0.012486             0.011357
Rotational constants in MHz :           680.506634           374.309780           340.464768

                             ****ORCA TERMINATED NORMALLY****
TOTAL RUN TIME: 0 days 0 hours 24 minutes 36 seconds 247 msec
