                         Program Version 6.0.0  -   RELEASE  -
|  1> ! Engrad def2-TZVPPD wB97M-D3BJ
|  2> %pal nprocs 8 end%pal nprocs 64 end
|  3> %tddft
|  4>  Iroot 1 Nroots 3
|  5> sf true
|  6> end
|  7> *xyz 0 3
|  8> O   3.5611952 -0.30509615 -0.22926765
|  9> O   -0.26051757 0.50547704 -2.6677235
| 10> O   -0.3409328 -2.73941348 -0.68129328
| 11> O   -3.69018624 -0.59320991 0.1029989
| 12> N   -0.22065641 -1.36369864 1.06962175
| 13> N   -2.03488602 0.78262874 0.97781328
| 14> N   1.62453002 -1.42577768 -0.39644851
| 15> N   -1.95647809 -0.06874726 -1.24980555
| 16> C   1.71212353 0.2126593 1.23308716
| 17> C   -0.27963206 1.42835624 -0.49660486
| 18> C   0.24421702 -0.04102005 1.49232575
| 19> C   -0.64314117 1.14319355 0.93647814
| 20> C   2.38510164 1.15558214 2.08672541
| 21> C   0.6633407 2.49238011 -0.75921205
| 22> C   2.40478987 -0.43852752 0.20063698
| 23> C   -0.81172324 0.64549439 -1.58370357
| 24> C   0.268641 -1.88138209 -0.12494628
| 25> C   -2.66132072 0.03847649 -0.04510468
| 26> H   0.14918123 0.10482677 2.58123773
| 27> H   -0.47574642 2.05747636 1.54832087
| 28> H   3.39555316 1.38217663 1.80960697
| 29> H   1.70077226 2.01613967 2.14899341
| 30> H   2.57833158 0.7804001 3.11795259
| 31> H   1.59606396 2.04744587 -1.04064891
| 32> H   0.37243643 3.09141193 -1.72703977
| 33> H   0.81627912 3.1121079 0.13986029
| 34> H   -1.17604305 -1.65369815 1.36459135
| 35> H   -2.28970772 0.54629088 1.89686357
| 36> H   2.02461041 -1.92132568 -1.17529045
| 37> H   -2.32948983 -0.64567611 -1.96687217
| 38> *
| 39>
| 40>                          ****END OF INPUT****

CARTESIAN COORDINATES (ANGSTROEM)
---------------------------------
  O      3.561195   -0.305096   -0.229268
  O     -0.260518    0.505477   -2.667723
  O     -0.340933   -2.739413   -0.681293
  O     -3.690186   -0.593210    0.102999
  N     -0.220656   -1.363699    1.069622
  N     -2.034886    0.782629    0.977813
  N      1.624530   -1.425778   -0.396449
  N     -1.956478   -0.068747   -1.249806
  C      1.712124    0.212659    1.233087
  C     -0.279632    1.428356   -0.496605
  C      0.244217   -0.041020    1.492326
  C     -0.643141    1.143194    0.936478
  C      2.385102    1.155582    2.086725
  C      0.663341    2.492380   -0.759212
  C      2.404790   -0.438528    0.200637
  C     -0.811723    0.645494   -1.583704
  C      0.268641   -1.881382   -0.124946
  C     -2.661321    0.038476   -0.045105
  H      0.149181    0.104827    2.581238
  H     -0.475746    2.057476    1.548321
  H      3.395553    1.382177    1.809607
  H      1.700772    2.016140    2.148993
  H      2.578332    0.780400    3.117953
  H      1.596064    2.047446   -1.040649
  H      0.372436    3.091412   -1.727040
  H      0.816279    3.112108    0.139860
  H     -1.176043   -1.653698    1.364591
  H     -2.289708    0.546291    1.896864
  H      2.024610   -1.921326   -1.175290
  H     -2.329490   -0.645676   -1.966872

 Total Charge           Charge          ....    0
 Multiplicity           Mult            ....    3
 Number of Electrons    NEL             ....  132
 Basis Dimension        Dim             ....  882

ORBITAL ENERGIES
----------------
                 SPIN UP ORBITALS
  NO   OCC          E(Eh)            E(eV)
   0   1.0000     -19.333374      -526.0878
   1   1.0000     -19.332671      -526.0687
   2   1.0000     -19.330738      -526.0161
   3   1.0000     -19.329292      -525.9768
   4   1.0000     -14.565361      -396.3436
   5   1.0000     -14.563911      -396.3042
   6   1.0000     -14.562932      -396.2775
   7   1.0000     -14.558400      -396.1542
   8   1.0000     -10.517980      -286.2088
   9   1.0000     -10.511187      -286.0239
  10   1.0000     -10.480194      -285.1806
  11   1.0000     -10.479266      -285.1553
  12   1.0000     -10.448992      -284.3315
  13   1.0000     -10.446940      -284.2757
  14   1.0000     -10.420469      -283.5554
  15   1.0000     -10.410777      -283.2916
  16   1.0000     -10.379895      -282.4513
  17   1.0000     -10.376523      -282.3595
  18   1.0000      -1.223990       -33.3065
  19   1.0000      -1.217801       -33.1380
  20   1.0000      -1.194033       -32.4913
  21   1.0000      -1.190179       -32.3864
  22   1.0000      -1.121814       -30.5261
  23   1.0000      -1.093710       -29.7614
  24   1.0000      -1.067252       -29.0414
  25   1.0000      -1.044552       -28.4237
  26   1.0000      -0.993087       -27.0233
  27   1.0000      -0.964254       -26.2387
  28   1.0000      -0.889352       -24.2005
  29   1.0000      -0.845678       -23.0121
  30   1.0000      -0.830761       -22.6062
  31   1.0000      -0.803410       -21.8619
  32   1.0000      -0.788984       -21.4694
  33   1.0000      -0.774947       -21.0874
  34   1.0000      -0.701412       -19.0864
  35   1.0000      -0.692646       -18.8479
  36   1.0000      -0.685487       -18.6531
  37   1.0000      -0.675255       -18.3746
  38   1.0000      -0.661261       -17.9938
  39   1.0000      -0.638581       -17.3767
  40   1.0000      -0.618111       -16.8197
  41   1.0000      -0.604536       -16.4503
  42   1.0000      -0.600051       -16.3282
  43   1.0000      -0.586592       -15.9620
  44   1.0000      -0.579114       -15.7585
  45   1.0000      -0.575776       -15.6677
  46   1.0000      -0.567700       -15.4479
  47   1.0000      -0.567210       -15.4346
  48   1.0000      -0.562778       -15.3140
  49   1.0000      -0.551225       -14.9996
  50   1.0000      -0.545542       -14.8450
  51   1.0000      -0.540817       -14.7164
  52   1.0000      -0.537350       -14.6220
  53   1.0000      -0.522628       -14.2214
  54   1.0000      -0.512773       -13.9533
  55   1.0000      -0.506741       -13.7891
  56   1.0000      -0.493441       -13.4272
  57   1.0000      -0.425693       -11.5837
  58   1.0000      -0.422003       -11.4833
  59   1.0000      -0.411193       -11.1891
  60   1.0000      -0.407946       -11.1008
  61   1.0000      -0.399426       -10.8689
  62   1.0000      -0.397505       -10.8166
  63   1.0000      -0.392043       -10.6680
  64   1.0000      -0.387991       -10.5578
  65   1.0000      -0.342752        -9.3268
  66   1.0000      -0.327827        -8.9206
  67   0.0000       0.005220         0.1420
  68   0.0000       0.027872         0.7584
  69   0.0000       0.032625         0.8878
  70   0.0000       0.037052         1.0082
  71   0.0000       0.054411         1.4806

                 SPIN DOWN ORBITALS
  NO   OCC          E(Eh)            E(eV)
   0   1.0000     -19.330640      -526.0135
   1   1.0000     -19.329526      -525.9832
   2   1.0000     -19.329130      -525.9724
   3   1.0000     -19.327856      -525.9377
   4   1.0000     -14.564885      -396.3307
   5   1.0000     -14.563227      -396.2856
   6   1.0000     -14.562832      -396.2748
   7   1.0000     -14.557385      -396.1266
   8   1.0000     -10.518029      -286.2101
   9   1.0000     -10.511247      -286.0256
  10   1.0000     -10.481073      -285.2045
  11   1.0000     -10.480272      -285.1827
  12   1.0000     -10.448657      -284.3224
  13   1.0000     -10.446623      -284.2671
  14   1.0000     -10.409616      -283.2601
  15   1.0000     -10.399484      -282.9844
  16   1.0000     -10.380483      -282.4673
  17   1.0000     -10.377033      -282.3734
  18   1.0000      -1.223175       -33.2843
  19   1.0000      -1.216649       -33.1067
  20   1.0000      -1.189181       -32.3593
  21   1.0000      -1.183542       -32.2058
  22   1.0000      -1.119064       -30.4513
  23   1.0000      -1.091001       -29.6876
  24   1.0000      -1.065108       -28.9831
  25   1.0000      -1.042273       -28.3617
  26   1.0000      -0.979497       -26.6535
  27   1.0000      -0.947625       -25.7862
  28   1.0000      -0.884265       -24.0621
  29   1.0000      -0.838392       -22.8138
  30   1.0000      -0.822404       -22.3788
  31   1.0000      -0.799128       -21.7454
  32   1.0000      -0.787106       -21.4182
  33   1.0000      -0.773005       -21.0345
  34   1.0000      -0.697227       -18.9725
  35   1.0000      -0.687604       -18.7107
  36   1.0000      -0.679292       -18.4845
  37   1.0000      -0.668686       -18.1959
  38   1.0000      -0.647716       -17.6253
  39   1.0000      -0.634551       -17.2670
  40   1.0000      -0.614844       -16.7307
  41   1.0000      -0.601232       -16.3604
  42   1.0000      -0.590291       -16.0626
  43   1.0000      -0.580332       -15.7916
  44   1.0000      -0.572158       -15.5692
  45   1.0000      -0.569714       -15.5027
  46   1.0000      -0.564526       -15.3615
  47   1.0000      -0.559384       -15.2216
  48   1.0000      -0.552122       -15.0240
  49   1.0000      -0.543579       -14.7915
  50   1.0000      -0.537879       -14.6364
  51   1.0000      -0.532003       -14.4765
  52   1.0000      -0.530896       -14.4464
  53   1.0000      -0.514879       -14.0106
  54   1.0000      -0.504818       -13.7368
  55   1.0000      -0.497923       -13.5492
  56   1.0000      -0.486207       -13.2304
  57   1.0000      -0.423179       -11.5153
  58   1.0000      -0.419295       -11.4096
  59   1.0000      -0.404035       -10.9944
  60   1.0000      -0.396454       -10.7880
  61   1.0000      -0.390988       -10.6393
  62   1.0000      -0.387193       -10.5360
  63   1.0000      -0.385246       -10.4831
  64   1.0000      -0.377253       -10.2656
  65   0.0000      -0.065687        -1.7874
  66   0.0000      -0.051989        -1.4147
  67   0.0000       0.004913         0.1337
  68   0.0000       0.027911         0.7595
  69   0.0000       0.032568         0.8862

----------------------------------------------------------------------------------------------------
          SPIN FLIP ABSORPTION SPECTRUM VIA TRANSITION ELECTRIC DIPOLE MOMENTS
----------------------------------------------------------------------------------------------------
     Transition      Energy     Energy  Wavelength fosc(D2)      D2        DX        DY        DZ
                      (eV)      (cm-1)    (nm)                 (au**2)    (au)      (au)      (au)
----------------------------------------------------------------------------------------------------
  1-3A  ->  2-1A    0.019466     157.0  63694.1   0.000000849   0.00178   0.04203  -0.00251   0.00275
  1-3A  ->  3-1A    2.026747   16346.8   611.7   0.010286518   0.20716   0.44734   0.05119   0.06652

Dispersion correction             ... done (  0.1 sec)

MULLIKEN ATOMIC CHARGES AND SPIN DENSITIES
------------------------------------------
   0 O :   -0.727370   -0.155363
   1 O :   -0.674687    0.128005
   2 O :   -0.606185   -0.003182
   3 O :   -0.624962    0.002149
   4 N :   -0.236434   -0.020841
   5 N :   -0.343015    0.023905
   6 N :    0.032298   -0.037316
   7 N :    0.057771    0.024044
   8 C :    1.121465    0.403384
   9 C :    0.193180    0.396957
  10 C :   -0.159969   -0.329277
  11 C :    0.728057    0.030794
  12 C :   -1.402402    0.010637
  13 C :   -1.420217    0.010870
  14 C :   -0.028635   -0.641077
  15 C :    0.328092    0.069822
  16 C :    0.389786    0.040036
  17 C :    0.359549   -0.004565
  18 H :    0.485587   -0.024657
  19 H :    0.385856    0.016242
  20 H :    0.292708   -0.017029
  21 H :    0.344052    0.009998
  22 H :    0.339171   -0.012190
  23 H :    0.284230    0.049119
  24 H :    0.371175    0.022953
  25 H :    0.257877   -0.000747
  26 H :    0.153767    0.002713
  27 H :    0.076135   -0.002007
  28 H :    0.026129    0.007690
  29 H :   -0.003010   -0.001070
Sum of atomic charges       :    0.0000000

LOEWDIN ATOMIC CHARGES AND SPIN DENSITIES
-----------------------------------------
   0 O :    0.059471   -0.134989
   1 O :    0.100263    0.111454
   2 O :    0.117716   -0.002571
   3 O :    0.086117    0.001918
   4 N :    0.271675   -0.002988
   5 N :    0.282121    0.003723
   6 N :    0.336729   -0.030860
   7 N :    0.334230    0.024242
   8 C :   -0.047955   -0.401072
   9 C :   -0.057350    0.438084
  10 C :   -0.098707   -0.015851
  11 C :   -0.122416    0.021266
  12 C :    0.184308   -0.070448
  13 C :    0.172406    0.071713
  14 C :   -0.429377   -0.086135
  15 C :   -0.406431    0.072220
  16 C :   -0.458350   -0.000192
  17 C :   -0.435587    0.000654
  18 H :    0.056648   -0.004100
  19 H :    0.059946    0.002476
  20 H :   -0.001864   -0.000446
  21 H :    0.004700   -0.015924
  22 H :    0.037844   -0.024401
  23 H :   -0.012790    0.025295
  24 H :    0.075545    0.017869
  25 H :    0.003277    0.000381
  26 H :    0.001278   -0.000511
  27 H :   -0.068491   -0.000057
  28 H :   -0.022388   -0.002991
  29 H :   -0.022573    0.002241

  Mayer bond orders larger than 0.100000
B(  0-O , 14-C ) :   1.2650 B(  1-O , 15-C ) :   1.4345 B(  2-O , 16-C ) :   1.5155
B(  3-O , 17-C ) :   1.6154 B(  4-N ,  8-C ) :   0.2376 B(  4-N , 10-C ) :   0.4896
B(  4-N , 16-C ) :   1.0512 B(  4-N , 18-H ) :  -0.1084 B(  4-N , 26-H ) :   0.9262
B(  5-N ,  9-C ) :   0.3816 B(  5-N , 11-C ) :  -0.1591 B(  5-N , 17-C ) :   1.0661
B(  5-N , 27-H ) :   1.0776 B(  6-N , 10-C ) :   0.1480 B(  6-N , 14-C ) :   0.9819
B(  6-N , 16-C ) :   0.8917 B(  6-N , 28-H ) :   1.1101 B(  7-N , 11-C ) :   0.1443
B(  7-N , 15-C ) :   1.0174 B(  7-N , 17-C ) :   0.9801 B(  7-N , 29-H ) :   1.1215
B(  8-C ,  9-C ) :   0.1702 B(  8-C , 10-C ) :   0.6765 B(  8-C , 11-C ) :   0.1884
B(  8-C , 12-C ) :   0.3292 B(  8-C , 14-C ) :   0.2862 B(  8-C , 16-C ) :   0.1296
B(  8-C , 18-H ) :  -0.1062 B(  8-C , 20-H ) :  -0.1071 B(  9-C , 10-C ) :   0.1295
B(  9-C , 11-C ) :  -0.3164 B(  9-C , 13-C ) :   0.5261 B(  9-C , 15-C ) :   0.8127
B(  9-C , 19-H ) :  -0.2375 B(  9-C , 25-H ) :  -0.1416 B( 10-C , 11-C ) :   0.5729
B( 10-C , 12-C ) :  -0.1187 B( 10-C , 14-C ) :   0.2142 B( 10-C , 18-H ) :   0.8106
B( 11-C , 13-C ) :  -0.2461 B( 11-C , 15-C ) :  -0.1004 B( 11-C , 17-C ) :  -0.2102
B( 11-C , 19-H ) :   1.0864 B( 12-C , 20-H ) :   1.0640 B( 12-C , 21-H ) :   0.8708
B( 12-C , 22-H ) :   0.9262 B( 13-C , 23-H ) :   0.9466 B( 13-C , 24-H ) :   0.8167
B( 13-C , 25-H ) :   1.1462 B( 14-C , 16-C ) :  -0.1138 B( 15-C , 16-C ) :   0.1278

Dispersion correction           -0.060919833
FINAL SINGLE POINT ENERGY      -908.772516812656

DIPOLE MOMENT
-------------

Method             : TDA/CIS
Type of density    : Electron Density
Level              : Relaxed density
State              :   1
Multiplicity       :   3
Irrep              :   0
Energy             :     0.0000000000000000 Eh
Relativity type    :
Basis              : AO
                                X                 Y                 Z
Electronic contribution:     -5.985106144      -8.969024923      -6.001458701
Nuclear contribution   :      6.037870670      10.682336830       8.376186969
                        -----------------------------------------
Total Dipole Moment    :      0.052764526       1.713311907       2.374728268
                        -----------------------------------------
Magnitude (a.u.)       :      2.928746513
Magnitude (Debye)      :      7.444282028

Rotational constants in cm-1:             0.022079             0.013419             0.012657
Rotational constants in MHz :           661.910941           402.304634           379.436509

                             ****ORCA TERMINATED NORMALLY****
TOTAL RUN TIME: 0 days 0 hours 5 minutes 8 seconds 672 msec
