                         Program Version 6.0.0  -   RELEASE  -
|  1> ! Engrad def2-TZVPPD wB97M-D3BJ
|  2> %pal nprocs 8 end%pal nprocs 64 end
|  3> %tddft
|  4>  Iroot 2 Nroots 3
|  5> sf true
|  6> end
|  7> *xyz 0 3
|  8> O   2.97218004 -0.91546764 -1.66584245
|  9> O   -1.69866961 1.280512 -2.16040654
| 10> O   -1.03385301 -2.6228928 -0.74832353
| 11> O   -2.96838244 -0.09940906 1.94801876
| 12> N   0.00482339 -1.5287305 0.94291647
| 13> N   -1.11900443 0.99108828 1.66947257
| 14> N   0.83307049 -1.38709642 -1.23959908
| 15> N   -2.352143 0.5617015 -0.19065911
| 16> C   2.15706509 -0.40707003 0.4677696
| 17> C   -0.0734069 1.44835043 -0.35477445
| 18> C   0.87549052 -0.40122019 1.24911488
| 19> C   0.14467164 0.91163001 1.02312971
| 20> C   3.26206291 0.46354228 0.97842559
| 21> C   0.85493521 2.39448313 -1.01647469
| 22> C   2.10326458 -0.93043622 -0.87300252
| 23> C   -1.33662176 1.11213297 -1.00551969
| 24> C   -0.14329214 -1.9268636 -0.36612078
| 25> C   -2.26947511 0.39066114 1.14428304
| 26> H   1.15912803 -0.45976605 2.32628682
| 27> H   0.7406911 1.66593794 1.43638238
| 28> H   2.83735983 1.48492609 1.02925163
| 29> H   3.74283434 0.0213969 1.84156997
| 30> H   4.04330455 0.53780817 0.2577949
| 31> H   0.45293757 3.3943464 -1.0346479
| 32> H   1.78181967 2.3389272 -0.50024935
| 33> H   1.0821816 2.218461 -2.05000322
| 34> H   -0.75255705 -1.68782867 1.56807677
| 35> H   -1.10020406 0.58764868 2.59663248
| 36> H   0.82960682 -1.77710114 -2.23699561
| 37> H   -3.09488758 0.14768826 -0.76123863
| 38> *
| 39>
| 40>                          ****END OF INPUT****

CARTESIAN COORDINATES (ANGSTROEM)
---------------------------------
  O      2.972180   -0.915468   -1.665842
  O     -1.698670    1.280512   -2.160407
  O     -1.033853   -2.622893   -0.748324
  O     -2.968382   -0.099409    1.948019
  N      0.004823   -1.528730    0.942916
  N     -1.119004    0.991088    1.669473
  N      0.833070   -1.387096   -1.239599
  N     -2.352143    0.561701   -0.190659
  C      2.157065   -0.407070    0.467770
  C     -0.073407    1.448350   -0.354774
  C      0.875491   -0.401220    1.249115
  C      0.144672    0.911630    1.023130
  C      3.262063    0.463542    0.978426
  C      0.854935    2.394483   -1.016475
  C      2.103265   -0.930436   -0.873003
  C     -1.336622    1.112133   -1.005520
  C     -0.143292   -1.926864   -0.366121
  C     -2.269475    0.390661    1.144283
  H      1.159128   -0.459766    2.326287
  H      0.740691    1.665938    1.436382
  H      2.837360    1.484926    1.029252
  H      3.742834    0.021397    1.841570
  H      4.043305    0.537808    0.257795
  H      0.452938    3.394346   -1.034648
  H      1.781820    2.338927   -0.500249
  H      1.082182    2.218461   -2.050003
  H     -0.752557   -1.687829    1.568077
  H     -1.100204    0.587649    2.596632
  H      0.829607   -1.777101   -2.236996
  H     -3.094888    0.147688   -0.761239

 Total Charge           Charge          ....    0
 Multiplicity           Mult            ....    3
 Number of Electrons    NEL             ....  132
 Basis Dimension        Dim             ....  882

ORBITAL ENERGIES
----------------
                 SPIN UP ORBITALS
  NO   OCC          E(Eh)            E(eV)
   0   1.0000     -19.338607      -526.2302
   1   1.0000     -19.336019      -526.1598
   2   1.0000     -19.323685      -525.8242
   3   1.0000     -19.322415      -525.7896
   4   1.0000     -14.563413      -396.2906
   5   1.0000     -14.561273      -396.2324
   6   1.0000     -14.558408      -396.1544
   7   1.0000     -14.540108      -395.6565
   8   1.0000     -10.505843      -285.8785
   9   1.0000     -10.495864      -285.6070
  10   1.0000     -10.483161      -285.2613
  11   1.0000     -10.478380      -285.1312
  12   1.0000     -10.442875      -284.1651
  13   1.0000     -10.427370      -283.7432
  14   1.0000     -10.422891      -283.6213
  15   1.0000     -10.420862      -283.5661
  16   1.0000     -10.381740      -282.5015
  17   1.0000     -10.371026      -282.2100
  18   1.0000      -1.238759       -33.7083
  19   1.0000      -1.233737       -33.5717
  20   1.0000      -1.214255       -33.0415
  21   1.0000      -1.203203       -32.7408
  22   1.0000      -1.125564       -30.6282
  23   1.0000      -1.100687       -29.9512
  24   1.0000      -1.064407       -28.9640
  25   1.0000      -1.048808       -28.5395
  26   1.0000      -0.986651       -26.8481
  27   1.0000      -0.959460       -26.1082
  28   1.0000      -0.891408       -24.2564
  29   1.0000      -0.846990       -23.0478
  30   1.0000      -0.833268       -22.6744
  31   1.0000      -0.800075       -21.7711
  32   1.0000      -0.784950       -21.3596
  33   1.0000      -0.779990       -21.2246
  34   1.0000      -0.699365       -19.0307
  35   1.0000      -0.687587       -18.7102
  36   1.0000      -0.684693       -18.6314
  37   1.0000      -0.676838       -18.4177
  38   1.0000      -0.664986       -18.0952
  39   1.0000      -0.637232       -17.3400
  40   1.0000      -0.612616       -16.6701
  41   1.0000      -0.606756       -16.5107
  42   1.0000      -0.592491       -16.1225
  43   1.0000      -0.589486       -16.0407
  44   1.0000      -0.585238       -15.9251
  45   1.0000      -0.579740       -15.7755
  46   1.0000      -0.572221       -15.5709
  47   1.0000      -0.568115       -15.4592
  48   1.0000      -0.566574       -15.4173
  49   1.0000      -0.561158       -15.2699
  50   1.0000      -0.553277       -15.0554
  51   1.0000      -0.543855       -14.7990
  52   1.0000      -0.529121       -14.3981
  53   1.0000      -0.528597       -14.3838
  54   1.0000      -0.518275       -14.1030
  55   1.0000      -0.511106       -13.9079
  56   1.0000      -0.495658       -13.4875
  57   1.0000      -0.431812       -11.7502
  58   1.0000      -0.426450       -11.6043
  59   1.0000      -0.412910       -11.2358
  60   1.0000      -0.408858       -11.1256
  61   1.0000      -0.402339       -10.9482
  62   1.0000      -0.397951       -10.8288
  63   1.0000      -0.392738       -10.6869
  64   1.0000      -0.383331       -10.4310
  65   1.0000      -0.349920        -9.5218
  66   1.0000      -0.333367        -9.0714
  67   0.0000       0.011848         0.3224
  68   0.0000       0.030061         0.8180
  69   0.0000       0.035903         0.9770
  70   0.0000       0.037280         1.0144
  71   0.0000       0.055261         1.5037

                 SPIN DOWN ORBITALS
  NO   OCC          E(Eh)            E(eV)
   0   1.0000     -19.334603      -526.1213
   1   1.0000     -19.331756      -526.0438
   2   1.0000     -19.323566      -525.8210
   3   1.0000     -19.322367      -525.7883
   4   1.0000     -14.562427      -396.2638
   5   1.0000     -14.560971      -396.2242
   6   1.0000     -14.558206      -396.1489
   7   1.0000     -14.539525      -395.6406
   8   1.0000     -10.505897      -285.8800
   9   1.0000     -10.495905      -285.6081
  10   1.0000     -10.484127      -285.2876
  11   1.0000     -10.479336      -285.1572
  12   1.0000     -10.442680      -284.1598
  13   1.0000     -10.426954      -283.7318
  14   1.0000     -10.411337      -283.3069
  15   1.0000     -10.409226      -283.2494
  16   1.0000     -10.382312      -282.5171
  17   1.0000     -10.371557      -282.2244
  18   1.0000      -1.238018       -33.6882
  19   1.0000      -1.229370       -33.4529
  20   1.0000      -1.212433       -32.9920
  21   1.0000      -1.197574       -32.5877
  22   1.0000      -1.122639       -30.5486
  23   1.0000      -1.098297       -29.8862
  24   1.0000      -1.062354       -28.9081
  25   1.0000      -1.046997       -28.4902
  26   1.0000      -0.973555       -26.4918
  27   1.0000      -0.942252       -25.6400
  28   1.0000      -0.886541       -24.1240
  29   1.0000      -0.841303       -22.8930
  30   1.0000      -0.822830       -22.3904
  31   1.0000      -0.794543       -21.6206
  32   1.0000      -0.783336       -21.3156
  33   1.0000      -0.778316       -21.1791
  34   1.0000      -0.694929       -18.9100
  35   1.0000      -0.682249       -18.5649
  36   1.0000      -0.678134       -18.4530
  37   1.0000      -0.667936       -18.1755
  38   1.0000      -0.653958       -17.7951
  39   1.0000      -0.632374       -17.2078
  40   1.0000      -0.605952       -16.4888
  41   1.0000      -0.601592       -16.3701
  42   1.0000      -0.588427       -16.0119
  43   1.0000      -0.584772       -15.9125
  44   1.0000      -0.577672       -15.7193
  45   1.0000      -0.573502       -15.6058
  46   1.0000      -0.566284       -15.4094
  47   1.0000      -0.562543       -15.3076
  48   1.0000      -0.557787       -15.1782
  49   1.0000      -0.554758       -15.0957
  50   1.0000      -0.547424       -14.8962
  51   1.0000      -0.533501       -14.5173
  52   1.0000      -0.522080       -14.2065
  53   1.0000      -0.520342       -14.1592
  54   1.0000      -0.509575       -13.8663
  55   1.0000      -0.507082       -13.7984
  56   1.0000      -0.490015       -13.3340
  57   1.0000      -0.427297       -11.6274
  58   1.0000      -0.421761       -11.4767
  59   1.0000      -0.403135       -10.9699
  60   1.0000      -0.399808       -10.8793
  61   1.0000      -0.392895       -10.6912
  62   1.0000      -0.391592       -10.6557
  63   1.0000      -0.388606       -10.5745
  64   1.0000      -0.375097       -10.2069
  65   0.0000      -0.062332        -1.6961
  66   0.0000      -0.053660        -1.4602
  67   0.0000       0.011461         0.3119
  68   0.0000       0.029976         0.8157
  69   0.0000       0.035521         0.9666

----------------------------------------------------------------------------------------------------
          SPIN FLIP ABSORPTION SPECTRUM VIA TRANSITION ELECTRIC DIPOLE MOMENTS
----------------------------------------------------------------------------------------------------
     Transition      Energy     Energy  Wavelength fosc(D2)      D2        DX        DY        DZ
                      (eV)      (cm-1)    (nm)                 (au**2)    (au)      (au)      (au)
----------------------------------------------------------------------------------------------------
  1-3A  ->  2-3A    0.011770      94.9  105341.6   0.000003208   0.01113   0.09721  -0.03844  -0.01405
  1-3A  ->  3-3A    2.197885   17727.1   564.1   0.005005510   0.09296  -0.29718   0.05759   0.03644

Dispersion correction             ... done (  0.1 sec)

MULLIKEN ATOMIC CHARGES AND SPIN DENSITIES
------------------------------------------
   0 O :   -0.622096    0.012150
   1 O :   -0.688681   -0.015624
   2 O :   -0.624916   -0.000143
   3 O :   -0.593107   -0.000065
   4 N :   -0.228623    0.002279
   5 N :   -0.536710   -0.008682
   6 N :   -0.002000   -0.004200
   7 N :    0.015734   -0.000372
   8 C :    0.191643    0.334667
   9 C :    0.405536    0.318775
  10 C :    0.609346   -0.128720
  11 C :    0.291571   -0.209050
  12 C :   -1.313325   -0.020336
  13 C :   -1.517159    0.047526
  14 C :    0.238377   -0.147910
  15 C :    0.108595   -0.255929
  16 C :    0.286928    0.007085
  17 C :    0.329411    0.012647
  18 H :    0.496189   -0.004370
  19 H :    0.721970    0.027188
  20 H :    0.390591    0.012315
  21 H :    0.362368    0.008986
  22 H :    0.276608   -0.000874
  23 H :    0.371647   -0.000129
  24 H :    0.315870    0.006221
  25 H :    0.291189    0.001063
  26 H :    0.073081    0.000204
  27 H :    0.166945    0.002593
  28 H :    0.133877    0.000621
  29 H :    0.049143    0.002083
Sum of atomic charges       :    0.0000000

LOEWDIN ATOMIC CHARGES AND SPIN DENSITIES
-----------------------------------------
   0 O :    0.131220    0.011081
   1 O :    0.088741   -0.012839
   2 O :    0.108676   -0.000008
   3 O :    0.129098   -0.000030
   4 N :    0.302958   -0.000139
   5 N :    0.267597   -0.000959
   6 N :    0.301295   -0.004423
   7 N :    0.327834   -0.002670
   8 C :   -0.001714    0.056450
   9 C :    0.021449   -0.034251
  10 C :   -0.112523    0.001619
  11 C :   -0.160930   -0.003965
  12 C :    0.209553    0.006391
  13 C :    0.223639   -0.007241
  14 C :   -0.467019    0.004155
  15 C :   -0.373781   -0.012174
  16 C :   -0.488685   -0.000353
  17 C :   -0.540706   -0.000263
  18 H :    0.080979    0.000136
  19 H :    0.008642   -0.000451
  20 H :   -0.001614    0.001970
  21 H :    0.006088    0.001684
  22 H :   -0.017767   -0.000092
  23 H :    0.014378   -0.002095
  24 H :   -0.039216    0.000055
  25 H :    0.009042   -0.001061
  26 H :   -0.049899    0.000005
  27 H :   -0.043245   -0.000067
  28 H :    0.053174   -0.000230
  29 H :    0.012735   -0.000233

  Mayer bond orders larger than 0.100000
B(  0-O ,  8-C ) :  -0.1041 B(  0-O , 14-C ) :   1.5103 B(  1-O , 15-C ) :   1.2927
B(  2-O , 16-C ) :   1.5498 B(  3-O , 17-C ) :   1.5860 B(  4-N ,  8-C ) :   0.2265
B(  4-N , 10-C ) :   0.2194 B(  4-N , 16-C ) :   1.0449 B(  4-N , 26-H ) :   1.0442
B(  5-N ,  9-C ) :   0.4347 B(  5-N , 11-C ) :  -0.4648 B(  5-N , 17-C ) :   1.1759
B(  5-N , 19-H ) :  -0.1205 B(  5-N , 27-H ) :   0.9144 B(  6-N ,  8-C ) :  -0.1045
B(  6-N , 10-C ) :   0.1314 B(  6-N , 14-C ) :   1.0847 B(  6-N , 16-C ) :   0.9616
B(  6-N , 28-H ) :   1.0178 B(  7-N , 15-C ) :   0.9024 B(  7-N , 17-C ) :   0.9698
B(  7-N , 29-H ) :   1.0904 B(  8-C , 10-C ) :   0.5382 B(  8-C , 11-C ) :   0.2435
B(  8-C , 12-C ) :   0.4615 B(  8-C , 14-C ) :   0.7783 B(  8-C , 16-C ) :   0.1187
B(  8-C , 18-H ) :  -0.1602 B(  8-C , 22-H ) :  -0.1288 B(  9-C , 13-C ) :   0.4076
B(  9-C , 15-C ) :   0.7032 B(  9-C , 17-C ) :   0.1395 B(  9-C , 19-H ) :  -0.4004
B(  9-C , 24-H ) :  -0.1321 B(  9-C , 25-H ) :  -0.1056 B( 10-C , 11-C ) :   0.4903
B( 10-C , 16-C ) :  -0.2323 B( 10-C , 18-H ) :   0.8065 B( 11-C , 12-C ) :   0.1783
B( 11-C , 13-C ) :  -0.1945 B( 11-C , 15-C ) :  -0.2374 B( 11-C , 17-C ) :  -0.1758
B( 11-C , 18-H ) :  -0.1189 B( 11-C , 19-H ) :   0.8516 B( 12-C , 20-H ) :   0.7519
B( 12-C , 21-H ) :   0.9535 B( 12-C , 22-H ) :   1.1408 B( 13-C , 23-H ) :   0.8095
B( 13-C , 24-H ) :   0.9771 B( 13-C , 25-H ) :   1.0402 B( 14-C , 16-C ) :  -0.1029

Dispersion correction           -0.060743077
FINAL SINGLE POINT ENERGY      -908.764616962076

DIPOLE MOMENT
-------------

Method             : TDA/CIS
Type of density    : Electron Density
Level              : Relaxed density
State              :   2
Multiplicity       :   3
Irrep              :   0
Energy             :     0.0000000000000000 Eh
Relativity type    :
Basis              : AO
                                X                 Y                 Z
Electronic contribution:     -9.256434576      -7.283304152      -2.897226318
Nuclear contribution   :     11.022096249       8.426399409       4.432825750
                        -----------------------------------------
Total Dipole Moment    :      1.765661672       1.143095257       1.535599432
                        -----------------------------------------
Magnitude (a.u.)       :      2.604283687
Magnitude (Debye)      :      6.619563068

Rotational constants in cm-1:             0.021227             0.013425             0.012818
Rotational constants in MHz :           636.367646           402.462383           384.278720

                             ****ORCA TERMINATED NORMALLY****
TOTAL RUN TIME: 0 days 0 hours 9 minutes 11 seconds 264 msec
