                         Program Version 6.0.0  -   RELEASE  -
|  1> ! Engrad def2-TZVPPD wB97M-D3BJ
|  2> %pal nprocs 8 end%pal nprocs 64 end
|  3> %tddft Nroots 2 Iroot 2
|  4> sf true
|  5> end
|  6> *xyz 0 3
|  7> O   3.20169382 0.39464978 -0.91360211
|  8> O   -0.64150728 1.53595211 -2.30912252
|  9> O   0.40894028 -3.07965828 -0.35311159
| 10> O   -3.00779147 -1.77611275 -0.41746616
| 11> N   0.3376222 -1.43818832 1.21137063
| 12> N   -2.15614632 -0.18286468 0.96485316
| 13> N   1.54885609 -1.15806395 -0.76493376
| 14> N   -1.48733157 -0.29353614 -1.2538284
| 15> C   1.76430623 0.50356935 0.95378855
| 16> C   -0.8648924 1.6189315 0.04770846
| 17> C   0.38306482 -0.04049096 1.55629984
| 18> C   -1.07704413 0.72125488 1.23376756
| 19> C   2.48538719 1.57198108 1.64962107
| 20> C   -0.69080784 3.07000171 0.19447279
| 21> C   2.24611023 -0.04720883 -0.29450311
| 22> C   -0.96821515 1.00021802 -1.26513597
| 23> C   0.72854228 -1.96850945 0.00268134
| 24> C   -2.27630081 -0.83576309 -0.23905719
| 25> H   0.49772053 0.02002475 2.63999667
| 26> H   -1.32814752 1.31238472 2.10686936
| 27> H   3.47130684 1.73787817 1.20119092
| 28> H   1.92712929 2.51382079 1.60354104
| 29> H   2.58874686 1.34435277 2.71828107
| 30> H   -1.57363388 3.51684654 0.6717101
| 31> H   0.15139567 3.29141669 0.85454974
| 32> H   -0.52660516 3.53836495 -0.76562232
| 33> H   -0.29814095 -2.05129352 1.70858954
| 34> H   -2.70238392 -0.57922936 1.71193897
| 35> H   1.90673138 -1.571387 -1.61530603
| 36> H   -1.59466513 -0.7492575 -2.14669841
| 37> *
| 38>
| 39>                          ****END OF INPUT****

CARTESIAN COORDINATES (ANGSTROEM)
---------------------------------
  O      3.201694    0.394650   -0.913602
  O     -0.641507    1.535952   -2.309123
  O      0.408940   -3.079658   -0.353112
  O     -3.007791   -1.776113   -0.417466
  N      0.337622   -1.438188    1.211371
  N     -2.156146   -0.182865    0.964853
  N      1.548856   -1.158064   -0.764934
  N     -1.487332   -0.293536   -1.253828
  C      1.764306    0.503569    0.953789
  C     -0.864892    1.618931    0.047708
  C      0.383065   -0.040491    1.556300
  C     -1.077044    0.721255    1.233768
  C      2.485387    1.571981    1.649621
  C     -0.690808    3.070002    0.194473
  C      2.246110   -0.047209   -0.294503
  C     -0.968215    1.000218   -1.265136
  C      0.728542   -1.968509    0.002681
  C     -2.276301   -0.835763   -0.239057
  H      0.497721    0.020025    2.639997
  H     -1.328148    1.312385    2.106869
  H      3.471307    1.737878    1.201191
  H      1.927129    2.513821    1.603541
  H      2.588747    1.344353    2.718281
  H     -1.573634    3.516847    0.671710
  H      0.151396    3.291417    0.854550
  H     -0.526605    3.538365   -0.765622
  H     -0.298141   -2.051294    1.708590
  H     -2.702384   -0.579229    1.711939
  H      1.906731   -1.571387   -1.615306
  H     -1.594665   -0.749258   -2.146698

 Total Charge           Charge          ....    0
 Multiplicity           Mult            ....    3
 Number of Electrons    NEL             ....  132
 Basis Dimension        Dim             ....  882

ORBITAL ENERGIES
----------------
                 SPIN UP ORBITALS
  NO   OCC          E(Eh)            E(eV)
   0   1.0000     -19.332907      -526.0751
   1   1.0000     -19.331917      -526.0482
   2   1.0000     -19.319373      -525.7069
   3   1.0000     -19.314076      -525.5627
   4   1.0000     -14.564285      -396.3143
   5   1.0000     -14.558685      -396.1620
   6   1.0000     -14.557995      -396.1432
   7   1.0000     -14.557211      -396.1218
   8   1.0000     -10.503315      -285.8097
   9   1.0000     -10.499781      -285.7136
  10   1.0000     -10.478985      -285.1477
  11   1.0000     -10.477922      -285.1188
  12   1.0000     -10.450815      -284.3811
  13   1.0000     -10.447215      -284.2832
  14   1.0000     -10.425352      -283.6882
  15   1.0000     -10.412962      -283.3511
  16   1.0000     -10.375442      -282.3301
  17   1.0000     -10.373224      -282.2698
  18   1.0000      -1.219936       -33.1962
  19   1.0000      -1.213813       -33.0295
  20   1.0000      -1.194931       -32.5157
  21   1.0000      -1.192596       -32.4522
  22   1.0000      -1.115746       -30.3610
  23   1.0000      -1.094785       -29.7906
  24   1.0000      -1.063632       -28.9429
  25   1.0000      -1.053212       -28.6594
  26   1.0000      -0.973385       -26.4871
  27   1.0000      -0.951979       -25.9047
  28   1.0000      -0.882469       -24.0132
  29   1.0000      -0.838015       -22.8035
  30   1.0000      -0.828222       -22.5371
  31   1.0000      -0.803931       -21.8761
  32   1.0000      -0.783272       -21.3139
  33   1.0000      -0.774657       -21.0795
  34   1.0000      -0.697478       -18.9793
  35   1.0000      -0.691418       -18.8144
  36   1.0000      -0.682975       -18.5847
  37   1.0000      -0.660064       -17.9612
  38   1.0000      -0.650438       -17.6993
  39   1.0000      -0.645483       -17.5645
  40   1.0000      -0.616194       -16.7675
  41   1.0000      -0.602286       -16.3890
  42   1.0000      -0.589736       -16.0475
  43   1.0000      -0.583789       -15.8857
  44   1.0000      -0.581140       -15.8136
  45   1.0000      -0.569831       -15.5059
  46   1.0000      -0.563711       -15.3394
  47   1.0000      -0.557841       -15.1796
  48   1.0000      -0.556773       -15.1506
  49   1.0000      -0.550204       -14.9718
  50   1.0000      -0.544378       -14.8133
  51   1.0000      -0.541335       -14.7305
  52   1.0000      -0.534018       -14.5314
  53   1.0000      -0.525643       -14.3035
  54   1.0000      -0.514206       -13.9923
  55   1.0000      -0.506431       -13.7807
  56   1.0000      -0.486217       -13.2306
  57   1.0000      -0.420719       -11.4483
  58   1.0000      -0.416672       -11.3382
  59   1.0000      -0.408305       -11.1105
  60   1.0000      -0.406205       -11.0534
  61   1.0000      -0.394843       -10.7442
  62   1.0000      -0.391902       -10.6642
  63   1.0000      -0.387752       -10.5513
  64   1.0000      -0.381148       -10.3716
  65   1.0000      -0.340720        -9.2715
  66   1.0000      -0.326575        -8.8865
  67   0.0000       0.006306         0.1716
  68   0.0000       0.028553         0.7770
  69   0.0000       0.031632         0.8607
  70   0.0000       0.039516         1.0753
  71   0.0000       0.055868         1.5203

                 SPIN DOWN ORBITALS
  NO   OCC          E(Eh)            E(eV)
   0   1.0000     -19.328134      -525.9453
   1   1.0000     -19.327386      -525.9249
   2   1.0000     -19.319168      -525.7013
   3   1.0000     -19.313849      -525.5566
   4   1.0000     -14.563782      -396.3006
   5   1.0000     -14.558333      -396.1524
   6   1.0000     -14.557639      -396.1335
   7   1.0000     -14.556797      -396.1106
   8   1.0000     -10.503340      -285.8104
   9   1.0000     -10.499803      -285.7142
  10   1.0000     -10.480081      -285.1775
  11   1.0000     -10.478938      -285.1464
  12   1.0000     -10.450469      -284.3717
  13   1.0000     -10.447191      -284.2825
  14   1.0000     -10.413811      -283.3742
  15   1.0000     -10.401518      -283.0397
  16   1.0000     -10.376039      -282.3464
  17   1.0000     -10.373804      -282.2856
  18   1.0000      -1.218425       -33.1550
  19   1.0000      -1.211840       -32.9758
  20   1.0000      -1.189374       -32.3645
  21   1.0000      -1.187239       -32.3064
  22   1.0000      -1.113408       -30.2974
  23   1.0000      -1.092539       -29.7295
  24   1.0000      -1.061907       -28.8960
  25   1.0000      -1.051744       -28.6194
  26   1.0000      -0.958755       -26.0891
  27   1.0000      -0.935220       -25.4486
  28   1.0000      -0.878525       -23.9059
  29   1.0000      -0.832959       -22.6660
  30   1.0000      -0.819245       -22.2928
  31   1.0000      -0.798547       -21.7296
  32   1.0000      -0.782007       -21.2795
  33   1.0000      -0.773094       -21.0369
  34   1.0000      -0.691301       -18.8113
  35   1.0000      -0.685393       -18.6505
  36   1.0000      -0.677568       -18.4376
  37   1.0000      -0.653267       -17.7763
  38   1.0000      -0.642795       -17.4913
  39   1.0000      -0.639165       -17.3926
  40   1.0000      -0.613773       -16.7016
  41   1.0000      -0.597631       -16.2624
  42   1.0000      -0.582834       -15.8597
  43   1.0000      -0.574471       -15.6322
  44   1.0000      -0.570262       -15.5176
  45   1.0000      -0.564077       -15.3493
  46   1.0000      -0.559367       -15.2212
  47   1.0000      -0.553778       -15.0691
  48   1.0000      -0.549589       -14.9551
  49   1.0000      -0.539969       -14.6933
  50   1.0000      -0.537987       -14.6394
  51   1.0000      -0.534146       -14.5348
  52   1.0000      -0.527749       -14.3608
  53   1.0000      -0.514679       -14.0051
  54   1.0000      -0.502635       -13.6774
  55   1.0000      -0.501350       -13.6424
  56   1.0000      -0.480523       -13.0757
  57   1.0000      -0.416361       -11.3297
  58   1.0000      -0.412788       -11.2325
  59   1.0000      -0.401889       -10.9359
  60   1.0000      -0.393253       -10.7010
  61   1.0000      -0.386326       -10.5125
  62   1.0000      -0.383660       -10.4399
  63   1.0000      -0.380880       -10.3643
  64   1.0000      -0.371463       -10.1080
  65   0.0000      -0.063830        -1.7369
  66   0.0000      -0.043056        -1.1716
  67   0.0000       0.005936         0.1615
  68   0.0000       0.028419         0.7733
  69   0.0000       0.031290         0.8514

----------------------------------------------------------------------------------------------------
          SPIN FLIP ABSORPTION SPECTRUM VIA TRANSITION ELECTRIC DIPOLE MOMENTS
----------------------------------------------------------------------------------------------------
     Transition      Energy     Energy  Wavelength fosc(D2)      D2        DX        DY        DZ
                      (eV)      (cm-1)    (nm)                 (au**2)    (au)      (au)      (au)
----------------------------------------------------------------------------------------------------
  1-3A  ->  2-3A    0.069529     560.8  17832.0   0.000000301   0.00018  -0.00415   0.00228  -0.01243

Dispersion correction             ... done (  0.1 sec)

MULLIKEN ATOMIC CHARGES AND SPIN DENSITIES
------------------------------------------
   0 O :   -0.682187   -0.037821
   1 O :   -0.684336    0.033183
   2 O :   -0.653097   -0.001483
   3 O :   -0.639084    0.000550
   4 N :   -0.290192    0.002735
   5 N :   -0.299914    0.001909
   6 N :    0.082011   -0.006334
   7 N :    0.064073    0.008474
   8 C :    0.818713    0.426348
   9 C :    0.415646    0.405370
  10 C :   -0.167952   -0.270131
  11 C :    0.498570   -0.116310
  12 C :   -1.188727    0.018116
  13 C :   -1.160760    0.002444
  14 C :    0.006217   -0.365188
  15 C :    0.046162   -0.200480
  16 C :    0.411180    0.022643
  17 C :    0.360771    0.008779
  18 H :    0.600638    0.002019
  19 H :    0.513561    0.003816
  20 H :    0.309091   -0.006145
  21 H :    0.224758    0.018759
  22 H :    0.317368    0.008235
  23 H :    0.325631    0.014653
  24 H :    0.236667    0.020883
  25 H :    0.313156   -0.001001
  26 H :    0.082428    0.001110
  27 H :    0.062836    0.000147
  28 H :    0.043644    0.003549
  29 H :    0.033129    0.001170
Sum of atomic charges       :   -0.0000000

LOEWDIN ATOMIC CHARGES AND SPIN DENSITIES
-----------------------------------------
   0 O :    0.086235   -0.034510
   1 O :    0.091874    0.028542
   2 O :    0.092050   -0.001184
   3 O :    0.101489    0.000783
   4 N :    0.250874   -0.000424
   5 N :    0.267899    0.001348
   6 N :    0.321459   -0.005488
   7 N :    0.325722    0.002120
   8 C :    0.017546   -0.095392
   9 C :   -0.034200    0.115011
  10 C :   -0.031046   -0.003493
  11 C :   -0.077986    0.003640
  12 C :    0.175923   -0.017241
  13 C :    0.193905    0.016320
  14 C :   -0.413629   -0.022942
  15 C :   -0.406756    0.013535
  16 C :   -0.498092   -0.000182
  17 C :   -0.488865   -0.000131
  18 H :    0.031008   -0.000828
  19 H :    0.043338   -0.000308
  20 H :    0.008770    0.000121
  21 H :   -0.010453   -0.005026
  22 H :    0.010593   -0.003340
  23 H :    0.017453    0.005470
  24 H :   -0.015734    0.004043
  25 H :   -0.001602   -0.000258
  26 H :   -0.020128   -0.000088
  27 H :   -0.025712    0.000159
  28 H :   -0.005064   -0.000441
  29 H :   -0.006870    0.000186

  Mayer bond orders larger than 0.100000
B(  0-O , 14-C ) :   1.3273 B(  1-O , 15-C ) :   1.3994 B(  2-O , 16-C ) :   1.5134
B(  3-O , 17-C ) :   1.5383 B(  4-N ,  5-N ) :   0.1208 B(  4-N ,  8-C ) :   0.2220
B(  4-N , 10-C ) :   0.3276 B(  4-N , 16-C ) :   1.0424 B(  4-N , 26-H ) :   1.0727
B(  5-N ,  9-C ) :   0.3360 B(  5-N , 11-C ) :   0.1271 B(  5-N , 17-C ) :   1.1426
B(  5-N , 27-H ) :   1.0750 B(  6-N ,  8-C ) :  -0.1246 B(  6-N , 10-C ) :   0.1087
B(  6-N , 14-C ) :   1.0731 B(  6-N , 16-C ) :   0.9690 B(  6-N , 28-H ) :   1.0877
B(  7-N , 11-C ) :   0.1323 B(  7-N , 15-C ) :   1.0015 B(  7-N , 17-C ) :   0.9547
B(  7-N , 29-H ) :   1.0876 B(  8-C ,  9-C ) :   0.1154 B(  8-C , 10-C ) :   0.2171
B(  8-C , 12-C ) :   0.5296 B(  8-C , 14-C ) :   0.6674 B(  8-C , 18-H ) :  -0.1273
B(  8-C , 20-H ) :  -0.1052 B(  9-C , 10-C ) :   0.2028 B(  9-C , 11-C ) :   0.2743
B(  9-C , 13-C ) :   0.5782 B(  9-C , 15-C ) :   0.8138 B( 10-C , 11-C ) :   0.6333
B( 10-C , 16-C ) :  -0.1001 B( 10-C , 18-H ) :   0.6945 B( 11-C , 15-C ) :  -0.2195
B( 11-C , 17-C ) :  -0.1987 B( 11-C , 19-H ) :   0.8256 B( 12-C , 20-H ) :   0.9948
B( 12-C , 21-H ) :   0.8915 B( 12-C , 22-H ) :   0.9687 B( 13-C , 23-H ) :   0.9392
B( 13-C , 24-H ) :   0.8500 B( 13-C , 25-H ) :   1.0027

Dispersion correction           -0.058258067
FINAL SINGLE POINT ENERGY      -908.790874135817

DIPOLE MOMENT
-------------

Method             : TDA/CIS
Type of density    : Electron Density
Level              : Relaxed density
State              :   2
Multiplicity       :   3
Irrep              :   0
Energy             :     0.0000000000000000 Eh
Relativity type    :
Basis              : AO
                                X                 Y                 Z
Electronic contribution:     -2.717235913     -10.296156960      -7.281754037
Nuclear contribution   :      2.439241648      11.961579641      10.185389611
                        -----------------------------------------
Total Dipole Moment    :     -0.277994265       1.665422681       2.903635575
                        -----------------------------------------
Magnitude (a.u.)       :      3.358870803
Magnitude (Debye)      :      8.537571088

Rotational constants in cm-1:             0.018880             0.015244             0.012219
Rotational constants in MHz :           566.021244           457.016013           366.313433

                             ****ORCA TERMINATED NORMALLY****
TOTAL RUN TIME: 0 days 0 hours 4 minutes 24 seconds 239 msec
