                         Program Version 6.0.0  -   RELEASE  -
|  1> ! opt def2-TZVPPD wB97M-D3BJ
|  2> %pal nprocs 8 end%pal nprocs 32 end
|  3> %geom Constraints
|  4> {B 9 8 2.9 C}
|  5> {A 8 9 11 34.0 C}
|  6> end
|  7> MaxIter 300
|  8> end
|  9> *xyz 0 1
| 10> O   2.98579685529314 0.88758230159078 -0.86184571092411
| 11> O   -0.03983205397054 0.68929041702508 -2.10362336723772
| 12> O   0.93431434349854 -3.13274393337945 -0.68767288184107
| 13> O   -3.75829998830163 -0.84727300865116 -0.0472717177755
| 14> N   0.21184538946282 -1.54604804365365 0.7617588924445
| 15> N   -2.13631993928911 0.03188773433438 1.27350571071531
| 16> N   2.02598672506387 -1.14318467211666 -0.64531219127023
| 17> N   -1.91814233924584 0.03137116037665 -1.04498946748291
| 18> C   1.18097737274226 0.71693507080484 0.70173889017321
| 19> C   -0.20686880480777 1.27024627933494 0.21345042231937
| 20> C   0.41441080275909 -0.34173258966541 1.52336266615173
| 21> C   -0.82922175114212 0.58960593673968 1.44434972027296
| 22> C   1.92822011286806 1.69488653817281 1.5963734975385
| 23> C   -0.37809776891576 2.77134929626422 0.04819649358288
| 24> C   2.1403947470937 0.1972384729179 -0.35038567829864
| 25> C   -0.67361678962426 0.6214190571346 -1.0793014500539
| 26> C   1.04142578622994 -2.02697492875068 -0.21027082435993
| 27> C   -2.68467002550422 -0.30396816036989 0.07167054343891
| 28> H   0.80817443950001 -0.54572267081061 2.51895215321335
| 29> H   -0.83785272399001 1.27240685039143 2.28901317073582
| 30> H   2.31167340578204 2.52284411740894 1.00913016264629
| 31> H   1.28982602448342 2.08257620823614 2.38710022492991
| 32> H   2.77390820759972 1.19140411795486 2.06045858523949
| 33> H   -1.41857211141493 3.00964947214868 -0.16882755561625
| 34> H   -0.09065531563179 3.29799318042223 0.95389844358819
| 35> H   0.23426221611057 3.12492645074476 -0.77764887675592
| 36> H   -0.46772570547622 -2.21560145172536 1.0787081584806
| 37> H   -2.71769301149571 -0.17090724573546 2.06627440900372
| 38> H   2.60065167263658 -1.49057255715425 -1.3966820077142
| 39> H   -2.27169977231386 -0.32388339999036 -1.91951041514436
| 40> *
| 41>
| 42>                          ****END OF INPUT****
 Total Charge           Charge          ....    0
 Multiplicity           Mult            ....    1
 Number of Electrons    NEL             ....  132
Dispersion correction           -0.054504609
FINAL SINGLE POINT ENERGY      -908.447024875280
Dispersion correction             ... done (  0.0 sec)
Dispersion correction           -0.054307233
FINAL SINGLE POINT ENERGY      -908.536775553959
Dispersion correction             ... done (  0.0 sec)
Dispersion correction           -0.054139236
FINAL SINGLE POINT ENERGY      -908.591413317093
Dispersion correction             ... done (  0.0 sec)
FINAL SINGLE POINT ENERGY      -908.640059058049
FINAL SINGLE POINT ENERGY      -908.678721925031
FINAL SINGLE POINT ENERGY      -908.698560798805
FINAL SINGLE POINT ENERGY      -908.709865805045
FINAL SINGLE POINT ENERGY      -908.717488059825
FINAL SINGLE POINT ENERGY      -908.723423977417
FINAL SINGLE POINT ENERGY      -908.727621731983
FINAL SINGLE POINT ENERGY      -908.749901661277
FINAL SINGLE POINT ENERGY      -908.750382235831
FINAL SINGLE POINT ENERGY      -908.750671587246
FINAL SINGLE POINT ENERGY      -908.750841709519
FINAL SINGLE POINT ENERGY      -908.750928411729
FINAL SINGLE POINT ENERGY      -908.750966934488
FINAL SINGLE POINT ENERGY      -908.750984696733
Dispersion correction             ... done (  0.0 sec)
Dispersion correction           -0.058681402
FINAL SINGLE POINT ENERGY      -908.750990162940
Dispersion correction             ... done (  0.0 sec)
Dispersion correction           -0.058689062
FINAL SINGLE POINT ENERGY      -908.750993150496
Dispersion correction             ... done (  0.0 sec)
                    ***********************HURRAY********************

CARTESIAN COORDINATES (ANGSTROEM)
---------------------------------
  O      2.226500   -0.107943   -1.178817
  O     -0.244103    2.687407   -2.331977
  O      0.288662   -3.755571    0.641196
  O     -2.237642   -1.142721   -1.284831
  N      0.381370   -1.884138    1.921749
  N     -1.403909   -0.140274    0.556786
  N      1.080317   -1.841627   -0.296194
  N     -0.865785    0.617027   -1.629485
  C      1.218567    0.257611    0.939328
  C     -0.199843    2.541373   -0.148121
  C      0.569891   -0.482363    2.060643
  C     -0.355883    0.456799    1.300670
  C      2.180183    1.363232    1.269659
  C     -1.342578    3.311712    0.377019
  C      1.557912   -0.544132   -0.274898
  C     -0.463778    1.914485   -1.407407
  C      0.552806   -2.583343    0.759813
  C     -1.545527   -0.275522   -0.805113
  H      0.850001   -0.186132    3.060513
  H     -0.560511    1.390015    1.800931
  H      2.378613    1.967965    0.394598
  H      1.770971    2.004830    2.046668
  H      3.112613    0.928527    1.629339
  H     -2.313054    2.809301    0.334826
  H     -1.162955    3.747294    1.356053
  H     -1.396041    4.138446   -0.345632
  H     -0.034340   -2.411450    2.668092
  H     -1.905398   -0.880793    1.022381
  H      1.283720   -2.379448   -1.124092
  H     -0.968180    0.394431   -2.609098

 Multiplicity           Mult            ....    1
 Number of Electrons    NEL             ....  132
 Basis Dimension        Dim             ....  882

ORBITAL ENERGIES
----------------

  NO   OCC          E(Eh)            E(eV)
   0   2.0000     -19.335409      -526.1432
   1   2.0000     -19.333376      -526.0879
   2   2.0000     -19.324715      -525.8522
   3   2.0000     -19.323146      -525.8095
   4   2.0000     -14.570193      -396.4751
   5   2.0000     -14.568954      -396.4414
   6   2.0000     -14.568377      -396.4257
   7   2.0000     -14.567932      -396.4136
   8   2.0000     -10.512498      -286.0596
   9   2.0000     -10.510744      -286.0119
  10   2.0000     -10.490802      -285.4692
  11   2.0000     -10.478756      -285.1415
  12   2.0000     -10.443598      -284.1847
  13   2.0000     -10.442862      -284.1647
  14   2.0000     -10.420550      -283.5576
  15   2.0000     -10.415855      -283.4298
  16   2.0000     -10.379358      -282.4367
  17   2.0000     -10.357962      -281.8545
  18   2.0000      -1.227837       -33.4111
  19   2.0000      -1.221693       -33.2440
  20   2.0000      -1.203249       -32.7421
  21   2.0000      -1.198592       -32.6154
  22   2.0000      -1.130055       -30.7503
  23   2.0000      -1.094496       -29.7827
  24   2.0000      -1.074314       -29.2336
  25   2.0000      -1.065323       -28.9889
  26   2.0000      -1.006365       -27.3846
  27   2.0000      -0.937157       -25.5013
  28   2.0000      -0.877625       -23.8814
  29   2.0000      -0.824195       -22.4275
  30   2.0000      -0.815743       -22.1975
  31   2.0000      -0.808772       -22.0078
  32   2.0000      -0.791970       -21.5506
  33   2.0000      -0.778139       -21.1742
  34   2.0000      -0.724600       -19.7174
  35   2.0000      -0.701622       -19.0921
  36   2.0000      -0.694142       -18.8886
  37   2.0000      -0.667425       -18.1616
  38   2.0000      -0.639378       -17.3983
  39   2.0000      -0.632137       -17.2013
  40   2.0000      -0.616092       -16.7647
  41   2.0000      -0.607706       -16.5365
  42   2.0000      -0.593614       -16.1531
  43   2.0000      -0.589233       -16.0338
  44   2.0000      -0.578448       -15.7404
  45   2.0000      -0.567317       -15.4375
  46   2.0000      -0.562706       -15.3120
  47   2.0000      -0.560712       -15.2577
  48   2.0000      -0.554666       -15.0932
  49   2.0000      -0.552762       -15.0414
  50   2.0000      -0.542830       -14.7712
  51   2.0000      -0.541266       -14.7286
  52   2.0000      -0.531880       -14.4732
  53   2.0000      -0.507424       -13.8077
  54   2.0000      -0.504776       -13.7357
  55   2.0000      -0.483830       -13.1657
  56   2.0000      -0.437145       -11.8953
  57   2.0000      -0.425188       -11.5700
  58   2.0000      -0.419885       -11.4256
  59   2.0000      -0.409250       -11.1363
  60   2.0000      -0.399790       -10.8789
  61   2.0000      -0.395401       -10.7594
  62   2.0000      -0.390059       -10.6140
  63   2.0000      -0.387087       -10.5332
  64   2.0000      -0.377466       -10.2714
  65   2.0000      -0.338417        -9.2088
  66   0.0000      -0.021016        -0.5719
  67   0.0000       0.008860         0.2411
  68   0.0000       0.028761         0.7826
  69   0.0000       0.034042         0.9263
  70   0.0000       0.036420         0.9910

MULLIKEN ATOMIC CHARGES
-----------------------
   0 O :   -0.641234
   1 O :   -0.646013
   2 O :   -0.645499
   3 O :   -0.659491
   4 N :   -0.157674
   5 N :   -0.094408
   6 N :    0.012991
   7 N :    0.071627
   8 C :    1.976350
   9 C :    0.125990
  10 C :   -0.178839
  11 C :   -0.909704
  12 C :   -1.671275
  13 C :   -1.179678
  14 C :   -0.020111
  15 C :    0.659907
  16 C :    0.454559
  17 C :    0.544396
  18 H :    0.264220
  19 H :    0.402701
  20 H :    0.327388
  21 H :    0.327273
  22 H :    0.458458
  23 H :    0.312709
  24 H :    0.302004
  25 H :    0.375423
  26 H :    0.031537
  27 H :    0.100415
  28 H :    0.034509
  29 H :    0.021468
Sum of atomic charges:    0.0000000

LOEWDIN ATOMIC CHARGES
----------------------
   0 O :    0.121790
   1 O :    0.097125
   2 O :    0.097335
   3 O :    0.097276
   4 N :    0.288681
   5 N :    0.279608
   6 N :    0.343862
   7 N :    0.336441
   8 C :   -0.184458
   9 C :    0.144712
  10 C :   -0.062245
  11 C :   -0.044538
  12 C :    0.185428
  13 C :    0.109764
  14 C :   -0.377133
  15 C :   -0.505228
  16 C :   -0.475357
  17 C :   -0.476288
  18 H :    0.056462
  19 H :    0.013805
  20 H :   -0.011894
  21 H :    0.003080
  22 H :    0.010733
  23 H :    0.003833
  24 H :   -0.014970
  25 H :    0.021363
  26 H :   -0.024885
  27 H :   -0.025977
  28 H :   -0.003798
  29 H :   -0.004526

  Mayer bond orders larger than 0.100000
B(  0-O ,  8-C ) :  -0.1587 B(  0-O , 14-C ) :   1.6159 B(  1-O ,  9-C ) :   0.2331
B(  1-O , 15-C ) :   1.2115 B(  2-O , 16-C ) :   1.5739 B(  3-O , 17-C ) :   1.4824
B(  4-N , 10-C ) :   0.6448 B(  4-N , 16-C ) :   1.0948 B(  4-N , 26-H ) :   1.1280
B(  5-N , 11-C ) :   0.6751 B(  5-N , 17-C ) :   0.9440 B(  5-N , 19-H ) :  -0.1319
B(  5-N , 27-H ) :   1.0451 B(  6-N , 14-C ) :   1.0720 B(  6-N , 16-C ) :   0.9381
B(  6-N , 28-H ) :   1.1098 B(  7-N , 15-C ) :   0.9607 B(  7-N , 17-C ) :   0.9722
B(  7-N , 29-H ) :   1.1043 B(  8-C , 10-C ) :   0.5727 B(  8-C , 14-C ) :   0.2088
B(  8-C , 20-H ) :  -0.1013 B(  8-C , 21-H ) :  -0.1285 B(  9-C , 12-C ) :  -0.2057
B(  9-C , 13-C ) :   0.5431 B(  9-C , 15-C ) :   0.8494 B( 10-C , 11-C ) :   0.6847
B( 10-C , 12-C ) :  -0.1344 B( 10-C , 14-C ) :  -0.1049 B( 10-C , 16-C ) :  -0.1143
B( 10-C , 18-H ) :   1.1170 B( 11-C , 19-H ) :   1.0747 B( 12-C , 20-H ) :   1.0567
B( 12-C , 21-H ) :   1.0663 B( 12-C , 22-H ) :   0.7101 B( 13-C , 23-H ) :   0.9658
B( 13-C , 24-H ) :   1.0441 B( 13-C , 25-H ) :   0.8653

Dispersion correction           -0.058690277
FINAL SINGLE POINT ENERGY      -908.750995391449

DIPOLE MOMENT
-------------

Method             : SCF
Type of density    : Electron Density
Multiplicity       :   1
Irrep              :   0
Energy             :  -908.6923051148438617 Eh
Relativity type    :
Basis              : AO
                                X                 Y                 Z
Electronic contribution:     -0.597709312      -9.857182301      -6.875368843
Nuclear contribution   :      0.250492401      10.731834032       9.521076948
                        -----------------------------------------
Total Dipole Moment    :     -0.347216912       0.874651731       2.645708105
                        -----------------------------------------
Magnitude (a.u.)       :      2.808085934
Magnitude (Debye)      :      7.137587211

Rotational constants in cm-1:             0.022739             0.013107             0.011766
Rotational constants in MHz :           681.700465           392.928776           352.728183

                             ****ORCA TERMINATED NORMALLY****
TOTAL RUN TIME: 0 days 1 hours 14 minutes 45 seconds 397 msec
