                         Program Version 6.0.0  -   RELEASE  -
|  1> ! Opt wB97M-D3BJ def2-TZVPPD
|  2> %pal nprocs 8 end %pal nprocs 64 end
|  3> %geom
|  4> Constraints
|  5>     {A 2 1 0 111.86440677966101 C }
|  6> end
|  7> MaxIter 200
|  8> end
|  9> *xyz 0 1
| 10> O   1.2837564448124223 0.9242257152478367 0.0
| 11> C   0.7509 -0.4065 0.0
| 12> C   -0.7502 -0.4076 0.0
| 13> H   1.2625 -0.6786 0.9136
| 14> H   1.2625 -0.6787 -0.9136
| 15> H   -1.2614 -0.6806 -0.9136
| 16> H   -1.2614 -0.6805 0.9136
| 17> *
| 18>
| 19>                          ****END OF INPUT****
 Total Charge           Charge          ....    0
 Multiplicity           Mult            ....    1
 Number of Electrons    NEL             ....   24
Dispersion correction           -0.005435697
FINAL SINGLE POINT ENERGY      -153.716102783086
Dispersion correction             ... done (  0.1 sec)
Dispersion correction           -0.005500318
FINAL SINGLE POINT ENERGY      -153.738497745543
Dispersion correction             ... done (  0.1 sec)
Dispersion correction           -0.005557653
FINAL SINGLE POINT ENERGY      -153.751424164011
Dispersion correction             ... done (  0.1 sec)
FINAL SINGLE POINT ENERGY      -153.761852060909
FINAL SINGLE POINT ENERGY      -153.765683407123
FINAL SINGLE POINT ENERGY      -153.766128020074
FINAL SINGLE POINT ENERGY      -153.766417050390
FINAL SINGLE POINT ENERGY      -153.766978032583
FINAL SINGLE POINT ENERGY      -153.767909318234
FINAL SINGLE POINT ENERGY      -153.769028483070
FINAL SINGLE POINT ENERGY      -153.923916498120
FINAL SINGLE POINT ENERGY      -153.923920718154
FINAL SINGLE POINT ENERGY      -153.923931747072
FINAL SINGLE POINT ENERGY      -153.923943630331
FINAL SINGLE POINT ENERGY      -153.923961190315
FINAL SINGLE POINT ENERGY      -153.923956706301
FINAL SINGLE POINT ENERGY      -153.923960917105
Dispersion correction             ... done (  0.1 sec)
Dispersion correction           -0.005560107
FINAL SINGLE POINT ENERGY      -153.923977736979
Dispersion correction             ... done (  0.1 sec)
Dispersion correction           -0.005560046
FINAL SINGLE POINT ENERGY      -153.923978117908
Dispersion correction             ... done (  0.1 sec)
                    ***********************HURRAY********************

CARTESIAN COORDINATES (ANGSTROEM)
---------------------------------
  O      0.994333    1.121548    0.240285
  C      0.883146    0.051166   -0.311624
  C     -0.329824   -0.715424    0.181315
  H     -0.002834   -1.508659    0.856878
  H      1.586383   -0.335978   -1.062287
  H     -0.883621   -1.201377   -0.623451
  H     -0.960926   -0.019550    0.718885

 Multiplicity           Mult            ....    1
 Number of Electrons    NEL             ....   24
 Basis Dimension        Dim             ....  182

ORBITAL ENERGIES
----------------

  NO   OCC          E(Eh)            E(eV)
   0   2.0000     -19.336277      -526.1669
   1   2.0000     -10.444201      -284.2011
   2   2.0000     -10.350917      -281.6628
   3   2.0000      -1.185840       -32.2683
   4   2.0000      -0.868922       -23.6446
   5   2.0000      -0.711059       -19.3489
   6   2.0000      -0.598432       -16.2841
   7   2.0000      -0.554874       -15.0989
   8   2.0000      -0.544117       -14.8062
   9   2.0000      -0.507041       -13.7973
  10   2.0000      -0.469751       -12.7826
  11   2.0000      -0.365646        -9.9497
  12   0.0000       0.039365         1.0712
  13   0.0000       0.048319         1.3148
  14   0.0000       0.058717         1.5978
  15   0.0000       0.084584         2.3016
  16   0.0000       0.087623         2.3843

MULLIKEN ATOMIC CHARGES
-----------------------
   0 O :   -0.470415
   1 C :    0.240378
   2 C :   -0.680930
   3 H :    0.197689
   4 H :    0.242856
   5 H :    0.235531
   6 H :    0.234890
Sum of atomic charges:    0.0000000

LOEWDIN ATOMIC CHARGES
----------------------
   0 O :    0.045488
   1 C :   -0.184177
   2 C :    0.162248
   3 H :   -0.013239
   4 H :    0.022470
   5 H :   -0.019326
   6 H :   -0.013465

  Mayer bond orders larger than 0.100000
B(  0-O ,  1-C ) :   1.7754 B(  1-C ,  2-C ) :   0.7955 B(  1-C ,  4-H ) :   0.9786
B(  2-C ,  3-H ) :   0.9830 B(  2-C ,  5-H ) :   1.0024 B(  2-C ,  6-H ) :   0.9604

Dispersion correction           -0.005559941
FINAL SINGLE POINT ENERGY      -153.923978215513

DIPOLE MOMENT
-------------

Method             : SCF
Type of density    : Electron Density
Multiplicity       :   1
Irrep              :   0
Energy             :  -153.9184182742362736 Eh
Relativity type    :
Basis              : AO
                                X                 Y                 Z
Electronic contribution:      1.914891558       2.485576300      -0.087904659
Nuclear contribution   :     -2.136541198      -3.447427438      -0.285060628
                        -----------------------------------------
Total Dipole Moment    :     -0.221649641      -0.961851137      -0.372965287
                        -----------------------------------------
Magnitude (a.u.)       :      1.055172630
Magnitude (Debye)      :      2.682035680

Rotational constants in cm-1:             1.601181             0.376760             0.323013
Rotational constants in MHz :         48002.190123         11294.980135          9683.699794

                             ****ORCA TERMINATED NORMALLY****
TOTAL RUN TIME: 0 days 0 hours 10 minutes 57 seconds 427 msec
