                         Program Version 6.0.0  -   RELEASE  -
|  1> ! Engrad def2-TZVPPD wB97M-D3BJ
|  2> %pal nprocs 8 end%pal nprocs 64 end
|  3> %tddft
|  4>  Iroot 2 Nroots 3
|  5> sf true
|  6> end
|  7> *xyz 0 3
|  8> O   2.5307725 -0.69652373 -2.53227434
|  9> O   -2.37900624 1.03400086 -1.40318008
| 10> O   -1.33272715 -2.48602132 -0.92357959
| 11> O   -2.27597934 1.17490695 3.16262165
| 12> N   0.12077985 -1.6838111 0.61301677
| 13> N   -0.28886808 0.78504272 2.1166757
| 14> N   0.59559604 -1.51335938 -1.66155562
| 15> N   -2.33326006 1.20514421 0.89916802
| 16> C   2.20897687 -0.71333315 -0.20960494
| 17> C   -0.29714446 1.15575414 -0.3710787
| 18> C   1.10710785 -0.69941048 0.84041284
| 19> C   0.49197127 0.75567005 0.87710992
| 20> C   3.57377456 -0.1936922 0.15617567
| 21> C   0.32371611 1.77659498 -1.544473
| 22> C   1.88780006 -1.00074207 -1.53633904
| 23> C   -1.72778294 1.08673274 -0.37387561
| 24> C   -0.31639847 -1.91576861 -0.62622119
| 25> C   -1.67817286 1.05647518 2.10150044
| 26> H   1.66836485 -0.83257013 1.78027061
| 27> H   1.35452486 1.42821189 0.94712645
| 28> H   4.21142828 -0.87986022 0.70798057
| 29> H   4.19527147 0.1500092 -0.66643828
| 30> H   3.44881748 0.60194725 0.88845453
| 31> H   -0.09932592 2.79558016 -1.73162328
| 32> H   1.37759302 1.86373734 -1.35270653
| 33> H   0.15171642 1.15210309 -2.41994839
| 34> H   -0.52039411 -2.02716021 1.34195091
| 35> H   0.16668139 0.87464674 3.00024003
| 36> H   0.23196896 -1.55329256 -2.64214823
| 37> H   -3.3035107 1.03484488 0.82832172
| 38> *
| 39>
| 40>                          ****END OF INPUT****

CARTESIAN COORDINATES (ANGSTROEM)
---------------------------------
  O      2.530772   -0.696524   -2.532274
  O     -2.379006    1.034001   -1.403180
  O     -1.332727   -2.486021   -0.923580
  O     -2.275979    1.174907    3.162622
  N      0.120780   -1.683811    0.613017
  N     -0.288868    0.785043    2.116676
  N      0.595596   -1.513359   -1.661556
  N     -2.333260    1.205144    0.899168
  C      2.208977   -0.713333   -0.209605
  C     -0.297144    1.155754   -0.371079
  C      1.107108   -0.699410    0.840413
  C      0.491971    0.755670    0.877110
  C      3.573775   -0.193692    0.156176
  C      0.323716    1.776595   -1.544473
  C      1.887800   -1.000742   -1.536339
  C     -1.727783    1.086733   -0.373876
  C     -0.316398   -1.915769   -0.626221
  C     -1.678173    1.056475    2.101500
  H      1.668365   -0.832570    1.780271
  H      1.354525    1.428212    0.947126
  H      4.211428   -0.879860    0.707981
  H      4.195271    0.150009   -0.666438
  H      3.448817    0.601947    0.888455
  H     -0.099326    2.795580   -1.731623
  H      1.377593    1.863737   -1.352707
  H      0.151716    1.152103   -2.419948
  H     -0.520394   -2.027160    1.341951
  H      0.166681    0.874647    3.000240
  H      0.231969   -1.553293   -2.642148
  H     -3.303511    1.034845    0.828322

 Total Charge           Charge          ....    0
 Multiplicity           Mult            ....    3
 Number of Electrons    NEL             ....  132
 Basis Dimension        Dim             ....  882

ORBITAL ENERGIES
----------------
                 SPIN UP ORBITALS
  NO   OCC          E(Eh)            E(eV)
   0   1.0000     -19.338098      -526.2164
   1   1.0000     -19.333143      -526.0816
   2   1.0000     -19.319240      -525.7032
   3   1.0000     -19.318436      -525.6814
   4   1.0000     -14.567706      -396.4074
   5   1.0000     -14.567638      -396.4056
   6   1.0000     -14.564868      -396.3302
   7   1.0000     -14.557852      -396.1393
   8   1.0000     -10.512751      -286.0665
   9   1.0000     -10.504138      -285.8321
  10   1.0000     -10.481154      -285.2067
  11   1.0000     -10.473630      -285.0020
  12   1.0000     -10.449298      -284.3398
  13   1.0000     -10.449142      -284.3356
  14   1.0000     -10.420067      -283.5444
  15   1.0000     -10.418050      -283.4896
  16   1.0000     -10.380225      -282.4603
  17   1.0000     -10.370482      -282.1952
  18   1.0000      -1.220658       -33.2158
  19   1.0000      -1.214757       -33.0552
  20   1.0000      -1.195732       -32.5375
  21   1.0000      -1.194475       -32.5033
  22   1.0000      -1.124461       -30.5981
  23   1.0000      -1.094091       -29.7717
  24   1.0000      -1.066756       -29.0279
  25   1.0000      -1.050482       -28.5851
  26   1.0000      -0.981922       -26.7194
  27   1.0000      -0.960473       -26.1358
  28   1.0000      -0.889735       -24.2109
  29   1.0000      -0.844645       -22.9839
  30   1.0000      -0.829563       -22.5736
  31   1.0000      -0.804711       -21.8973
  32   1.0000      -0.790235       -21.5034
  33   1.0000      -0.778863       -21.1939
  34   1.0000      -0.698382       -19.0039
  35   1.0000      -0.696859       -18.9625
  36   1.0000      -0.693421       -18.8689
  37   1.0000      -0.681594       -18.5471
  38   1.0000      -0.655277       -17.8310
  39   1.0000      -0.638038       -17.3619
  40   1.0000      -0.626048       -17.0356
  41   1.0000      -0.600993       -16.3539
  42   1.0000      -0.595295       -16.1988
  43   1.0000      -0.585970       -15.9451
  44   1.0000      -0.575817       -15.6688
  45   1.0000      -0.567612       -15.4455
  46   1.0000      -0.562392       -15.3035
  47   1.0000      -0.560577       -15.2541
  48   1.0000      -0.557409       -15.1679
  49   1.0000      -0.555354       -15.1120
  50   1.0000      -0.552499       -15.0343
  51   1.0000      -0.539508       -14.6808
  52   1.0000      -0.536226       -14.5915
  53   1.0000      -0.523612       -14.2482
  54   1.0000      -0.511597       -13.9213
  55   1.0000      -0.504453       -13.7269
  56   1.0000      -0.502103       -13.6629
  57   1.0000      -0.423597       -11.5267
  58   1.0000      -0.417806       -11.3691
  59   1.0000      -0.410249       -11.1635
  60   1.0000      -0.406514       -11.0618
  61   1.0000      -0.401950       -10.9376
  62   1.0000      -0.391964       -10.6659
  63   1.0000      -0.390076       -10.6145
  64   1.0000      -0.381671       -10.3858
  65   1.0000      -0.351941        -9.5768
  66   1.0000      -0.328124        -8.9287
  67   0.0000       0.006450         0.1755
  68   0.0000       0.029001         0.7891
  69   0.0000       0.032256         0.8777
  70   0.0000       0.035440         0.9644
  71   0.0000       0.054024         1.4701

                 SPIN DOWN ORBITALS
  NO   OCC          E(Eh)            E(eV)
   0   1.0000     -19.334269      -526.1122
   1   1.0000     -19.328179      -525.9465
   2   1.0000     -19.319076      -525.6988
   3   1.0000     -19.318345      -525.6789
   4   1.0000     -14.567634      -396.4055
   5   1.0000     -14.567031      -396.3891
   6   1.0000     -14.564528      -396.3210
   7   1.0000     -14.556782      -396.1102
   8   1.0000     -10.512786      -286.0675
   9   1.0000     -10.504206      -285.8340
  10   1.0000     -10.482095      -285.2323
  11   1.0000     -10.474690      -285.0308
  12   1.0000     -10.449025      -284.3324
  13   1.0000     -10.448731      -284.3244
  14   1.0000     -10.408882      -283.2401
  15   1.0000     -10.406515      -283.1757
  16   1.0000     -10.380805      -282.4761
  17   1.0000     -10.371023      -282.2099
  18   1.0000      -1.219187       -33.1758
  19   1.0000      -1.212320       -32.9889
  20   1.0000      -1.190784       -32.4029
  21   1.0000      -1.189201       -32.3598
  22   1.0000      -1.122239       -30.5377
  23   1.0000      -1.091969       -29.7140
  24   1.0000      -1.065031       -28.9810
  25   1.0000      -1.047662       -28.5083
  26   1.0000      -0.968712       -26.3600
  27   1.0000      -0.942977       -25.6597
  28   1.0000      -0.884251       -24.0617
  29   1.0000      -0.838294       -22.8112
  30   1.0000      -0.820896       -22.3377
  31   1.0000      -0.799653       -21.7597
  32   1.0000      -0.789083       -21.4720
  33   1.0000      -0.777233       -21.1496
  34   1.0000      -0.694195       -18.8900
  35   1.0000      -0.692764       -18.8511
  36   1.0000      -0.687995       -18.7213
  37   1.0000      -0.673837       -18.3360
  38   1.0000      -0.644508       -17.5380
  39   1.0000      -0.631798       -17.1921
  40   1.0000      -0.621660       -16.9162
  41   1.0000      -0.595061       -16.1924
  42   1.0000      -0.588471       -16.0131
  43   1.0000      -0.579473       -15.7683
  44   1.0000      -0.566445       -15.4137
  45   1.0000      -0.561708       -15.2849
  46   1.0000      -0.555864       -15.1258
  47   1.0000      -0.553341       -15.0572
  48   1.0000      -0.552442       -15.0327
  49   1.0000      -0.548201       -14.9173
  50   1.0000      -0.541979       -14.7480
  51   1.0000      -0.532216       -14.4823
  52   1.0000      -0.529604       -14.4113
  53   1.0000      -0.515654       -14.0317
  54   1.0000      -0.506420       -13.7804
  55   1.0000      -0.496356       -13.5065
  56   1.0000      -0.493645       -13.4328
  57   1.0000      -0.419305       -11.4099
  58   1.0000      -0.412249       -11.2179
  59   1.0000      -0.406239       -11.0543
  60   1.0000      -0.395057       -10.7500
  61   1.0000      -0.387482       -10.5439
  62   1.0000      -0.386268       -10.5109
  63   1.0000      -0.384876       -10.4730
  64   1.0000      -0.375642       -10.2218
  65   0.0000      -0.067279        -1.8307
  66   0.0000      -0.050175        -1.3653
  67   0.0000       0.006229         0.1695
  68   0.0000       0.028707         0.7811
  69   0.0000       0.032226         0.8769

----------------------------------------------------------------------------------------------------
          SPIN FLIP ABSORPTION SPECTRUM VIA TRANSITION ELECTRIC DIPOLE MOMENTS
----------------------------------------------------------------------------------------------------
     Transition      Energy     Energy  Wavelength fosc(D2)      D2        DX        DY        DZ
                      (eV)      (cm-1)    (nm)                 (au**2)    (au)      (au)      (au)
----------------------------------------------------------------------------------------------------
  1-3A  ->  2-3A    0.076900     620.2  16122.9   0.000020491   0.01088   0.07787  -0.02611  -0.06427
  1-3A  ->  3-3A    2.098043   16921.9   591.0   0.000949156   0.01847   0.04403  -0.00337  -0.12851

Dispersion correction             ... done (  0.1 sec)

MULLIKEN ATOMIC CHARGES AND SPIN DENSITIES
------------------------------------------
   0 O :   -0.683825    0.039853
   1 O :   -0.643462   -0.031968
   2 O :   -0.643316    0.000026
   3 O :   -0.659579   -0.000394
   4 N :   -0.240701   -0.004303
   5 N :   -0.188459    0.004410
   6 N :   -0.057022   -0.003943
   7 N :   -0.019255   -0.006730
   8 C :    0.474844    0.322982
   9 C :    0.907482    0.359609
  10 C :    0.232771   -0.060652
  11 C :   -0.037017   -0.308966
  12 C :   -1.327647   -0.012196
  13 C :   -1.565190    0.035755
  14 C :    0.290847   -0.118363
  15 C :    0.114150   -0.236727
  16 C :    0.355099    0.004989
  17 C :    0.367354    0.015243
  18 H :    0.473098    0.001697
  19 H :    0.593270   -0.023370
  20 H :    0.345130    0.011049
  21 H :    0.296084   -0.000052
  22 H :    0.325338    0.010554
  23 H :    0.435090   -0.002128
  24 H :    0.311375    0.004048
  25 H :    0.284858   -0.001444
  26 H :    0.080899   -0.000622
  27 H :    0.042787    0.000041
  28 H :    0.089093   -0.000585
  29 H :    0.045905    0.002184
Sum of atomic charges       :    0.0000000

LOEWDIN ATOMIC CHARGES AND SPIN DENSITIES
-----------------------------------------
   0 O :    0.081396    0.033986
   1 O :    0.103358   -0.027175
   2 O :    0.101626    0.000079
   3 O :    0.062983   -0.000397
   4 N :    0.272997   -0.000124
   5 N :    0.282509   -0.000088
   6 N :    0.309361   -0.000448
   7 N :    0.344281   -0.007132
   8 C :   -0.017937    0.110038
   9 C :   -0.013807   -0.095671
  10 C :   -0.123836    0.002926
  11 C :   -0.090126   -0.006165
  12 C :    0.204470    0.014494
  13 C :    0.187838   -0.015872
  14 C :   -0.462812    0.015367
  15 C :   -0.406948   -0.021351
  16 C :   -0.495726   -0.000893
  17 C :   -0.443914   -0.000198
  18 H :    0.064344    0.000449
  19 H :    0.042853   -0.001491
  20 H :    0.002865    0.005282
  21 H :    0.003179    0.000441
  22 H :   -0.012807    0.002619
  23 H :    0.044057   -0.004535
  24 H :   -0.012105    0.000567
  25 H :    0.010260   -0.003915
  26 H :    0.015447    0.000092
  27 H :   -0.044124   -0.000066
  28 H :    0.026674   -0.000067
  29 H :   -0.036357   -0.000751

  Mayer bond orders larger than 0.100000
B(  0-O , 14-C ) :   1.3894 B(  1-O , 15-C ) :   1.4740 B(  2-O , 16-C ) :   1.4923
B(  3-O , 17-C ) :   1.6221 B(  4-N ,  8-C ) :   0.2584 B(  4-N , 10-C ) :   0.2050
B(  4-N , 16-C ) :   1.1668 B(  4-N , 26-H ) :   1.0384 B(  5-N , 10-C ) :   0.2095
B(  5-N , 11-C ) :   0.4839 B(  5-N , 17-C ) :   1.1349 B(  5-N , 27-H ) :   1.1463
B(  6-N ,  8-C ) :  -0.2374 B(  6-N , 10-C ) :   0.2079 B(  6-N , 14-C ) :   1.0635
B(  6-N , 16-C ) :   0.8817 B(  6-N , 28-H ) :   1.0673 B(  7-N , 15-C ) :   0.9230
B(  7-N , 17-C ) :   0.9707 B(  7-N , 29-H ) :   1.1082 B(  8-C , 10-C ) :   0.4062
B(  8-C , 11-C ) :   0.2943 B(  8-C , 12-C ) :   0.5381 B(  8-C , 14-C ) :   0.8960
B(  8-C , 18-H ) :  -0.1515 B(  9-C , 11-C ) :   0.6767 B(  9-C , 13-C ) :   0.1960
B(  9-C , 15-C ) :   0.3807 B(  9-C , 19-H ) :  -0.1175 B(  9-C , 24-H ) :  -0.1945
B( 10-C , 11-C ) :   0.4262 B( 10-C , 14-C ) :  -0.1421 B( 10-C , 16-C ) :  -0.1570
B( 10-C , 18-H ) :   0.8827 B( 10-C , 19-H ) :  -0.1170 B( 11-C , 13-C ) :  -0.1380
B( 11-C , 17-C ) :  -0.1705 B( 11-C , 19-H ) :   0.7701 B( 12-C , 20-H ) :   0.9165
B( 12-C , 21-H ) :   0.9857 B( 12-C , 22-H ) :   0.8818 B( 13-C , 23-H ) :   0.7467
B( 13-C , 24-H ) :   1.1799 B( 13-C , 25-H ) :   0.9527 B( 15-C , 17-C ) :  -0.1192

Dispersion correction           -0.058847311
FINAL SINGLE POINT ENERGY      -908.780503408202

DIPOLE MOMENT
-------------

Method             : TDA/CIS
Type of density    : Electron Density
Level              : Relaxed density
State              :   2
Multiplicity       :   3
Irrep              :   0
Energy             :     0.0000000000000000 Eh
Relativity type    :
Basis              : AO
                                X                 Y                 Z
Electronic contribution:     -9.943496606      -4.251645781       0.386338043
Nuclear contribution   :     12.117993361       4.847333056       0.946179382
                        -----------------------------------------
Total Dipole Moment    :      2.174496755       0.595687274       1.332517425
                        -----------------------------------------
Magnitude (a.u.)       :      2.618946764
Magnitude (Debye)      :      6.656833647

Rotational constants in cm-1:             0.022522             0.012153             0.011152
Rotational constants in MHz :           675.179419           364.351685           334.335489

                             ****ORCA TERMINATED NORMALLY****
TOTAL RUN TIME: 0 days 0 hours 4 minutes 52 seconds 787 msec
