                         Program Version 6.0.0  -   RELEASE  -
|  1> ! Opt wB97M-D3BJ def2-TZVPPD
|  2> %pal nprocs 8 end %pal nprocs 64 end
|  3> %geom
|  4> Constraints
|  5>     {A 2 1 0 121.81818181818181 C }
|  6> end
|  7> MaxIter 500
|  8> end
|  9> *xyz 0 1
| 10> O   -0.0007 0.8141 0.0
| 11> C   0.7509 -0.4065 0.0
| 12> C   -0.7502 -0.4076 0.0
| 13> H   1.2625 -0.6786 0.9136
| 14> H   1.2625 -0.6787 -0.9136
| 15> H   -1.2614 -0.6806 -0.9136
| 16> H   -1.2614 -0.6805 0.9136
| 17> *
| 18>
| 19>                          ****END OF INPUT****
 Total Charge           Charge          ....    0
 Multiplicity           Mult            ....    1
 Number of Electrons    NEL             ....   24
Dispersion correction           -0.005768108
FINAL SINGLE POINT ENERGY      -153.609575927179
Dispersion correction             ... done (  0.1 sec)
Dispersion correction           -0.005659771
FINAL SINGLE POINT ENERGY      -153.697481778699
Dispersion correction             ... done (  0.1 sec)
Dispersion correction           -0.005584630
FINAL SINGLE POINT ENERGY      -153.720103691654
Dispersion correction             ... done (  0.1 sec)
FINAL SINGLE POINT ENERGY      -153.733024374846
FINAL SINGLE POINT ENERGY      -153.742191284042
FINAL SINGLE POINT ENERGY      -153.746478343522
FINAL SINGLE POINT ENERGY      -153.749475436652
FINAL SINGLE POINT ENERGY      -153.757356232338
FINAL SINGLE POINT ENERGY      -153.767879759432
FINAL SINGLE POINT ENERGY      -153.780344975869
FINAL SINGLE POINT ENERGY      -153.931501765375
FINAL SINGLE POINT ENERGY      -153.931554981283
FINAL SINGLE POINT ENERGY      -153.931589958147
FINAL SINGLE POINT ENERGY      -153.931608275802
FINAL SINGLE POINT ENERGY      -153.931623348399
FINAL SINGLE POINT ENERGY      -153.931626108184
FINAL SINGLE POINT ENERGY      -153.931630181244
Dispersion correction             ... done (  0.1 sec)
Dispersion correction           -0.005542129
FINAL SINGLE POINT ENERGY      -153.931630646479
Dispersion correction             ... done (  0.1 sec)
Dispersion correction           -0.005542373
FINAL SINGLE POINT ENERGY      -153.931631026697
Dispersion correction             ... done (  0.0 sec)
                    ***********************HURRAY********************

CARTESIAN COORDINATES (ANGSTROEM)
---------------------------------
  O      0.505157    1.343700    0.089365
  C      0.560226    0.196783   -0.269945
  C     -0.426056   -0.830413    0.206643
  H      0.101042   -1.644460    0.706301
  H      1.345128   -0.144053   -0.969339
  H     -0.944825   -1.268023   -0.647478
  H     -1.138472   -0.371933    0.884453

 Multiplicity           Mult            ....    1
 Number of Electrons    NEL             ....   24
 Basis Dimension        Dim             ....  182

ORBITAL ENERGIES
----------------

  NO   OCC          E(Eh)            E(eV)
   0   2.0000     -19.338590      -526.2298
   1   2.0000     -10.442891      -284.1655
   2   2.0000     -10.355457      -281.7863
   3   2.0000      -1.187654       -32.3177
   4   2.0000      -0.880821       -23.9684
   5   2.0000      -0.704445       -19.1689
   6   2.0000      -0.598543       -16.2872
   7   2.0000      -0.559329       -15.2201
   8   2.0000      -0.551777       -15.0146
   9   2.0000      -0.507822       -13.8185
  10   2.0000      -0.474815       -12.9204
  11   2.0000      -0.368572       -10.0293
  12   0.0000       0.038172         1.0387
  13   0.0000       0.053616         1.4590
  14   0.0000       0.059145         1.6094
  15   0.0000       0.083782         2.2798
  16   0.0000       0.086527         2.3545

MULLIKEN ATOMIC CHARGES
-----------------------
   0 O :   -0.474565
   1 C :    0.238210
   2 C :   -0.695556
   3 H :    0.223935
   4 H :    0.242963
   5 H :    0.223646
   6 H :    0.241368
Sum of atomic charges:    0.0000000

LOEWDIN ATOMIC CHARGES
----------------------
   0 O :    0.064183
   1 C :   -0.221089
   2 C :    0.167271
   3 H :   -0.012175
   4 H :    0.023383
   5 H :   -0.012166
   6 H :   -0.009407

  Mayer bond orders larger than 0.100000
B(  0-O ,  1-C ) :   1.7708 B(  1-C ,  2-C ) :   0.7647 B(  1-C ,  4-H ) :   0.9836
B(  2-C ,  3-H ) :   0.9933 B(  2-C ,  5-H ) :   0.9931 B(  2-C ,  6-H ) :   0.9575

Dispersion correction           -0.005542318
FINAL SINGLE POINT ENERGY      -153.931631056681

DIPOLE MOMENT
-------------

Method             : SCF
Type of density    : Electron Density
Multiplicity       :   1
Irrep              :   0
Energy             :  -153.9260887382905594 Eh
Relativity type    :
Basis              : AO
                                X                 Y                 Z
Electronic contribution:      1.263516048       2.999238854      -0.145266742
Nuclear contribution   :     -1.364350334      -4.088752571      -0.078133532
                        -----------------------------------------
Total Dipole Moment    :     -0.100834286      -1.089513717      -0.223400274
                        -----------------------------------------
Magnitude (a.u.)       :      1.116743200
Magnitude (Debye)      :      2.838535633

Rotational constants in cm-1:             1.841724             0.347971             0.309281
Rotational constants in MHz :         55213.489770         10431.915246          9272.015359

                             ****ORCA TERMINATED NORMALLY****
TOTAL RUN TIME: 0 days 0 hours 10 minutes 12 seconds 986 msec
