                         Program Version 6.0.0  -   RELEASE  -
|  1> ! Engrad def2-TZVPPD wB97M-D3BJ
|  2> %pal nprocs 8 end%pal nprocs 64 end
|  3> %tddft
|  4>  Iroot 1 Nroots 3
|  5> sf true
|  6> end
|  7> *xyz 0 3
|  8> O   -0.55925753 0.71951548 0.08150195
|  9> C   0.71639702 0.26264691 0.48559275
| 10> C   1.16124974 -0.87051953 -0.3677687
| 11> H   0.59275429 0.10674083 1.57163525
| 12> H   1.46124064 1.11937692 0.44512428
| 13> H   0.67387308 -1.83242726 -0.32660307
| 14> H   1.9594686 -0.76637245 -1.06846941
| 15> *
| 16>
| 17>                          ****END OF INPUT****

CARTESIAN COORDINATES (ANGSTROEM)
---------------------------------
  O     -0.559258    0.719515    0.081502
  C      0.716397    0.262647    0.485593
  C      1.161250   -0.870520   -0.367769
  H      0.592754    0.106741    1.571635
  H      1.461241    1.119377    0.445124
  H      0.673873   -1.832427   -0.326603
  H      1.959469   -0.766372   -1.068469

 Total Charge           Charge          ....    0
 Multiplicity           Mult            ....    3
 Number of Electrons    NEL             ....   24
 Basis Dimension        Dim             ....  182

ORBITAL ENERGIES
----------------
                 SPIN UP ORBITALS
  NO   OCC          E(Eh)            E(eV)
   0   1.0000     -19.389429      -527.6132
   1   1.0000     -10.418295      -283.4962
   2   1.0000     -10.368063      -282.1293
   3   1.0000      -1.154142       -31.4058
   4   1.0000      -0.874098       -23.7854
   5   1.0000      -0.738511       -20.0959
   6   1.0000      -0.611155       -16.6304
   7   1.0000      -0.580544       -15.7974
   8   1.0000      -0.546272       -14.8648
   9   1.0000      -0.519467       -14.1354
  10   1.0000      -0.437007       -11.8916
  11   1.0000      -0.416238       -11.3264
  12   1.0000      -0.330188        -8.9849
  13   0.0000       0.041393         1.1264
  14   0.0000       0.060762         1.6534
  15   0.0000       0.077726         2.1150
  16   0.0000       0.088859         2.4180
  17   0.0000       0.115249         3.1361

                 SPIN DOWN ORBITALS
  NO   OCC          E(Eh)            E(eV)
   0   1.0000     -19.364170      -526.9258
   1   1.0000     -10.419759      -283.5361
   2   1.0000     -10.355117      -281.7771
   3   1.0000      -1.096268       -29.8310
   4   1.0000      -0.840808       -22.8796
   5   1.0000      -0.713144       -19.4056
   6   1.0000      -0.580691       -15.8014
   7   1.0000      -0.554666       -15.0932
   8   1.0000      -0.517293       -14.0763
   9   1.0000      -0.485155       -13.2017
  10   1.0000      -0.384072       -10.4511
  11   0.0000      -0.050868        -1.3842
  12   0.0000      -0.005732        -0.1560
  13   0.0000       0.040202         1.0940
  14   0.0000       0.061003         1.6600
  15   0.0000       0.077628         2.1124

----------------------------------------------------------------------------------------------------
          SPIN FLIP ABSORPTION SPECTRUM VIA TRANSITION ELECTRIC DIPOLE MOMENTS
----------------------------------------------------------------------------------------------------
     Transition      Energy     Energy  Wavelength fosc(D2)      D2        DX        DY        DZ
                      (eV)      (cm-1)    (nm)                 (au**2)    (au)      (au)      (au)
----------------------------------------------------------------------------------------------------
  1-3A  ->  2-3A    0.128174    1033.8  9673.1   0.000079578   0.02534   0.11738  -0.07004  -0.08159
  1-3A  ->  3-3A    1.035894    8355.0  1196.9   0.000754022   0.02971   0.16757   0.00052   0.04037

Dispersion correction             ... done (  0.2 sec)

MULLIKEN ATOMIC CHARGES AND SPIN DENSITIES
------------------------------------------
   0 O :   -0.399582   -0.519730
   1 C :   -0.028066   -0.003602
   2 C :   -0.451882    0.439027
   3 H :    0.202196    0.057840
   4 H :    0.194097   -0.032762
   5 H :    0.253223    0.033636
   6 H :    0.230014    0.025589
Sum of atomic charges       :   -0.0000000

LOEWDIN ATOMIC CHARGES AND SPIN DENSITIES
-----------------------------------------
   0 O :   -0.042383   -0.516031
   1 C :   -0.279924    0.027105
   2 C :    0.348835    0.400185
   3 H :    0.021001    0.026780
   4 H :    0.032731   -0.033235
   5 H :   -0.034710    0.047416
   6 H :   -0.045550    0.047780

  Mayer bond orders larger than 0.100000
B(  0-O ,  1-C ) :   0.8140 B(  0-O ,  2-C ) :   0.4261 B(  1-C ,  2-C ) :   0.8007
B(  1-C ,  3-H ) :   0.9922 B(  1-C ,  4-H ) :   0.9972 B(  2-C ,  5-H ) :   0.9396
B(  2-C ,  6-H ) :   0.9381

Dispersion correction           -0.005447619
FINAL SINGLE POINT ENERGY      -153.754569292142

DIPOLE MOMENT
-------------

Method             : TDA/CIS
Type of density    : Electron Density
Level              : Relaxed density
State              :   1
Multiplicity       :   3
Irrep              :   0
Energy             :     0.0000000000000000 Eh
Relativity type    :
Basis              : AO
                                X                 Y                 Z
Electronic contribution:     -1.726787094       0.816425743      -0.198886004
Nuclear contribution   :      2.821688320      -1.518921959       0.298318846
                        -----------------------------------------
Total Dipole Moment    :      1.094901226      -0.702496216       0.099432843
                        -----------------------------------------
Magnitude (a.u.)       :      1.304682536
Magnitude (Debye)      :      3.316239460

Rotational constants in cm-1:             1.329450             0.348440             0.305586
Rotational constants in MHz :         39855.897644         10445.961287          9161.245538

                             ****ORCA TERMINATED NORMALLY****
TOTAL RUN TIME: 0 days 0 hours 0 minutes 27 seconds 195 msec
