                         Program Version 6.0.0  -   RELEASE  -
|  1> ! Engrad def2-TZVPPD wB97M-D3BJ
|  2> %pal nprocs 8 end%pal nprocs 32 end
|  3> %tddft Nroots 2 Iroot 1
|  4> sf true
|  5> end
|  6> *xyz 0 3
|  7> O   0.55767619 1.10696917 0.27675883
|  8> C   0.58294946 -0.21953779 0.01520749
|  9> C   -0.77350495 -0.73701747 0.02074626
| 10> H   1.24766662 -0.73818046 0.74647593
| 11> H   1.0878031 -0.35322341 -0.93846145
| 12> H   -1.19659652 -1.29803259 -0.77689403
| 13> H   -1.4251465 -0.31988453 0.76999638
| 14> *
| 15>
| 16>                          ****END OF INPUT****

CARTESIAN COORDINATES (ANGSTROEM)
---------------------------------
  O      0.557676    1.106969    0.276759
  C      0.582949   -0.219538    0.015207
  C     -0.773505   -0.737017    0.020746
  H      1.247667   -0.738180    0.746476
  H      1.087803   -0.353223   -0.938461
  H     -1.196597   -1.298033   -0.776894
  H     -1.425147   -0.319885    0.769996

 Total Charge           Charge          ....    0
 Multiplicity           Mult            ....    3
 Number of Electrons    NEL             ....   24
 Basis Dimension        Dim             ....  182

ORBITAL ENERGIES
----------------
                 SPIN UP ORBITALS
  NO   OCC          E(Eh)            E(eV)
   0   1.0000     -19.386551      -527.5349
   1   1.0000     -10.408765      -283.2369
   2   1.0000     -10.357629      -281.8454
   3   1.0000      -1.177375       -32.0380
   4   1.0000      -0.878492       -23.9050
   5   1.0000      -0.738403       -20.0930
   6   1.0000      -0.621869       -16.9219
   7   1.0000      -0.595800       -16.2125
   8   1.0000      -0.555252       -15.1092
   9   1.0000      -0.514380       -13.9970
  10   1.0000      -0.440301       -11.9812
  11   1.0000      -0.416261       -11.3270
  12   1.0000      -0.319718        -8.7000
  13   0.0000       0.041826         1.1381
  14   0.0000       0.062074         1.6891
  15   0.0000       0.078102         2.1253
  16   0.0000       0.086463         2.3528
  17   0.0000       0.112877         3.0715

                 SPIN DOWN ORBITALS
  NO   OCC          E(Eh)            E(eV)
   0   1.0000     -19.362735      -526.8868
   1   1.0000     -10.410126      -283.2739
   2   1.0000     -10.344589      -281.4906
   3   1.0000      -1.124693       -30.6044
   4   1.0000      -0.844877       -22.9903
   5   1.0000      -0.712463       -19.3871
   6   1.0000      -0.592395       -16.1199
   7   1.0000      -0.552107       -15.0236
   8   1.0000      -0.532518       -14.4906
   9   1.0000      -0.490712       -13.3529
  10   1.0000      -0.383614       -10.4387
  11   0.0000      -0.055711        -1.5160
  12   0.0000       0.002521         0.0686
  13   0.0000       0.040609         1.1050
  14   0.0000       0.062180         1.6920
  15   0.0000       0.077789         2.1167

----------------------------------------------------------------------------------------------------
          SPIN FLIP ABSORPTION SPECTRUM VIA TRANSITION ELECTRIC DIPOLE MOMENTS
----------------------------------------------------------------------------------------------------
     Transition      Energy     Energy  Wavelength fosc(D2)      D2        DX        DY        DZ
                      (eV)      (cm-1)    (nm)                 (au**2)    (au)      (au)      (au)
----------------------------------------------------------------------------------------------------
  1-3A  ->  2-3A    0.362343    2922.5  3421.7   0.000075703   0.00853  -0.08283  -0.01851   0.03639

Dispersion correction             ... done (  0.1 sec)

MULLIKEN ATOMIC CHARGES AND SPIN DENSITIES
------------------------------------------
   0 O :   -0.492928   -0.542163
   1 C :   -0.005536   -0.028929
   2 C :   -0.456183    0.441268
   3 H :    0.223267    0.084229
   4 H :    0.218902   -0.049659
   5 H :    0.231893    0.046562
   6 H :    0.280584    0.048693
Sum of atomic charges       :    0.0000000

LOEWDIN ATOMIC CHARGES AND SPIN DENSITIES
-----------------------------------------
   0 O :   -0.053427   -0.539009
   1 C :   -0.332377    0.018277
   2 C :    0.376598    0.425916
   3 H :    0.045219    0.034274
   4 H :    0.026162   -0.045473
   5 H :   -0.036541    0.054309
   6 H :   -0.025636    0.051706

  Mayer bond orders larger than 0.100000
B(  0-O ,  1-C ) :   0.9362 B(  0-O ,  2-C ) :   0.4251 B(  1-C ,  2-C ) :   0.8203
B(  1-C ,  3-H ) :   0.9704 B(  1-C ,  4-H ) :   0.9494 B(  2-C ,  5-H ) :   0.9560
B(  2-C ,  6-H ) :   0.9394

Dispersion correction           -0.005582580
FINAL SINGLE POINT ENERGY      -153.763491936817

DIPOLE MOMENT
-------------

Method             : TDA/CIS
Type of density    : Electron Density
Level              : Relaxed density
State              :   1
Multiplicity       :   3
Irrep              :   0
Energy             :     0.0000000000000000 Eh
Relativity type    :
Basis              : AO
                                X                 Y                 Z
Electronic contribution:      0.317535634       1.453473511       0.287823382
Nuclear contribution   :     -0.802958005      -2.823939815      -0.580960562
                        -----------------------------------------
Total Dipole Moment    :     -0.485422371      -1.370466303      -0.293137180
                        -----------------------------------------
Magnitude (a.u.)       :      1.483152782
Magnitude (Debye)      :      3.769874774

Rotational constants in cm-1:             1.377685             0.383298             0.326975
Rotational constants in MHz :         41301.959796         11490.979466          9802.466769

                             ****ORCA TERMINATED NORMALLY****
TOTAL RUN TIME: 0 days 0 hours 0 minutes 17 seconds 790 msec
