                         Program Version 6.0.0  -   RELEASE  -
|  1> ! Engrad def2-TZVPPD wB97M-D3BJ
|  2> %pal nprocs 8 end%pal nprocs 64 end
|  3> %tddft
|  4> Iroot 1 Nroots 3
|  5> sf true
|  6> end
|  7> *xyz 0 3
|  8> O   2.7844183721668334 0.9638129365534216 -0.6109764077484587
|  9> O   -0.522944208590778 1.0113644258628158 -2.329284931939488
| 10> O   0.5082459109064633 -2.8844653924785413 -1.1456372325798978
| 11> O   -2.8659631175193834 -1.527552414438179 0.5007813431355905
| 12> N   0.45483176856160545 -1.872059418559867 0.8290571535812439
| 13> N   -2.037131833183627 0.33226549919086795 1.2927816366188694
| 14> N   1.638973746172656 -0.9511873965412446 -0.8566794729982135
| 15> N   -1.6120692122732279 -0.2917091446122228 -0.8696741535126008
| 16> C   1.4677816268010042 0.262110339951594 1.124567340006556
| 17> C   -0.6875035903647297 1.705211671987206 -0.09618697329070262
| 18> C   0.6354580391177895 -0.7412961649453842 1.5885298979794065
| 19> C   -1.0846507479619736 1.2814032732581595 1.161454905950206
| 20> C   1.9607566731109716 1.2560535327529352 2.0214483344394747
| 21> C   -0.3790020204372452 3.0715444138095522 -0.3318699320978082
| 22> C   2.0373115772882135 0.14342647937272227 -0.1686676320035654
| 23> C   -0.9082344970823515 0.8268939698692271 -1.2098181847053882
| 24> C   0.8410192592511927 -1.968024745340755 -0.45347555450858384
| 25> C   -2.204370936184961 -0.5536404359832338 0.3172043040311805
| 26> H   0.5839818959676869 -0.9368505786471704 2.6462147547816226
| 27> H   -1.1312241910591276 2.012748582021276 1.946042652844139
| 28> H   1.9844994577160906 2.2257502825878808 1.5309347056131937
| 29> H   1.395623607680787 1.398882112077623 2.943013245608756
| 30> H   2.976476925024936 1.1363383434043717 2.392723971331212
| 31> H   -1.253148822999082 3.5028963909868622 -0.8229785588996619
| 32> H   -0.10352124990119056 3.7237897510653055 0.4872838494649547
| 33> H   0.4321882700404706 3.1836033078961194 -1.048257348926815
| 34> H   -0.1977777837275641 -2.575779147889873 1.1120286164898325
| 35> H   -2.444646447876433 0.14138257174735888 2.182726828503639
| 36> H   1.9398004223275207 -1.009973880208224 -1.8143278373534244
| 37> H   -1.756578892972556 -0.9519391647506683 -1.6143593198152633
| 38> *
| 39>
| 40>                          ****END OF INPUT****

CARTESIAN COORDINATES (ANGSTROEM)
---------------------------------
  O      2.784418    0.963813   -0.610976
  O     -0.522944    1.011364   -2.329285
  O      0.508246   -2.884465   -1.145637
  O     -2.865963   -1.527552    0.500781
  N      0.454832   -1.872059    0.829057
  N     -2.037132    0.332265    1.292782
  N      1.638974   -0.951187   -0.856679
  N     -1.612069   -0.291709   -0.869674
  C      1.467782    0.262110    1.124567
  C     -0.687504    1.705212   -0.096187
  C      0.635458   -0.741296    1.588530
  C     -1.084651    1.281403    1.161455
  C      1.960757    1.256054    2.021448
  C     -0.379002    3.071544   -0.331870
  C      2.037312    0.143426   -0.168668
  C     -0.908234    0.826894   -1.209818
  C      0.841019   -1.968025   -0.453476
  C     -2.204371   -0.553640    0.317204
  H      0.583982   -0.936851    2.646215
  H     -1.131224    2.012749    1.946043
  H      1.984499    2.225750    1.530935
  H      1.395624    1.398882    2.943013
  H      2.976477    1.136338    2.392724
  H     -1.253149    3.502896   -0.822979
  H     -0.103521    3.723790    0.487284
  H      0.432188    3.183603   -1.048257
  H     -0.197778   -2.575779    1.112029
  H     -2.444646    0.141383    2.182727
  H      1.939800   -1.009974   -1.814328
  H     -1.756579   -0.951939   -1.614359

 Total Charge           Charge          ....    0
 Multiplicity           Mult            ....    3
 Number of Electrons    NEL             ....  132
 Basis Dimension        Dim             ....  882

ORBITAL ENERGIES
----------------
                 SPIN UP ORBITALS
  NO   OCC          E(Eh)            E(eV)
   0   1.0000     -19.322112      -525.7814
   1   1.0000     -19.320865      -525.7475
   2   1.0000     -19.316545      -525.6299
   3   1.0000     -19.310518      -525.4659
   4   1.0000     -14.579042      -396.7159
   5   1.0000     -14.578768      -396.7085
   6   1.0000     -14.561593      -396.2411
   7   1.0000     -14.557698      -396.1351
   8   1.0000     -10.500013      -285.7199
   9   1.0000     -10.499473      -285.7052
  10   1.0000     -10.463059      -284.7143
  11   1.0000     -10.462115      -284.6886
  12   1.0000     -10.437332      -284.0142
  13   1.0000     -10.399426      -282.9828
  14   1.0000     -10.398797      -282.9657
  15   1.0000     -10.377524      -282.3868
  16   1.0000     -10.359313      -281.8912
  17   1.0000     -10.351861      -281.6885
  18   1.0000      -1.243888       -33.8479
  19   1.0000      -1.234034       -33.5798
  20   1.0000      -1.203654       -32.7531
  21   1.0000      -1.197195       -32.5773
  22   1.0000      -1.135348       -30.8944
  23   1.0000      -1.126750       -30.6604
  24   1.0000      -1.080639       -29.4057
  25   1.0000      -1.077619       -29.3235
  26   1.0000      -0.982708       -26.7408
  27   1.0000      -0.963406       -26.2156
  28   1.0000      -0.859361       -23.3844
  29   1.0000      -0.855134       -23.2694
  30   1.0000      -0.825147       -22.4534
  31   1.0000      -0.817476       -22.2446
  32   1.0000      -0.805340       -21.9144
  33   1.0000      -0.800113       -21.7722
  34   1.0000      -0.707965       -19.2647
  35   1.0000      -0.702924       -19.1275
  36   1.0000      -0.700219       -19.0539
  37   1.0000      -0.694684       -18.9033
  38   1.0000      -0.660849       -17.9826
  39   1.0000      -0.641077       -17.4446
  40   1.0000      -0.638236       -17.3673
  41   1.0000      -0.608015       -16.5449
  42   1.0000      -0.596151       -16.2221
  43   1.0000      -0.592359       -16.1189
  44   1.0000      -0.584205       -15.8970
  45   1.0000      -0.568973       -15.4826
  46   1.0000      -0.564412       -15.3584
  47   1.0000      -0.557779       -15.1779
  48   1.0000      -0.551911       -15.0183
  49   1.0000      -0.549321       -14.9478
  50   1.0000      -0.540082       -14.6964
  51   1.0000      -0.539009       -14.6672
  52   1.0000      -0.535811       -14.5802
  53   1.0000      -0.513024       -13.9601
  54   1.0000      -0.504901       -13.7391
  55   1.0000      -0.492622       -13.4049
  56   1.0000      -0.490787       -13.3550
  57   1.0000      -0.465691       -12.6721
  58   1.0000      -0.417396       -11.3579
  59   1.0000      -0.411530       -11.1983
  60   1.0000      -0.411057       -11.1854
  61   1.0000      -0.400772       -10.9056
  62   1.0000      -0.388904       -10.5826
  63   1.0000      -0.382156       -10.3990
  64   1.0000      -0.378261       -10.2930
  65   1.0000      -0.329037        -8.9536
  66   1.0000      -0.228462        -6.2168
  67   0.0000       0.004776         0.1299
  68   0.0000       0.010045         0.2734
  69   0.0000       0.030445         0.8284
  70   0.0000       0.036862         1.0031
  71   0.0000       0.039048         1.0625

                 SPIN DOWN ORBITALS
  NO   OCC          E(Eh)            E(eV)
   0   1.0000     -19.319052      -525.6981
   1   1.0000     -19.317969      -525.6687
   2   1.0000     -19.316266      -525.6223
   3   1.0000     -19.309676      -525.4430
   4   1.0000     -14.578347      -396.6970
   5   1.0000     -14.575783      -396.6272
   6   1.0000     -14.561575      -396.2406
   7   1.0000     -14.556859      -396.1123
   8   1.0000     -10.500020      -285.7201
   9   1.0000     -10.499537      -285.7069
  10   1.0000     -10.463346      -284.7221
  11   1.0000     -10.462071      -284.6874
  12   1.0000     -10.436488      -283.9913
  13   1.0000     -10.389479      -282.7121
  14   1.0000     -10.387788      -282.6661
  15   1.0000     -10.376411      -282.3565
  16   1.0000     -10.359593      -281.8989
  17   1.0000     -10.351843      -281.6880
  18   1.0000      -1.240257       -33.7491
  19   1.0000      -1.233265       -33.5589
  20   1.0000      -1.197871       -32.5957
  21   1.0000      -1.195816       -32.5398
  22   1.0000      -1.128407       -30.7055
  23   1.0000      -1.124195       -30.5909
  24   1.0000      -1.077154       -29.3109
  25   1.0000      -1.076185       -29.2845
  26   1.0000      -0.967508       -26.3272
  27   1.0000      -0.955435       -25.9987
  28   1.0000      -0.854497       -23.2521
  29   1.0000      -0.845901       -23.0181
  30   1.0000      -0.819109       -22.2891
  31   1.0000      -0.812314       -22.1042
  32   1.0000      -0.800486       -21.7823
  33   1.0000      -0.799556       -21.7570
  34   1.0000      -0.701424       -19.0867
  35   1.0000      -0.700311       -19.0564
  36   1.0000      -0.693514       -18.8715
  37   1.0000      -0.688622       -18.7383
  38   1.0000      -0.650356       -17.6971
  39   1.0000      -0.636887       -17.3306
  40   1.0000      -0.634922       -17.2771
  41   1.0000      -0.600241       -16.3334
  42   1.0000      -0.590993       -16.0817
  43   1.0000      -0.587692       -15.9919
  44   1.0000      -0.568084       -15.4584
  45   1.0000      -0.564264       -15.3544
  46   1.0000      -0.561028       -15.2664
  47   1.0000      -0.549817       -14.9613
  48   1.0000      -0.548148       -14.9159
  49   1.0000      -0.542282       -14.7562
  50   1.0000      -0.536094       -14.5879
  51   1.0000      -0.530427       -14.4336
  52   1.0000      -0.525601       -14.3023
  53   1.0000      -0.507173       -13.8009
  54   1.0000      -0.496024       -13.4975
  55   1.0000      -0.491629       -13.3779
  56   1.0000      -0.473425       -12.8825
  57   1.0000      -0.447155       -12.1677
  58   1.0000      -0.413247       -11.2450
  59   1.0000      -0.410628       -11.1738
  60   1.0000      -0.397938       -10.8284
  61   1.0000      -0.391712       -10.6590
  62   1.0000      -0.382795       -10.4164
  63   1.0000      -0.380556       -10.3555
  64   1.0000      -0.334029        -9.0894
  65   0.0000      -0.087775        -2.3885
  66   0.0000       0.004934         0.1342
  67   0.0000       0.009980         0.2716
  68   0.0000       0.027620         0.7516
  69   0.0000       0.035524         0.9667

----------------------------------------------------------------------------------------------------
          SPIN FLIP ABSORPTION SPECTRUM VIA TRANSITION ELECTRIC DIPOLE MOMENTS
----------------------------------------------------------------------------------------------------
     Transition      Energy     Energy  Wavelength fosc(D2)      D2        DX        DY        DZ
                      (eV)      (cm-1)    (nm)                 (au**2)    (au)      (au)      (au)
----------------------------------------------------------------------------------------------------
  1-3A  ->  2-3A    2.952903   23816.8   419.9   0.000847387   0.01171  -0.05251   0.09067   0.02709
  1-3A  ->  3-1A    3.688889   29752.9   336.1   0.079527652   0.87996  -0.20199  -0.16523   0.90103

Dispersion correction             ... done (  0.1 sec)

MULLIKEN ATOMIC CHARGES AND SPIN DENSITIES
------------------------------------------
   0 O :   -0.680228    0.004000
   1 O :   -0.684249    0.014405
   2 O :   -0.656469    0.002047
   3 O :   -0.666998    0.003719
   4 N :   -0.057798    0.002034
   5 N :   -0.043640    0.037373
   6 N :    0.038149    0.001927
   7 N :    0.064331    0.004285
   8 C :    0.905764   -0.000658
   9 C :    1.086411    0.363072
  10 C :    0.055492    0.029783
  11 C :    0.038419   -0.266371
  12 C :   -1.609798    0.000122
  13 C :   -1.657308    0.030201
  14 C :    0.381683   -0.018375
  15 C :    0.250417   -0.238609
  16 C :    0.423991    0.002698
  17 C :    0.342110    0.014645
  18 H :    0.222906   -0.002236
  19 H :    0.198243   -0.000107
  20 H :    0.278225    0.002582
  21 H :    0.301625    0.000394
  22 H :    0.354829   -0.000560
  23 H :    0.361065    0.002449
  24 H :    0.377647    0.005000
  25 H :    0.301738    0.003993
  26 H :    0.033933    0.000289
  27 H :    0.037416   -0.000549
  28 H :   -0.005820    0.000179
  29 H :    0.007912    0.002270
Sum of atomic charges       :   -0.0000000

LOEWDIN ATOMIC CHARGES AND SPIN DENSITIES
-----------------------------------------
   0 O :    0.132083    0.004699
   1 O :    0.114577    0.011885
   2 O :    0.109263    0.001820
   3 O :    0.107512    0.002380
   4 N :    0.284305    0.003580
   5 N :    0.293737    0.009137
   6 N :    0.361739    0.000375
   7 N :    0.356838   -0.000245
   8 C :   -0.173200    0.011401
   9 C :   -0.160746   -0.032770
  10 C :    0.063051    0.004072
  11 C :    0.052694   -0.021711
  12 C :    0.152252    0.000532
  13 C :    0.153240   -0.003362
  14 C :   -0.447573    0.002068
  15 C :   -0.446643    0.005381
  16 C :   -0.527469    0.000318
  17 C :   -0.542379   -0.000780
  18 H :    0.040619    0.000378
  19 H :    0.039821   -0.001014
  20 H :    0.001369    0.000132
  21 H :    0.004792   -0.000108
  22 H :    0.014078    0.000321
  23 H :    0.016384   -0.000507
  24 H :    0.003182    0.000198
  25 H :    0.006800    0.000274
  26 H :   -0.017310    0.000314
  27 H :   -0.007216    0.000988
  28 H :    0.008469    0.000095
  29 H :    0.005731    0.000150

  Mayer bond orders larger than 0.100000
B(  0-O , 14-C ) :   1.3293 B(  1-O , 15-C ) :   1.3884 B(  2-O , 16-C ) :   1.5225
B(  3-O , 17-C ) :   1.5440 B(  4-N ,  8-C ) :   0.1461 B(  4-N , 10-C ) :   0.6849
B(  4-N , 16-C ) :   1.0126 B(  4-N , 26-H ) :   1.1255 B(  5-N ,  9-C ) :   0.1078
B(  5-N , 11-C ) :   0.7050 B(  5-N , 17-C ) :   1.0878 B(  5-N , 27-H ) :   1.1136
B(  6-N ,  8-C ) :  -0.1204 B(  6-N , 14-C ) :   1.0869 B(  6-N , 15-C ) :   0.1135
B(  6-N , 16-C ) :   0.9350 B(  6-N , 28-H ) :   1.1293 B(  7-N , 15-C ) :   0.9545
B(  7-N , 17-C ) :   0.9769 B(  7-N , 29-H ) :   1.1365 B(  8-C ,  9-C ) :   0.1153
B(  8-C , 10-C ) :   1.0242 B(  8-C , 12-C ) :   0.1138 B(  8-C , 14-C ) :   0.7002
B(  8-C , 20-H ) :  -0.1070 B(  8-C , 21-H ) :  -0.1635 B(  9-C , 11-C ) :   1.1878
B(  9-C , 13-C ) :   0.2384 B(  9-C , 15-C ) :   0.5022 B(  9-C , 25-H ) :  -0.1511
B( 10-C , 12-C ) :  -0.1421 B( 10-C , 18-H ) :   1.0958 B( 11-C , 13-C ) :  -0.1357
B( 11-C , 17-C ) :  -0.1952 B( 11-C , 19-H ) :   1.0757 B( 12-C , 20-H ) :   0.9605
B( 12-C , 21-H ) :   1.1005 B( 12-C , 22-H ) :   0.8553 B( 13-C , 15-C ) :  -0.1058
B( 13-C , 23-H ) :   0.8461 B( 13-C , 24-H ) :   0.9092 B( 13-C , 25-H ) :   1.0625

Dispersion correction           -0.061725702
FINAL SINGLE POINT ENERGY      -908.843778103330

DIPOLE MOMENT
-------------

Method             : TDA/CIS
Type of density    : Electron Density
Level              : Relaxed density
State              :   1
Multiplicity       :   3
Irrep              :   0
Energy             :     0.0000000000000000 Eh
Relativity type    :
Basis              : AO
                                X                 Y                 Z
Electronic contribution:     -2.777880587     -10.350544929      -6.193155772
Nuclear contribution   :      2.298084515      11.181740819       9.020099382
                        -----------------------------------------
Total Dipole Moment    :     -0.479796071       0.831195890       2.826943610
                        -----------------------------------------
Magnitude (a.u.)       :      2.985414720
Magnitude (Debye)      :      7.588321165

Rotational constants in cm-1:             0.018335             0.016759             0.013652
Rotational constants in MHz :           549.667375           502.422684           409.280284

                             ****ORCA TERMINATED NORMALLY****
TOTAL RUN TIME: 0 days 0 hours 5 minutes 42 seconds 17 msec
