                         Program Version 6.0.0  -   RELEASE  -
|  1> ! Engrad def2-TZVPPD wB97M-D3BJ
|  2> %pal nprocs 8 end%pal nprocs 64 end
|  3> %tddft
|  4>  Iroot 1 Nroots 3
|  5> sf true
|  6> end
|  7> *xyz 0 3
|  8> O   1.12863778 0.73282765 -0.58925623
|  9> C   0.05516809 -0.05648619 -0.24480522
| 10> C   0.05701662 -0.5231451 1.14940011
| 11> H   0.16249119 -0.92493401 -0.93911033
| 12> H   -0.7833918 0.60378068 -0.51881844
| 13> H   0.7581954 -1.39080336 1.39948453
| 14> H   -0.67650544 -0.32606301 1.82661331
| 15> *
| 16>
| 17>                          ****END OF INPUT****

CARTESIAN COORDINATES (ANGSTROEM)
---------------------------------
  O      1.128638    0.732828   -0.589256
  C      0.055168   -0.056486   -0.244805
  C      0.057017   -0.523145    1.149400
  H      0.162491   -0.924934   -0.939110
  H     -0.783392    0.603781   -0.518818
  H      0.758195   -1.390803    1.399485
  H     -0.676505   -0.326063    1.826613

 Total Charge           Charge          ....    0
 Multiplicity           Mult            ....    3
 Number of Electrons    NEL             ....   24
 Basis Dimension        Dim             ....  182

ORBITAL ENERGIES
----------------
                 SPIN UP ORBITALS
  NO   OCC          E(Eh)            E(eV)
   0   1.0000     -19.383122      -527.4416
   1   1.0000     -10.412987      -283.3518
   2   1.0000     -10.367264      -282.1076
   3   1.0000      -1.166090       -31.7309
   4   1.0000      -0.878496       -23.9051
   5   1.0000      -0.732092       -19.9212
   6   1.0000      -0.629508       -17.1298
   7   1.0000      -0.581450       -15.8221
   8   1.0000      -0.550605       -14.9827
   9   1.0000      -0.519010       -14.1230
  10   1.0000      -0.433969       -11.8089
  11   1.0000      -0.407794       -11.0966
  12   1.0000      -0.332894        -9.0585
  13   0.0000       0.041389         1.1263
  14   0.0000       0.061833         1.6826
  15   0.0000       0.075573         2.0565
  16   0.0000       0.089133         2.4254
  17   0.0000       0.114346         3.1115

                 SPIN DOWN ORBITALS
  NO   OCC          E(Eh)            E(eV)
   0   1.0000     -19.358516      -526.7720
   1   1.0000     -10.414293      -283.3873
   2   1.0000     -10.354240      -281.7532
   3   1.0000      -1.111226       -30.2380
   4   1.0000      -0.844940       -22.9920
   5   1.0000      -0.704958       -19.1829
   6   1.0000      -0.598132       -16.2760
   7   1.0000      -0.555284       -15.1100
   8   1.0000      -0.520530       -14.1644
   9   1.0000      -0.488273       -13.2866
  10   1.0000      -0.377744       -10.2789
  11   0.0000      -0.047162        -1.2833
  12   0.0000      -0.007654        -0.2083
  13   0.0000       0.040771         1.1094
  14   0.0000       0.061699         1.6789
  15   0.0000       0.075507         2.0546

----------------------------------------------------------------------------------------------------
          SPIN FLIP ABSORPTION SPECTRUM VIA TRANSITION ELECTRIC DIPOLE MOMENTS
----------------------------------------------------------------------------------------------------
     Transition      Energy     Energy  Wavelength fosc(D2)      D2        DX        DY        DZ
                      (eV)      (cm-1)    (nm)                 (au**2)    (au)      (au)      (au)
----------------------------------------------------------------------------------------------------
  1-3A  ->  2-3A    0.102520     826.9  12093.6   0.000109724   0.04369  -0.04646  -0.02879   0.20174
  1-3A  ->  3-3A    0.806950    6508.5  1536.5   0.002676054   0.13536   0.20213   0.14957  -0.26858

Dispersion correction             ... done (  0.1 sec)

MULLIKEN ATOMIC CHARGES AND SPIN DENSITIES
------------------------------------------
   0 O :   -0.358940    0.392218
   1 C :   -0.069387    0.017465
   2 C :   -0.313205   -0.429858
   3 H :    0.188560    0.027270
   4 H :    0.210020    0.047636
   5 H :    0.131975   -0.051729
   6 H :    0.210977   -0.003002
Sum of atomic charges       :    0.0000000

LOEWDIN ATOMIC CHARGES AND SPIN DENSITIES
-----------------------------------------
   0 O :    0.017618    0.361026
   1 C :   -0.276790    0.010816
   2 C :    0.313009   -0.327034
   3 H :    0.035212    0.013530
   4 H :    0.041645    0.034346
   5 H :   -0.005802   -0.036846
   6 H :   -0.124893   -0.055839

  Mayer bond orders larger than 0.100000
B(  0-O ,  1-C ) :   0.8681 B(  0-O ,  2-C ) :   0.1788 B(  1-C ,  2-C ) :   0.8590
B(  1-C ,  3-H ) :   0.9809 B(  1-C ,  4-H ) :   0.9194 B(  2-C ,  5-H ) :   1.0222
B(  2-C ,  6-H ) :   0.9824

Dispersion correction           -0.005493323
FINAL SINGLE POINT ENERGY      -153.744696138182

DIPOLE MOMENT
-------------

Method             : TDA/CIS
Type of density    : Electron Density
Level              : Relaxed density
State              :   1
Multiplicity       :   3
Irrep              :   0
Energy             :     0.0000000000000000 Eh
Relativity type    :
Basis              : AO
                                X                 Y                 Z
Electronic contribution:      1.346017493       1.595081862      -1.134027613
Nuclear contribution   :     -2.102211131      -2.132797275       1.374768544
                        -----------------------------------------
Total Dipole Moment    :     -0.756193639      -0.537715413       0.240740932
                        -----------------------------------------
Magnitude (a.u.)       :      0.958604653
Magnitude (Debye)      :      2.436579389

Rotational constants in cm-1:             1.503211             0.340765             0.310256
Rotational constants in MHz :         45065.136538         10215.867683          9301.241482

                             ****ORCA TERMINATED NORMALLY****
TOTAL RUN TIME: 0 days 0 hours 0 minutes 26 seconds 930 msec
