                         Program Version 6.0.0  -   RELEASE  -
|  1> ! Engrad wB97M-D3BJ def2-TZVPPD
|  2> %pal nprocs 8 end%pal nprocs 16 end
|  3> %tddft nroots 2 Iroot 1
|  4>  sf true
|  5> end
|  6> *xyz 0 3
|  7> O   0.67843200005769 0.9979416587341 -0.00020129111237
|  8> C   0.76253753123645 -0.33805614366175 -0.00010035236799
|  9> C   -0.64783849020885 -0.59213739353425 0.00010821351339
| 10> H   1.26737367370552 -0.75430047133985 0.88354806057767
| 11> H   1.2671308292176 -0.75459987712288 -0.88375679480974
| 12> H   -1.20511130407995 -0.53715098776292 -0.92436370017504
| 13> H   -1.2047588112479 -0.53665947604082 0.92476586437408
| 14> *
| 15>
| 16>                          ****END OF INPUT****

CARTESIAN COORDINATES (ANGSTROEM)
---------------------------------
  O      0.678432    0.997942   -0.000201
  C      0.762538   -0.338056   -0.000100
  C     -0.647838   -0.592137    0.000108
  H      1.267374   -0.754300    0.883548
  H      1.267131   -0.754600   -0.883757
  H     -1.205111   -0.537151   -0.924364
  H     -1.204759   -0.536659    0.924766

 Total Charge           Charge          ....    0
 Multiplicity           Mult            ....    3
 Number of Electrons    NEL             ....   24
 Basis Dimension        Dim             ....  182

ORBITAL ENERGIES
----------------
                 SPIN UP ORBITALS
  NO   OCC          E(Eh)            E(eV)
   0   1.0000     -19.399820      -527.8959
   1   1.0000     -10.406777      -283.1828
   2   1.0000     -10.346049      -281.5303
   3   1.0000      -1.200809       -32.6757
   4   1.0000      -0.871689       -23.7199
   5   1.0000      -0.737232       -20.0611
   6   1.0000      -0.638614       -17.3776
   7   1.0000      -0.599439       -16.3116
   8   1.0000      -0.553591       -15.0640
   9   1.0000      -0.511539       -13.9197
  10   1.0000      -0.444025       -12.0825
  11   1.0000      -0.429047       -11.6750
  12   1.0000      -0.296439        -8.0665
  13   0.0000       0.041185         1.1207
  14   0.0000       0.063529         1.7287
  15   0.0000       0.073426         1.9980
  16   0.0000       0.086556         2.3553
  17   0.0000       0.117378         3.1940

                 SPIN DOWN ORBITALS
  NO   OCC          E(Eh)            E(eV)
   0   1.0000     -19.373076      -527.1682
   1   1.0000     -10.408047      -283.2174
   2   1.0000     -10.333278      -281.1828
   3   1.0000      -1.143112       -31.1057
   4   1.0000      -0.837773       -22.7970
   5   1.0000      -0.714465       -19.4416
   6   1.0000      -0.598246       -16.2791
   7   1.0000      -0.564626       -15.3643
   8   1.0000      -0.531376       -14.4595
   9   1.0000      -0.476029       -12.9534
  10   1.0000      -0.385858       -10.4997
  11   0.0000      -0.069183        -1.8826
  12   0.0000       0.018640         0.5072
  13   0.0000       0.039961         1.0874
  14   0.0000       0.064238         1.7480
  15   0.0000       0.072668         1.9774

----------------------------------------------------------------------------------------------------
          SPIN FLIP ABSORPTION SPECTRUM VIA TRANSITION ELECTRIC DIPOLE MOMENTS
----------------------------------------------------------------------------------------------------
     Transition      Energy     Energy  Wavelength fosc(D2)      D2        DX        DY        DZ
                      (eV)      (cm-1)    (nm)                 (au**2)    (au)      (au)      (au)
----------------------------------------------------------------------------------------------------
  1-3A  ->  2-3A    1.592995   12848.4   778.3   0.000353895   0.00907   0.00004   0.00005   0.09523

Dispersion correction             ... done (  0.0 sec)

MULLIKEN ATOMIC CHARGES AND SPIN DENSITIES
------------------------------------------
   0 O :   -0.534977   -0.272927
   1 C :   -0.131665   -0.046658
   2 C :   -0.286208    0.181696
   3 H :    0.234106    0.037837
   4 H :    0.234096    0.037826
   5 H :    0.242307    0.031103
   6 H :    0.242341    0.031123
Sum of atomic charges       :    0.0000000

LOEWDIN ATOMIC CHARGES AND SPIN DENSITIES
-----------------------------------------
   0 O :   -0.055826   -0.287523
   1 C :   -0.381724    0.009937
   2 C :    0.386737    0.218194
   3 H :    0.028758    0.006682
   4 H :    0.028762    0.006671
   5 H :   -0.003352    0.023018
   6 H :   -0.003354    0.023021

  Mayer bond orders larger than 0.100000
B(  0-O ,  1-C ) :   0.7622 B(  0-O ,  2-C ) :   0.8017 B(  1-C ,  2-C ) :   0.7742
B(  1-C ,  3-H ) :   1.0216 B(  1-C ,  4-H ) :   1.0215 B(  2-C ,  5-H ) :   0.9413
B(  2-C ,  6-H ) :   0.9413

Dispersion correction           -0.005669416
FINAL SINGLE POINT ENERGY      -153.791829263331

DIPOLE MOMENT
-------------

Method             : TDA/CIS
Type of density    : Electron Density
Level              : Relaxed density
State              :   1
Multiplicity       :   3
Irrep              :   0
Energy             :     0.0000000000000000 Eh
Relativity type    :
Basis              : AO
                                X                 Y                 Z
Electronic contribution:      0.186855649       1.217628006      -0.000193823
Nuclear contribution   :     -0.929875240      -2.595584518       0.000429164
                        -----------------------------------------
Total Dipole Moment    :     -0.743019591      -1.377956512       0.000235341
                        -----------------------------------------
Magnitude (a.u.)       :      1.565516629
Magnitude (Debye)      :      3.979227036

Rotational constants in cm-1:             1.139695             0.455275             0.372760
Rotational constants in MHz :         34167.192975         13648.787175         11175.076185

                             ****ORCA TERMINATED NORMALLY****
TOTAL RUN TIME: 0 days 0 hours 0 minutes 16 seconds 262 msec
