                         Program Version 6.0.0  -   RELEASE  -
|  1> ! Engrad def2-TZVPPD wB97M-D3BJ
|  2> %pal nprocs 8 end%pal nprocs 32 end
|  3>  %tddft nroots 2 Iroot 2
|  4> sf true
|  5> end
|  6> *xyz 0 3
|  7> O   2.55305521082553 1.19046046898773 -0.50197931749017
|  8> O   -0.63046563779062 0.84639624720013 -2.28892500691753
|  9> O   0.57712463413156 -2.76312864146209 -1.54289473865055
| 10> O   -2.45771742691227 -1.61860948477079 1.06230147042985
| 11> N   0.64144347853795 -2.12107834656228 0.64046560436303
| 12> N   -2.01150939567965 0.58222450062507 1.43634824987953
| 13> N   1.67175541536805 -0.84262805346516 -0.97670575999694
| 14> N   -1.6127623348983 -0.34006893535421 -0.63014592802181
| 15> C   1.50049115740821 0.0134284389778 1.26687926697639
| 16> C   -0.90345822792145 1.92573591688507 -0.19055256818406
| 17> C   0.87142584937119 -1.13013921157029 1.5655117302323
| 18> C   -1.43265847393241 1.7636385727976 1.02660768106327
| 19> C   1.76914571661324 1.10167090309356 2.25430215221294
| 20> C   -0.22900150369777 3.17669279345599 -0.65212080435798
| 21> C   1.96670916117757 0.20478607527138 -0.10669944668496
| 22> C   -1.01773840618963 0.81832876091921 -1.14246083053553
| 23> C   0.93811125230563 -1.97499602680398 -0.69770093938353
| 24> C   -2.06268386516301 -0.54643691289714 0.65205666659753
| 25> H   0.4986871966973 -1.33995006924102 2.55675017605906
| 26> H   -1.4133813313579 2.5464546223473 1.76952840829798
| 27> H   1.35521856937787 2.04456012962044 1.90108622727018
| 28> H   1.33438448929111 0.86204369058433 3.22240831010537
| 29> H   2.83912408880724 1.25664141300074 2.3800224215697
| 30> H   -0.71048266962966 3.56332465519956 -1.5479002374158
| 31> H   -0.25879174230768 3.93896580340054 0.12328815127464
| 32> H   0.80944022813305 2.96890991124122 -0.90336890570211
| 33> H   0.00202276550111 -2.86706643364502 0.8554345184308
| 34> H   -2.35082975528617 0.47048081639749 2.37416806785043
| 35> H   1.85867827295684 -0.67627489463807 -1.95387344965045
| 36> H   -1.64273671573697 -1.13936670959513 -1.24723116962156
| 37> *
| 38>
| 39>                          ****END OF INPUT****

CARTESIAN COORDINATES (ANGSTROEM)
---------------------------------
  O      2.553055    1.190460   -0.501979
  O     -0.630466    0.846396   -2.288925
  O      0.577125   -2.763129   -1.542895
  O     -2.457717   -1.618609    1.062301
  N      0.641443   -2.121078    0.640466
  N     -2.011509    0.582225    1.436348
  N      1.671755   -0.842628   -0.976706
  N     -1.612762   -0.340069   -0.630146
  C      1.500491    0.013428    1.266879
  C     -0.903458    1.925736   -0.190553
  C      0.871426   -1.130139    1.565512
  C     -1.432658    1.763639    1.026608
  C      1.769146    1.101671    2.254302
  C     -0.229002    3.176693   -0.652121
  C      1.966709    0.204786   -0.106699
  C     -1.017738    0.818329   -1.142461
  C      0.938111   -1.974996   -0.697701
  C     -2.062684   -0.546437    0.652057
  H      0.498687   -1.339950    2.556750
  H     -1.413381    2.546455    1.769528
  H      1.355219    2.044560    1.901086
  H      1.334384    0.862044    3.222408
  H      2.839124    1.256641    2.380022
  H     -0.710483    3.563325   -1.547900
  H     -0.258792    3.938966    0.123288
  H      0.809440    2.968910   -0.903369
  H      0.002023   -2.867066    0.855435
  H     -2.350830    0.470481    2.374168
  H      1.858678   -0.676275   -1.953873
  H     -1.642737   -1.139367   -1.247231

 Total Charge           Charge          ....    0
 Multiplicity           Mult            ....    3
 Number of Electrons    NEL             ....  132
 Basis Dimension        Dim             ....  882

ORBITAL ENERGIES
----------------
                 SPIN UP ORBITALS
  NO   OCC          E(Eh)            E(eV)
   0   1.0000     -19.332066      -526.0523
   1   1.0000     -19.328086      -525.9440
   2   1.0000     -19.323140      -525.8094
   3   1.0000     -19.317996      -525.6694
   4   1.0000     -14.592369      -397.0786
   5   1.0000     -14.584418      -396.8622
   6   1.0000     -14.571060      -396.4987
   7   1.0000     -14.548512      -395.8851
   8   1.0000     -10.514901      -286.1250
   9   1.0000     -10.508948      -285.9630
  10   1.0000     -10.478849      -285.1440
  11   1.0000     -10.455837      -284.5178
  12   1.0000     -10.432171      -283.8738
  13   1.0000     -10.407974      -283.2154
  14   1.0000     -10.395933      -282.8877
  15   1.0000     -10.380497      -282.4677
  16   1.0000     -10.371732      -282.2292
  17   1.0000     -10.349358      -281.6203
  18   1.0000      -1.228501       -33.4292
  19   1.0000      -1.224106       -33.3096
  20   1.0000      -1.193879       -32.4871
  21   1.0000      -1.188626       -32.3442
  22   1.0000      -1.124546       -30.6004
  23   1.0000      -1.123478       -30.5714
  24   1.0000      -1.070644       -29.1337
  25   1.0000      -1.059657       -28.8347
  26   1.0000      -0.975338       -26.5403
  27   1.0000      -0.956575       -26.0297
  28   1.0000      -0.858083       -23.3496
  29   1.0000      -0.846342       -23.0301
  30   1.0000      -0.810952       -22.0671
  31   1.0000      -0.808635       -22.0041
  32   1.0000      -0.794804       -21.6277
  33   1.0000      -0.788050       -21.4439
  34   1.0000      -0.700427       -19.0596
  35   1.0000      -0.695713       -18.9313
  36   1.0000      -0.691979       -18.8297
  37   1.0000      -0.690613       -18.7925
  38   1.0000      -0.645296       -17.5594
  39   1.0000      -0.640324       -17.4241
  40   1.0000      -0.628187       -17.0938
  41   1.0000      -0.600611       -16.3435
  42   1.0000      -0.597560       -16.2604
  43   1.0000      -0.593053       -16.1378
  44   1.0000      -0.573799       -15.6139
  45   1.0000      -0.569004       -15.4834
  46   1.0000      -0.567930       -15.4542
  47   1.0000      -0.554861       -15.0985
  48   1.0000      -0.549970       -14.9654
  49   1.0000      -0.548996       -14.9389
  50   1.0000      -0.531354       -14.4589
  51   1.0000      -0.522183       -14.2093
  52   1.0000      -0.516738       -14.0611
  53   1.0000      -0.514321       -13.9954
  54   1.0000      -0.510318       -13.8865
  55   1.0000      -0.497845       -13.5470
  56   1.0000      -0.493249       -13.4220
  57   1.0000      -0.478205       -13.0126
  58   1.0000      -0.421014       -11.4564
  59   1.0000      -0.418883       -11.3984
  60   1.0000      -0.405511       -11.0345
  61   1.0000      -0.402744       -10.9592
  62   1.0000      -0.389177       -10.5900
  63   1.0000      -0.385796       -10.4981
  64   1.0000      -0.385271       -10.4838
  65   1.0000      -0.348179        -9.4744
  66   1.0000      -0.207860        -5.6562
  67   0.0000       0.011501         0.3130
  68   0.0000       0.019890         0.5412
  69   0.0000       0.033211         0.9037
  70   0.0000       0.038812         1.0561
  71   0.0000       0.042116         1.1460

                 SPIN DOWN ORBITALS
  NO   OCC          E(Eh)            E(eV)
   0   1.0000     -19.330115      -525.9992
   1   1.0000     -19.328067      -525.9434
   2   1.0000     -19.323183      -525.8105
   3   1.0000     -19.311712      -525.4984
   4   1.0000     -14.587002      -396.9325
   5   1.0000     -14.584179      -396.8557
   6   1.0000     -14.571060      -396.4987
   7   1.0000     -14.547592      -395.8601
   8   1.0000     -10.514910      -286.1253
   9   1.0000     -10.509353      -285.9740
  10   1.0000     -10.478838      -285.1437
  11   1.0000     -10.455412      -284.5062
  12   1.0000     -10.431989      -283.8689
  13   1.0000     -10.398516      -282.9580
  14   1.0000     -10.385730      -282.6101
  15   1.0000     -10.380523      -282.4684
  16   1.0000     -10.372215      -282.2423
  17   1.0000     -10.349327      -281.6195
  18   1.0000      -1.227599       -33.4047
  19   1.0000      -1.220494       -33.2113
  20   1.0000      -1.193816       -32.4854
  21   1.0000      -1.179326       -32.0911
  22   1.0000      -1.123279       -30.5660
  23   1.0000      -1.113328       -30.2952
  24   1.0000      -1.070527       -29.1305
  25   1.0000      -1.054026       -28.6815
  26   1.0000      -0.957178       -26.0461
  27   1.0000      -0.950720       -25.8704
  28   1.0000      -0.847456       -23.0605
  29   1.0000      -0.845655       -23.0115
  30   1.0000      -0.810293       -22.0492
  31   1.0000      -0.797877       -21.7113
  32   1.0000      -0.794547       -21.6207
  33   1.0000      -0.781201       -21.2576
  34   1.0000      -0.695545       -18.9267
  35   1.0000      -0.692011       -18.8306
  36   1.0000      -0.688539       -18.7361
  37   1.0000      -0.682320       -18.5669
  38   1.0000      -0.643153       -17.5011
  39   1.0000      -0.631762       -17.1911
  40   1.0000      -0.622037       -16.9265
  41   1.0000      -0.597563       -16.2605
  42   1.0000      -0.589798       -16.0492
  43   1.0000      -0.584715       -15.9109
  44   1.0000      -0.567961       -15.4550
  45   1.0000      -0.562978       -15.3194
  46   1.0000      -0.557624       -15.1737
  47   1.0000      -0.549990       -14.9660
  48   1.0000      -0.544860       -14.8264
  49   1.0000      -0.542952       -14.7745
  50   1.0000      -0.522835       -14.2271
  51   1.0000      -0.516144       -14.0450
  52   1.0000      -0.513675       -13.9778
  53   1.0000      -0.506310       -13.7774
  54   1.0000      -0.501426       -13.6445
  55   1.0000      -0.495477       -13.4826
  56   1.0000      -0.477971       -13.0062
  57   1.0000      -0.445099       -12.1118
  58   1.0000      -0.420186       -11.4339
  59   1.0000      -0.414417       -11.2769
  60   1.0000      -0.404599       -11.0097
  61   1.0000      -0.387288       -10.5386
  62   1.0000      -0.379072       -10.3151
  63   1.0000      -0.376995       -10.2586
  64   1.0000      -0.346842        -9.4381
  65   0.0000      -0.106758        -2.9050
  66   0.0000       0.010741         0.2923
  67   0.0000       0.021010         0.5717
  68   0.0000       0.030992         0.8433
  69   0.0000       0.036875         1.0034

----------------------------------------------------------------------------------------------------
          SPIN FLIP ABSORPTION SPECTRUM VIA TRANSITION ELECTRIC DIPOLE MOMENTS
----------------------------------------------------------------------------------------------------
     Transition      Energy     Energy  Wavelength fosc(D2)      D2        DX        DY        DZ
                      (eV)      (cm-1)    (nm)                 (au**2)    (au)      (au)      (au)
----------------------------------------------------------------------------------------------------
  1-3A  ->  2-3A    4.283799   34551.2   289.4   0.001631841   0.01555   0.05395   0.08548  -0.07301

Dispersion correction             ... done (  0.1 sec)

MULLIKEN ATOMIC CHARGES AND SPIN DENSITIES
------------------------------------------
   0 O :   -0.697050    0.007354
   1 O :   -0.657003   -0.000089
   2 O :   -0.613434    0.004766
   3 O :   -0.668819    0.000635
   4 N :    0.050084    0.037358
   5 N :    0.008293   -0.003497
   6 N :    0.003233   -0.013313
   7 N :    0.039872   -0.001619
   8 C :    1.276079    0.101447
   9 C :    0.678760    0.001455
  10 C :   -0.326658   -0.007205
  11 C :   -0.066001   -0.001834
  12 C :   -1.370738   -0.011553
  13 C :   -1.431963    0.003401
  14 C :    0.126044   -0.111101
  15 C :    0.543549    0.001014
  16 C :    0.375410    0.001835
  17 C :    0.427607   -0.008238
  18 H :    0.107368   -0.016021
  19 H :    0.156688   -0.000280
  20 H :    0.239204    0.009319
  21 H :    0.342813   -0.001796
  22 H :    0.363342    0.008501
  23 H :    0.364892    0.000095
  24 H :    0.330518    0.000571
  25 H :    0.221574   -0.001749
  26 H :    0.081995   -0.002178
  27 H :    0.024751    0.001142
  28 H :    0.037205    0.002245
  29 H :    0.032387   -0.000665
Sum of atomic charges       :    0.0000000

LOEWDIN ATOMIC CHARGES AND SPIN DENSITIES
-----------------------------------------
   0 O :    0.069845    0.005574
   1 O :    0.104509    0.000138
   2 O :    0.110031    0.003560
   3 O :    0.070706   -0.000174
   4 N :    0.315246    0.024700
   5 N :    0.280251   -0.001389
   6 N :    0.316992   -0.007944
   7 N :    0.344429   -0.000266
   8 C :   -0.099757    0.007002
   9 C :   -0.137407   -0.000065
  10 C :    0.001155   -0.016194
  11 C :    0.046335   -0.000736
  12 C :    0.209294    0.001881
  13 C :    0.184286    0.000101
  14 C :   -0.436074   -0.008869
  15 C :   -0.391322    0.000011
  16 C :   -0.476090   -0.002566
  17 C :   -0.491429   -0.000395
  18 H :    0.005695   -0.006992
  19 H :    0.036566   -0.000179
  20 H :   -0.003840    0.000884
  21 H :   -0.004319   -0.000464
  22 H :    0.014338    0.001067
  23 H :    0.001373    0.000026
  24 H :   -0.006068   -0.000020
  25 H :   -0.013749    0.000003
  26 H :   -0.010209    0.002374
  27 H :   -0.020811   -0.000152
  28 H :   -0.009597   -0.000887
  29 H :   -0.010379   -0.000030

  Mayer bond orders larger than 0.100000
B(  0-O , 14-C ) :   1.2779 B(  1-O , 15-C ) :   1.4325 B(  2-O , 16-C ) :   1.5753
B(  3-O , 17-C ) :   1.5328 B(  4-N , 10-C ) :   0.8564 B(  4-N , 16-C ) :   0.9513
B(  4-N , 26-H ) :   1.0802 B(  5-N , 11-C ) :   0.9379 B(  5-N , 17-C ) :   1.0399
B(  5-N , 27-H ) :   1.1312 B(  6-N , 14-C ) :   0.8851 B(  6-N , 16-C ) :   0.9141
B(  6-N , 28-H ) :   1.1047 B(  7-N , 15-C ) :   0.9925 B(  7-N , 16-C ) :   0.1056
B(  7-N , 17-C ) :   0.9285 B(  7-N , 29-H ) :   1.1192 B(  8-C , 10-C ) :   0.4556
B(  8-C , 12-C ) :   0.3389 B(  8-C , 14-C ) :   0.8656 B(  8-C , 18-H ) :  -0.1474
B(  8-C , 21-H ) :  -0.1074 B(  9-C , 11-C ) :   1.2043 B(  9-C , 13-C ) :   0.3490
B(  9-C , 15-C ) :   0.7853 B(  9-C , 24-H ) :  -0.1016 B(  9-C , 25-H ) :  -0.1035
B( 10-C , 12-C ) :  -0.1058 B( 10-C , 18-H ) :   1.2326 B( 11-C , 13-C ) :  -0.1961
B( 11-C , 19-H ) :   1.1268 B( 12-C , 20-H ) :   0.9836 B( 12-C , 21-H ) :   0.9998
B( 12-C , 22-H ) :   0.8928 B( 13-C , 23-H ) :   0.8939 B( 13-C , 24-H ) :   1.0309
B( 13-C , 25-H ) :   1.0055

Dispersion correction           -0.059152184
FINAL SINGLE POINT ENERGY      -908.771315765499

DIPOLE MOMENT
-------------

Method             : TDA/CIS
Type of density    : Electron Density
Level              : Relaxed density
State              :   2
Multiplicity       :   3
Irrep              :   0
Energy             :     0.0000000000000000 Eh
Relativity type    :
Basis              : AO
                                X                 Y                 Z
Electronic contribution:     -2.696395642      -9.992273521      -5.872945158
Nuclear contribution   :      2.105265189      10.843196240       8.373726928
                        -----------------------------------------
Total Dipole Moment    :     -0.591130453       0.850922719       2.500781769
                        -----------------------------------------
Magnitude (a.u.)       :      2.706919678
Magnitude (Debye)      :      6.880443023

Rotational constants in cm-1:             0.017192             0.016106             0.013553
Rotational constants in MHz :           515.411443           482.834313           406.308918

                             ****ORCA TERMINATED NORMALLY****
TOTAL RUN TIME: 0 days 0 hours 8 minutes 7 seconds 196 msec
