                         Program Version 6.0.0  -   RELEASE  -
|  1> ! Engrad def2-TZVPPD wB97M-D3BJ
|  2> %pal nprocs 8 end%pal nprocs 64 end
|  3> %tddft Nroots 2 Iroot 1
|  4> sf true
|  5> end
|  6> *xyz 0 3
|  7> O   3.37040261 0.64309031 -0.63130799
|  8> O   -1.34792912 1.2661179 -2.36400566
|  9> O   0.76611155 -2.91927299 -0.98786497
| 10> O   -2.96294279 -1.7975766 0.48797989
| 11> N   0.36379376 -1.5360817 0.78534221
| 12> N   -2.04422926 0.07421718 1.41590042
| 13> N   1.65753011 -0.82327223 -1.01224341
| 14> N   -2.234039 -0.22057601 -0.93530782
| 15> C   1.67167117 0.54809025 0.95163147
| 16> C   -0.74429247 1.42380942 -0.10535033
| 17> C   0.50097342 -0.29169911 1.42761162
| 18> C   -0.7100886 0.70051513 1.18621863
| 19> C   2.35046766 1.57441628 1.84303364
| 20> C   -0.00055698 2.77403651 -0.38551222
| 21> C   2.34341026 0.10850677 -0.27753141
| 22> C   -1.45413724 0.85492278 -1.22877905
| 23> C   0.92222463 -1.86883425 -0.41154904
| 24> C   -2.45703233 -0.73458431 0.30668909
| 25> H   0.45300718 -0.51313161 2.47655062
| 26> H   -0.62140742 1.37654469 2.08053151
| 27> H   2.91898041 2.278761 1.1104574
| 28> H   1.7006367 2.07334875 2.5801536
| 29> H   3.10092935 1.01310684 2.42941525
| 30> H   -0.66209186 3.46878156 -0.8913431
| 31> H   0.36150941 3.32760779 0.52980351
| 32> H   0.86300183 2.63690327 -1.01661403
| 33> H   -0.20901761 -2.25444263 1.20579093
| 34> H   -2.01994796 -0.52137183 2.23606552
| 35> H   2.03096802 -1.13685569 -1.87020641
| 36> H   -2.65606483 -0.82929944 -1.58177299
| 37> *
| 38>
| 39>                          ****END OF INPUT****

CARTESIAN COORDINATES (ANGSTROEM)
---------------------------------
  O      3.370403    0.643090   -0.631308
  O     -1.347929    1.266118   -2.364006
  O      0.766112   -2.919273   -0.987865
  O     -2.962943   -1.797577    0.487980
  N      0.363794   -1.536082    0.785342
  N     -2.044229    0.074217    1.415900
  N      1.657530   -0.823272   -1.012243
  N     -2.234039   -0.220576   -0.935308
  C      1.671671    0.548090    0.951631
  C     -0.744292    1.423809   -0.105350
  C      0.500973   -0.291699    1.427612
  C     -0.710089    0.700515    1.186219
  C      2.350468    1.574416    1.843034
  C     -0.000557    2.774037   -0.385512
  C      2.343410    0.108507   -0.277531
  C     -1.454137    0.854923   -1.228779
  C      0.922225   -1.868834   -0.411549
  C     -2.457032   -0.734584    0.306689
  H      0.453007   -0.513132    2.476551
  H     -0.621407    1.376545    2.080532
  H      2.918980    2.278761    1.110457
  H      1.700637    2.073349    2.580154
  H      3.100929    1.013107    2.429415
  H     -0.662092    3.468782   -0.891343
  H      0.361509    3.327608    0.529804
  H      0.863002    2.636903   -1.016614
  H     -0.209018   -2.254443    1.205791
  H     -2.019948   -0.521372    2.236066
  H      2.030968   -1.136856   -1.870206
  H     -2.656065   -0.829299   -1.581773

 Total Charge           Charge          ....    0
 Multiplicity           Mult            ....    3
 Number of Electrons    NEL             ....  132
 Basis Dimension        Dim             ....  882

ORBITAL ENERGIES
----------------
                 SPIN UP ORBITALS
  NO   OCC          E(Eh)            E(eV)
   0   1.0000     -19.334854      -526.1281
   1   1.0000     -19.330743      -526.0163
   2   1.0000     -19.330325      -526.0049
   3   1.0000     -19.325191      -525.8652
   4   1.0000     -14.567135      -396.3919
   5   1.0000     -14.565650      -396.3515
   6   1.0000     -14.563661      -396.2974
   7   1.0000     -14.556255      -396.0958
   8   1.0000     -10.509941      -285.9900
   9   1.0000     -10.504708      -285.8476
  10   1.0000     -10.481968      -285.2288
  11   1.0000     -10.479326      -285.1570
  12   1.0000     -10.446256      -284.2571
  13   1.0000     -10.440633      -284.1041
  14   1.0000     -10.421862      -283.5933
  15   1.0000     -10.421517      -283.5839
  16   1.0000     -10.388726      -282.6916
  17   1.0000     -10.374974      -282.3174
  18   1.0000      -1.234706       -33.5981
  19   1.0000      -1.225464       -33.3466
  20   1.0000      -1.203067       -32.7371
  21   1.0000      -1.202068       -32.7099
  22   1.0000      -1.125126       -30.6162
  23   1.0000      -1.105373       -30.0787
  24   1.0000      -1.077442       -29.3187
  25   1.0000      -1.062241       -28.9051
  26   1.0000      -0.976433       -26.5701
  27   1.0000      -0.939891       -25.5757
  28   1.0000      -0.884538       -24.0695
  29   1.0000      -0.837233       -22.7823
  30   1.0000      -0.829481       -22.5713
  31   1.0000      -0.808663       -22.0048
  32   1.0000      -0.783626       -21.3235
  33   1.0000      -0.782733       -21.2992
  34   1.0000      -0.706716       -19.2307
  35   1.0000      -0.700462       -19.0605
  36   1.0000      -0.688780       -18.7427
  37   1.0000      -0.673708       -18.3325
  38   1.0000      -0.655307       -17.8318
  39   1.0000      -0.639075       -17.3901
  40   1.0000      -0.609843       -16.5947
  41   1.0000      -0.605375       -16.4731
  42   1.0000      -0.599129       -16.3031
  43   1.0000      -0.588981       -16.0270
  44   1.0000      -0.577977       -15.7275
  45   1.0000      -0.572868       -15.5885
  46   1.0000      -0.566903       -15.4262
  47   1.0000      -0.565003       -15.3745
  48   1.0000      -0.556923       -15.1546
  49   1.0000      -0.553614       -15.0646
  50   1.0000      -0.544259       -14.8101
  51   1.0000      -0.532292       -14.4844
  52   1.0000      -0.529663       -14.4129
  53   1.0000      -0.522840       -14.2272
  54   1.0000      -0.507231       -13.8024
  55   1.0000      -0.500884       -13.6297
  56   1.0000      -0.492828       -13.4105
  57   1.0000      -0.435357       -11.8467
  58   1.0000      -0.429124       -11.6771
  59   1.0000      -0.413065       -11.2401
  60   1.0000      -0.409006       -11.1296
  61   1.0000      -0.404233       -10.9997
  62   1.0000      -0.399311       -10.8658
  63   1.0000      -0.394984       -10.7481
  64   1.0000      -0.384199       -10.4546
  65   1.0000      -0.339474        -9.2376
  66   1.0000      -0.331291        -9.0149
  67   0.0000       0.006143         0.1671
  68   0.0000       0.029265         0.7963
  69   0.0000       0.034740         0.9453
  70   0.0000       0.036285         0.9874
  71   0.0000       0.053467         1.4549

                 SPIN DOWN ORBITALS
  NO   OCC          E(Eh)            E(eV)
   0   1.0000     -19.330880      -526.0200
   1   1.0000     -19.330240      -526.0026
   2   1.0000     -19.326536      -525.9018
   3   1.0000     -19.325141      -525.8638
   4   1.0000     -14.567004      -396.3883
   5   1.0000     -14.565137      -396.3375
   6   1.0000     -14.562921      -396.2772
   7   1.0000     -14.555684      -396.0803
   8   1.0000     -10.509988      -285.9913
   9   1.0000     -10.504752      -285.8488
  10   1.0000     -10.482879      -285.2536
  11   1.0000     -10.480349      -285.1848
  12   1.0000     -10.445751      -284.2433
  13   1.0000     -10.440213      -284.0926
  14   1.0000     -10.410093      -283.2730
  15   1.0000     -10.409876      -283.2671
  16   1.0000     -10.389203      -282.7046
  17   1.0000     -10.375448      -282.3303
  18   1.0000      -1.233751       -33.5721
  19   1.0000      -1.223871       -33.3032
  20   1.0000      -1.197817       -32.5943
  21   1.0000      -1.197502       -32.5857
  22   1.0000      -1.122826       -30.5536
  23   1.0000      -1.102898       -30.0114
  24   1.0000      -1.075377       -29.2625
  25   1.0000      -1.060474       -28.8570
  26   1.0000      -0.962397       -26.1882
  27   1.0000      -0.921544       -25.0765
  28   1.0000      -0.878214       -23.8974
  29   1.0000      -0.833199       -22.6725
  30   1.0000      -0.822451       -22.3800
  31   1.0000      -0.805088       -21.9076
  32   1.0000      -0.781691       -21.2709
  33   1.0000      -0.780827       -21.2474
  34   1.0000      -0.700081       -19.0502
  35   1.0000      -0.693257       -18.8645
  36   1.0000      -0.683018       -18.5859
  37   1.0000      -0.667246       -18.1567
  38   1.0000      -0.644129       -17.5276
  39   1.0000      -0.635919       -17.3042
  40   1.0000      -0.604512       -16.4496
  41   1.0000      -0.600621       -16.3437
  42   1.0000      -0.593770       -16.1573
  43   1.0000      -0.585041       -15.9198
  44   1.0000      -0.570843       -15.5334
  45   1.0000      -0.563514       -15.3340
  46   1.0000      -0.561743       -15.2858
  47   1.0000      -0.559715       -15.2306
  48   1.0000      -0.549688       -14.9578
  49   1.0000      -0.539120       -14.6702
  50   1.0000      -0.538314       -14.6483
  51   1.0000      -0.526828       -14.3357
  52   1.0000      -0.521733       -14.1971
  53   1.0000      -0.513546       -13.9743
  54   1.0000      -0.500721       -13.6253
  55   1.0000      -0.497316       -13.5327
  56   1.0000      -0.487535       -13.2665
  57   1.0000      -0.431525       -11.7424
  58   1.0000      -0.422255       -11.4902
  59   1.0000      -0.405340       -11.0299
  60   1.0000      -0.399389       -10.8679
  61   1.0000      -0.395472       -10.7613
  62   1.0000      -0.391607       -10.6562
  63   1.0000      -0.389190       -10.5904
  64   1.0000      -0.373413       -10.1611
  65   0.0000      -0.057325        -1.5599
  66   0.0000      -0.049602        -1.3497
  67   0.0000       0.005799         0.1578
  68   0.0000       0.029179         0.7940
  69   0.0000       0.034715         0.9446

----------------------------------------------------------------------------------------------------
          SPIN FLIP ABSORPTION SPECTRUM VIA TRANSITION ELECTRIC DIPOLE MOMENTS
----------------------------------------------------------------------------------------------------
     Transition      Energy     Energy  Wavelength fosc(D2)      D2        DX        DY        DZ
                      (eV)      (cm-1)    (nm)                 (au**2)    (au)      (au)      (au)
----------------------------------------------------------------------------------------------------
  1-3A  ->  2-1A    0.016220     130.8  76438.2   0.000001327   0.00334   0.05707  -0.00545  -0.00725

Dispersion correction             ... done (  0.1 sec)

MULLIKEN ATOMIC CHARGES AND SPIN DENSITIES
------------------------------------------
   0 O :   -0.665393   -0.049977
   1 O :   -0.667979    0.053388
   2 O :   -0.651952   -0.000217
   3 O :   -0.599530   -0.000210
   4 N :   -0.174100    0.000980
   5 N :   -0.426339    0.001504
   6 N :    0.098140   -0.014377
   7 N :    0.081548    0.006093
   8 C :    0.681796    0.321092
   9 C :   -0.177951    0.346437
  10 C :    0.017070   -0.302727
  11 C :    0.795285   -0.094680
  12 C :   -1.582482    0.002567
  13 C :   -1.490435   -0.019945
  14 C :    0.282740   -0.252954
  15 C :    0.301964   -0.063145
  16 C :    0.379832    0.014549
  17 C :    0.428699    0.009400
  18 H :    0.547677   -0.012015
  19 H :    0.512598    0.013454
  20 H :    0.323024   -0.003482
  21 H :    0.316102    0.004755
  22 H :    0.416730    0.000794
  23 H :    0.414761    0.006297
  24 H :    0.270509    0.001372
  25 H :    0.304524    0.022800
  26 H :    0.062860    0.000938
  27 H :    0.169509    0.000837
  28 H :    0.048409    0.005593
  29 H :   -0.017616    0.000878
Sum of atomic charges       :   -0.0000000

LOEWDIN ATOMIC CHARGES AND SPIN DENSITIES
-----------------------------------------
   0 O :    0.088144   -0.043556
   1 O :    0.105474    0.047070
   2 O :    0.101254   -0.000259
   3 O :    0.109762   -0.000261
   4 N :    0.283158   -0.000036
   5 N :    0.275540   -0.000737
   6 N :    0.347401   -0.010560
   7 N :    0.349060    0.005800
   8 C :   -0.023518   -0.160091
   9 C :    0.011957    0.181813
  10 C :   -0.118332   -0.011163
  11 C :   -0.133824    0.008648
  12 C :    0.174584   -0.020526
  13 C :    0.209098    0.013485
  14 C :   -0.435762   -0.031116
  15 C :   -0.430492    0.026723
  16 C :   -0.453296   -0.000191
  17 C :   -0.492757   -0.000054
  18 H :    0.046514   -0.002285
  19 H :    0.065831    0.002287
  20 H :    0.045852   -0.001554
  21 H :   -0.004676   -0.001342
  22 H :    0.010271   -0.008703
  23 H :   -0.008886    0.002374
  24 H :    0.017618   -0.000168
  25 H :   -0.011631    0.005004
  26 H :   -0.013188   -0.000029
  27 H :   -0.050861   -0.000153
  28 H :   -0.035828   -0.000959
  29 H :   -0.028468    0.000537

  Mayer bond orders larger than 0.100000
B(  0-O , 14-C ) :   1.3610 B(  1-O , 15-C ) :   1.3224 B(  2-O , 16-C ) :   1.5468
B(  3-O , 17-C ) :   1.5252 B(  4-N ,  8-C ) :   0.1297 B(  4-N , 10-C ) :   0.4809
B(  4-N , 16-C ) :   1.0678 B(  4-N , 26-H ) :   1.1223 B(  5-N ,  9-C ) :   0.4443
B(  5-N , 11-C ) :  -0.2573 B(  5-N , 17-C ) :   1.0378 B(  5-N , 27-H ) :   0.9133
B(  6-N , 10-C ) :   0.1589 B(  6-N , 14-C ) :   1.0504 B(  6-N , 16-C ) :   0.9762
B(  6-N , 28-H ) :   1.0403 B(  7-N , 15-C ) :   1.0364 B(  7-N , 17-C ) :   0.9679
B(  7-N , 29-H ) :   1.1187 B(  8-C ,  9-C ) :   0.2195 B(  8-C , 10-C ) :   0.7897
B(  8-C , 11-C ) :   0.2036 B(  8-C , 12-C ) :   0.2874 B(  8-C , 14-C ) :   0.6758
B(  8-C , 20-H ) :  -0.1094 B(  8-C , 21-H ) :  -0.1449 B(  9-C , 13-C ) :   0.5263
B(  9-C , 15-C ) :   0.9431 B(  9-C , 19-H ) :  -0.2208 B(  9-C , 24-H ) :  -0.1239
B( 10-C , 11-C ) :   0.5151 B( 10-C , 12-C ) :  -0.1935 B( 10-C , 14-C ) :   0.2293
B( 10-C , 16-C ) :  -0.1852 B( 10-C , 18-H ) :   0.7159 B( 10-C , 19-H ) :  -0.1064
B( 11-C , 13-C ) :  -0.2542 B( 11-C , 15-C ) :  -0.1023 B( 11-C , 19-H ) :   0.9816
B( 12-C , 20-H ) :   0.9644 B( 12-C , 21-H ) :   1.0535 B( 12-C , 22-H ) :   0.7899
B( 13-C , 15-C ) :  -0.1029 B( 13-C , 23-H ) :   0.8533 B( 13-C , 24-H ) :   1.0501
B( 13-C , 25-H ) :   0.9310 B( 14-C , 16-C ) :  -0.1031

Dispersion correction           -0.059024679
FINAL SINGLE POINT ENERGY      -908.773150479559

DIPOLE MOMENT
-------------

Method             : TDA/CIS
Type of density    : Electron Density
Level              : Relaxed density
State              :   1
Multiplicity       :   3
Irrep              :   0
Energy             :     0.0000000000000000 Eh
Relativity type    :
Basis              : AO
                                X                 Y                 Z
Electronic contribution:     -4.741961035      -9.490561301      -6.416829356
Nuclear contribution   :      4.920347811      10.543934284       8.812136811
                        -----------------------------------------
Total Dipole Moment    :      0.178386776       1.053372983       2.395307454
                        -----------------------------------------
Magnitude (a.u.)       :      2.622768439
Magnitude (Debye)      :      6.666547572

Rotational constants in cm-1:             0.019943             0.013953             0.012145
Rotational constants in MHz :           597.873775           418.285836           364.091778

                             ****ORCA TERMINATED NORMALLY****
TOTAL RUN TIME: 0 days 0 hours 4 minutes 33 seconds 261 msec
