                         Program Version 6.0.0  -   RELEASE  -
|  1> ! Engrad wB97M-D3BJ def2-TZVPPD
|  2> %pal nprocs 8 end%pal nprocs 16 end
|  3> %tddft nroots 2 Iroot 1
|  4>  sf true
|  5> end
|  6> *xyz 0 3
|  7> O   0.04052117104708 0.80026645279079 -4.973519687e-05
|  8> C   0.72887054944943 -0.42655938720619 0.000143339729
|  9> C   -0.71981541211519 -0.44732961047396 -0.00015815059554
| 10> H   1.26369012551335 -0.65987140484656 0.91392086897221
| 11> H   1.26339257236759 -0.66036674624605 -0.91372848337676
| 12> H   -1.25378105388343 -0.64263932985118 -0.91950955888668
| 13> H   -1.25342330398151 -0.64296102687709 0.91938171935465
| 14> *
| 15>
| 16>                          ****END OF INPUT****

CARTESIAN COORDINATES (ANGSTROEM)
---------------------------------
  O      0.040521    0.800266   -0.000050
  C      0.728871   -0.426559    0.000143
  C     -0.719815   -0.447330   -0.000158
  H      1.263690   -0.659871    0.913921
  H      1.263393   -0.660367   -0.913728
  H     -1.253781   -0.642639   -0.919510
  H     -1.253423   -0.642961    0.919382

 Total Charge           Charge          ....    0
 Multiplicity           Mult            ....    3
 Number of Electrons    NEL             ....   24
 Basis Dimension        Dim             ....  182

ORBITAL ENERGIES
----------------
                 SPIN UP ORBITALS
  NO   OCC          E(Eh)            E(eV)
   0   1.0000     -19.504283      -530.7385
   1   1.0000     -10.440477      -284.0998
   2   1.0000     -10.410554      -283.2856
   3   1.0000      -1.330196       -36.1965
   4   1.0000      -0.878608       -23.9081
   5   1.0000      -0.806800       -21.9541
   6   1.0000      -0.712540       -19.3892
   7   1.0000      -0.674632       -18.3577
   8   1.0000      -0.598239       -16.2789
   9   1.0000      -0.529336       -14.4040
  10   1.0000      -0.519702       -14.1418
  11   1.0000      -0.487426       -13.2635
  12   1.0000      -0.122462        -3.3324
  13   0.0000       0.031955         0.8695
  14   0.0000       0.055331         1.5056
  15   0.0000       0.067096         1.8258
  16   0.0000       0.085479         2.3260
  17   0.0000       0.100840         2.7440

                 SPIN DOWN ORBITALS
  NO   OCC          E(Eh)            E(eV)
   0   1.0000     -19.472555      -529.8751
   1   1.0000     -10.440036      -284.0878
   2   1.0000     -10.405933      -283.1598
   3   1.0000      -1.265597       -34.4386
   4   1.0000      -0.846884       -23.0449
   5   1.0000      -0.790606       -21.5135
   6   1.0000      -0.653210       -17.7748
   7   1.0000      -0.644741       -17.5443
   8   1.0000      -0.564149       -15.3513
   9   1.0000      -0.507556       -13.8113
  10   1.0000      -0.467179       -12.7126
  11   0.0000      -0.142286        -3.8718
  12   0.0000       0.033550         0.9129
  13   0.0000       0.054289         1.4773
  14   0.0000       0.064646         1.7591
  15   0.0000       0.072973         1.9857

----------------------------------------------------------------------------------------------------
          SPIN FLIP ABSORPTION SPECTRUM VIA TRANSITION ELECTRIC DIPOLE MOMENTS
----------------------------------------------------------------------------------------------------
     Transition      Energy     Energy  Wavelength fosc(D2)      D2        DX        DY        DZ
                      (eV)      (cm-1)    (nm)                 (au**2)    (au)      (au)      (au)
----------------------------------------------------------------------------------------------------
  1-3A  ->  2-3A    6.884374   55526.2   180.1   0.003895056   0.02309  -0.00002  -0.00029   0.15197

Dispersion correction             ... done (  0.0 sec)

MULLIKEN ATOMIC CHARGES AND SPIN DENSITIES
------------------------------------------
   0 O :   -0.337432    0.062296
   1 C :   -0.097222   -0.062474
   2 C :   -0.369517   -0.106045
   3 H :    0.175952    0.007193
   4 H :    0.175596    0.007454
   5 H :    0.226352    0.045812
   6 H :    0.226271    0.045765
Sum of atomic charges       :    0.0000000

LOEWDIN ATOMIC CHARGES AND SPIN DENSITIES
-----------------------------------------
   0 O :   -0.106048    0.079945
   1 C :   -0.031625   -0.018126
   2 C :    0.051170   -0.032251
   3 H :    0.019815   -0.003082
   4 H :    0.019819   -0.003091
   5 H :    0.023425   -0.011686
   6 H :    0.023443   -0.011709

  Mayer bond orders larger than 0.100000
B(  0-O ,  1-C ) :   0.9499 B(  0-O ,  2-C ) :   0.9885 B(  1-C ,  2-C ) :   0.7237
B(  1-C ,  3-H ) :   1.0157 B(  1-C ,  4-H ) :   1.0160 B(  2-C ,  5-H ) :   1.0375
B(  2-C ,  6-H ) :   1.0375

Dispersion correction           -0.005230511
FINAL SINGLE POINT ENERGY      -153.877181386997

DIPOLE MOMENT
-------------

Method             : TDA/CIS
Type of density    : Electron Density
Level              : Relaxed density
State              :   1
Multiplicity       :   3
Irrep              :   0
Energy             :     0.0000000000000000 Eh
Relativity type    :
Basis              : AO
                                X                 Y                 Z
Electronic contribution:     -0.079084723       0.577338094      -0.000045239
Nuclear contribution   :     -0.047210106      -2.405576361       0.000137520
                        -----------------------------------------
Total Dipole Moment    :     -0.126294829      -1.828238267       0.000092282
                        -----------------------------------------
Magnitude (a.u.)       :      1.832595305
Magnitude (Debye)      :      4.658087081

Rotational constants in cm-1:             0.851690             0.748225             0.474225
Rotational constants in MHz :         25533.014374         22431.209716         14216.909834

                             ****ORCA TERMINATED NORMALLY****
TOTAL RUN TIME: 0 days 0 hours 0 minutes 21 seconds 514 msec
