                         Program Version 6.0.0  -   RELEASE  -
|  1> ! Engrad def2-TZVPPD wB97M-D3BJ
|  2> %pal nprocs 8 end%pal nprocs 64 end
|  3> %tddft
|  4>  Iroot 2 Nroots 3
|  5> sf true
|  6> end
|  7> *xyz 0 3
|  8> O   3.03788019 -0.70499211 -1.64178231
|  9> O   -1.46743384 1.4125862 -2.17879124
| 10> O   -0.95042222 -2.67341234 -0.76226466
| 11> O   -3.46496593 0.09995531 1.65149379
| 12> N   0.02581695 -1.42946088 0.88454842
| 13> N   -1.31378664 0.7584476 1.88695948
| 14> N   1.07806188 -1.70451278 -1.21441873
| 15> N   -2.24141998 0.50344866 -0.20631352
| 16> C   2.08842535 -0.28658613 0.41089245
| 17> C   -0.12023519 1.40598521 -0.25050593
| 18> C   0.8058614 -0.30002718 1.21739997
| 19> C   -0.03892648 1.01156691 1.20064563
| 20> C   3.33662557 0.49245575 0.7136939
| 21> C   0.99907149 2.13642773 -0.80387804
| 22> C   2.15642953 -0.95825524 -0.83090289
| 23> C   -1.30370905 1.12010528 -0.96095778
| 24> C   -0.00464392 -1.94658847 -0.40924305
| 25> C   -2.42980142 0.39323952 1.17683839
| 26> H   1.09571715 -0.36429958 2.25673348
| 27> H   0.44239625 1.781925 1.72426742
| 28> H   3.8836043 0.93107557 -0.14722022
| 29> H   3.10855705 1.33573251 1.40031587
| 30> H   4.11826954 -0.22587666 1.01129402
| 31> H   0.64878574 2.84056279 -1.55849613
| 32> H   1.68523191 2.62867684 -0.10624134
| 33> H   1.58756565 1.47450421 -1.43264643
| 34> H   -0.82540923 -1.73816802 1.40787144
| 35> H   -1.48158153 1.1018488 2.80700145
| 36> H   1.0503028 -2.1135686 -2.19800793
| 37> H   -3.11516833 0.16205038 -0.65037322
| 38> *
| 39>
| 40>                          ****END OF INPUT****

CARTESIAN COORDINATES (ANGSTROEM)
---------------------------------
  O      3.037880   -0.704992   -1.641782
  O     -1.467434    1.412586   -2.178791
  O     -0.950422   -2.673412   -0.762265
  O     -3.464966    0.099955    1.651494
  N      0.025817   -1.429461    0.884548
  N     -1.313787    0.758448    1.886959
  N      1.078062   -1.704513   -1.214419
  N     -2.241420    0.503449   -0.206314
  C      2.088425   -0.286586    0.410892
  C     -0.120235    1.405985   -0.250506
  C      0.805861   -0.300027    1.217400
  C     -0.038926    1.011567    1.200646
  C      3.336626    0.492456    0.713694
  C      0.999071    2.136428   -0.803878
  C      2.156430   -0.958255   -0.830903
  C     -1.303709    1.120105   -0.960958
  C     -0.004644   -1.946588   -0.409243
  C     -2.429801    0.393240    1.176838
  H      1.095717   -0.364300    2.256733
  H      0.442396    1.781925    1.724267
  H      3.883604    0.931076   -0.147220
  H      3.108557    1.335733    1.400316
  H      4.118270   -0.225877    1.011294
  H      0.648786    2.840563   -1.558496
  H      1.685232    2.628677   -0.106241
  H      1.587566    1.474504   -1.432646
  H     -0.825409   -1.738168    1.407871
  H     -1.481582    1.101849    2.807001
  H      1.050303   -2.113569   -2.198008
  H     -3.115168    0.162050   -0.650373

 Total Charge           Charge          ....    0
 Multiplicity           Mult            ....    3
 Number of Electrons    NEL             ....  132
 Basis Dimension        Dim             ....  882

ORBITAL ENERGIES
----------------
                 SPIN UP ORBITALS
  NO   OCC          E(Eh)            E(eV)
   0   1.0000     -19.332535      -526.0650
   1   1.0000     -19.330005      -525.9962
   2   1.0000     -19.323913      -525.8304
   3   1.0000     -19.315212      -525.5936
   4   1.0000     -14.573612      -396.5681
   5   1.0000     -14.562818      -396.2744
   6   1.0000     -14.561588      -396.2410
   7   1.0000     -14.560434      -396.2096
   8   1.0000     -10.506920      -285.9078
   9   1.0000     -10.506559      -285.8980
  10   1.0000     -10.476862      -285.0899
  11   1.0000     -10.473216      -284.9907
  12   1.0000     -10.444194      -284.2010
  13   1.0000     -10.440707      -284.1061
  14   1.0000     -10.423565      -283.6396
  15   1.0000     -10.410394      -283.2812
  16   1.0000     -10.381951      -282.5072
  17   1.0000     -10.367206      -282.1060
  18   1.0000      -1.236628       -33.6503
  19   1.0000      -1.216941       -33.1147
  20   1.0000      -1.188376       -32.3373
  21   1.0000      -1.175790       -31.9949
  22   1.0000      -1.120885       -30.5008
  23   1.0000      -1.096888       -29.8478
  24   1.0000      -1.069826       -29.1115
  25   1.0000      -1.055849       -28.7311
  26   1.0000      -0.988098       -26.8875
  27   1.0000      -0.955052       -25.9883
  28   1.0000      -0.895694       -24.3731
  29   1.0000      -0.845002       -22.9937
  30   1.0000      -0.835148       -22.7255
  31   1.0000      -0.803880       -21.8747
  32   1.0000      -0.788320       -21.4513
  33   1.0000      -0.784030       -21.3346
  34   1.0000      -0.704766       -19.1776
  35   1.0000      -0.702167       -19.1069
  36   1.0000      -0.692459       -18.8428
  37   1.0000      -0.675583       -18.3836
  38   1.0000      -0.657355       -17.8875
  39   1.0000      -0.644928       -17.5494
  40   1.0000      -0.621727       -16.9180
  41   1.0000      -0.604314       -16.4442
  42   1.0000      -0.593291       -16.1443
  43   1.0000      -0.587621       -15.9900
  44   1.0000      -0.578425       -15.7397
  45   1.0000      -0.573961       -15.6183
  46   1.0000      -0.567525       -15.4431
  47   1.0000      -0.561728       -15.2854
  48   1.0000      -0.556841       -15.1524
  49   1.0000      -0.550143       -14.9702
  50   1.0000      -0.546814       -14.8796
  51   1.0000      -0.542032       -14.7494
  52   1.0000      -0.530367       -14.4320
  53   1.0000      -0.522278       -14.2119
  54   1.0000      -0.505350       -13.7513
  55   1.0000      -0.495843       -13.4926
  56   1.0000      -0.492755       -13.4086
  57   1.0000      -0.423683       -11.5290
  58   1.0000      -0.419123       -11.4049
  59   1.0000      -0.410636       -11.1740
  60   1.0000      -0.404429       -11.0051
  61   1.0000      -0.401215       -10.9176
  62   1.0000      -0.392851       -10.6900
  63   1.0000      -0.387934       -10.5562
  64   1.0000      -0.380427       -10.3519
  65   1.0000      -0.345197        -9.3933
  66   1.0000      -0.325047        -8.8450
  67   0.0000       0.006247         0.1700
  68   0.0000       0.029097         0.7918
  69   0.0000       0.031042         0.8447
  70   0.0000       0.037012         1.0071
  71   0.0000       0.053976         1.4688

                 SPIN DOWN ORBITALS
  NO   OCC          E(Eh)            E(eV)
   0   1.0000     -19.329869      -525.9925
   1   1.0000     -19.327917      -525.9394
   2   1.0000     -19.318772      -525.6905
   3   1.0000     -19.315092      -525.5904
   4   1.0000     -14.572878      -396.5482
   5   1.0000     -14.562692      -396.2710
   6   1.0000     -14.561606      -396.2414
   7   1.0000     -14.559601      -396.1869
   8   1.0000     -10.506972      -285.9092
   9   1.0000     -10.506613      -285.8995
  10   1.0000     -10.477772      -285.1147
  11   1.0000     -10.474246      -285.0187
  12   1.0000     -10.443801      -284.1903
  13   1.0000     -10.440284      -284.0946
  14   1.0000     -10.412270      -283.3323
  15   1.0000     -10.399628      -282.9883
  16   1.0000     -10.382515      -282.5226
  17   1.0000     -10.367615      -282.1172
  18   1.0000      -1.236152       -33.6374
  19   1.0000      -1.212924       -33.0054
  20   1.0000      -1.185054       -32.2469
  21   1.0000      -1.169312       -31.8186
  22   1.0000      -1.118069       -30.4242
  23   1.0000      -1.094393       -29.7800
  24   1.0000      -1.067375       -29.0448
  25   1.0000      -1.053928       -28.6788
  26   1.0000      -0.975126       -26.5345
  27   1.0000      -0.937553       -25.5121
  28   1.0000      -0.890094       -24.2207
  29   1.0000      -0.839757       -22.8510
  30   1.0000      -0.827256       -22.5108
  31   1.0000      -0.799225       -21.7480
  32   1.0000      -0.785856       -21.3842
  33   1.0000      -0.782268       -21.2866
  34   1.0000      -0.699306       -19.0291
  35   1.0000      -0.697377       -18.9766
  36   1.0000      -0.686895       -18.6914
  37   1.0000      -0.667780       -18.1712
  38   1.0000      -0.647218       -17.6117
  39   1.0000      -0.641234       -17.4489
  40   1.0000      -0.613328       -16.6895
  41   1.0000      -0.599778       -16.3208
  42   1.0000      -0.587074       -15.9751
  43   1.0000      -0.581986       -15.8366
  44   1.0000      -0.572520       -15.5791
  45   1.0000      -0.569744       -15.5035
  46   1.0000      -0.558283       -15.1917
  47   1.0000      -0.553184       -15.0529
  48   1.0000      -0.550943       -14.9919
  49   1.0000      -0.541730       -14.7412
  50   1.0000      -0.538145       -14.6437
  51   1.0000      -0.535475       -14.5710
  52   1.0000      -0.523063       -14.2333
  53   1.0000      -0.514213       -13.9925
  54   1.0000      -0.492862       -13.4115
  55   1.0000      -0.489542       -13.3211
  56   1.0000      -0.486944       -13.2504
  57   1.0000      -0.421390       -11.4666
  58   1.0000      -0.413666       -11.2564
  59   1.0000      -0.401003       -10.9119
  60   1.0000      -0.395920       -10.7735
  61   1.0000      -0.387772       -10.5518
  62   1.0000      -0.382731       -10.4146
  63   1.0000      -0.381608       -10.3841
  64   1.0000      -0.371926       -10.1206
  65   0.0000      -0.062751        -1.7075
  66   0.0000      -0.053859        -1.4656
  67   0.0000       0.005787         0.1575
  68   0.0000       0.029252         0.7960
  69   0.0000       0.030752         0.8368

----------------------------------------------------------------------------------------------------
          SPIN FLIP ABSORPTION SPECTRUM VIA TRANSITION ELECTRIC DIPOLE MOMENTS
----------------------------------------------------------------------------------------------------
     Transition      Energy     Energy  Wavelength fosc(D2)      D2        DX        DY        DZ
                      (eV)      (cm-1)    (nm)                 (au**2)    (au)      (au)      (au)
----------------------------------------------------------------------------------------------------
  1-3A  ->  2-3A    0.048348     390.0  25644.1   0.000000670   0.00057   0.01908  -0.00869  -0.01123
  1-3A  ->  3-3A    1.990154   16051.7   623.0   0.000982983   0.02016  -0.00262  -0.06123   0.12808

Dispersion correction             ... done (  0.1 sec)

MULLIKEN ATOMIC CHARGES AND SPIN DENSITIES
------------------------------------------
   0 O :   -0.696305   -0.168960
   1 O :   -0.716961    0.189246
   2 O :   -0.701750   -0.004171
   3 O :   -0.588889    0.003013
   4 N :   -0.278999   -0.022929
   5 N :   -0.267718    0.001444
   6 N :   -0.027291   -0.028120
   7 N :    0.018132    0.034031
   8 C :    0.930788    0.204935
   9 C :    0.160815    0.345417
  10 C :   -0.446479   -0.369580
  11 C :    0.410834    0.045747
  12 C :   -1.246538    0.033041
  13 C :   -1.272546    0.025198
  14 C :    0.182748   -0.476328
  15 C :    0.430177    0.114865
  16 C :    0.427197    0.040529
  17 C :    0.361290   -0.003155
  18 H :    0.435154   -0.038033
  19 H :    0.634231    0.021628
  20 H :    0.263153   -0.014558
  21 H :    0.346717    0.000417
  22 H :    0.378111   -0.013346
  23 H :    0.376828    0.020154
  24 H :    0.267985   -0.009156
  25 H :    0.233420    0.058051
  26 H :    0.140466    0.005013
  27 H :    0.047611    0.001367
  28 H :    0.133214    0.006801
  29 H :    0.064605   -0.002561
Sum of atomic charges       :   -0.0000000

LOEWDIN ATOMIC CHARGES AND SPIN DENSITIES
-----------------------------------------
   0 O :    0.062536   -0.141345
   1 O :    0.062766    0.167496
   2 O :    0.046751   -0.003828
   3 O :    0.135422    0.002672
   4 N :    0.260561   -0.001229
   5 N :    0.297605   -0.003179
   6 N :    0.312296   -0.020671
   7 N :    0.313300    0.031171
   8 C :   -0.008173   -0.470783
   9 C :   -0.041324    0.451514
  10 C :   -0.129350   -0.025190
  11 C :   -0.065737    0.024738
  12 C :    0.175423   -0.063095
  13 C :    0.198507    0.066186
  14 C :   -0.471274   -0.095528
  15 C :   -0.398267    0.081550
  16 C :   -0.451880    0.000824
  17 C :   -0.514094    0.001485
  18 H :    0.048137   -0.009321
  19 H :    0.023336    0.005622
  20 H :    0.013914   -0.012052
  21 H :    0.008759   -0.000484
  22 H :    0.019264   -0.024288
  23 H :    0.016648    0.011598
  24 H :    0.014090    0.002195
  25 H :    0.003327    0.023710
  26 H :    0.015249   -0.000249
  27 H :   -0.039636   -0.000327
  28 H :    0.064946   -0.001429
  29 H :    0.026895    0.002234

  Mayer bond orders larger than 0.100000
B(  0-O , 14-C ) :   1.3663 B(  1-O ,  9-C ) :   0.1364 B(  1-O , 15-C ) :   1.1781
B(  2-O , 16-C ) :   1.4524 B(  3-O , 17-C ) :   1.6531 B(  4-N ,  8-C ) :   0.2055
B(  4-N , 10-C ) :   0.4098 B(  4-N , 16-C ) :   1.0808 B(  4-N , 18-H ) :  -0.1236
B(  4-N , 26-H ) :   0.9744 B(  5-N ,  9-C ) :   0.1309 B(  5-N , 10-C ) :   0.2125
B(  5-N , 11-C ) :   0.3291 B(  5-N , 17-C ) :   1.1092 B(  5-N , 27-H ) :   1.1165
B(  6-N , 14-C ) :   1.0751 B(  6-N , 16-C ) :   1.0032 B(  6-N , 28-H ) :   1.0421
B(  7-N , 11-C ) :   0.1221 B(  7-N , 15-C ) :   1.0792 B(  7-N , 17-C ) :   0.9501
B(  7-N , 29-H ) :   1.0712 B(  8-C , 10-C ) :   0.4331 B(  8-C , 11-C ) :   0.1083
B(  8-C , 12-C ) :   0.5402 B(  8-C , 14-C ) :   0.5975 B(  8-C , 16-C ) :   0.1101
B(  8-C , 18-H ) :  -0.1140 B(  9-C , 10-C ) :   0.3485 B(  9-C , 13-C ) :   0.3471
B(  9-C , 15-C ) :   0.9697 B(  9-C , 19-H ) :  -0.1965 B(  9-C , 24-H ) :  -0.1302
B( 10-C , 11-C ) :   0.5715 B( 10-C , 14-C ) :   0.1453 B( 10-C , 16-C ) :  -0.1575
B( 10-C , 18-H ) :   0.8205 B( 10-C , 19-H ) :  -0.1132 B( 11-C , 13-C ) :  -0.1533
B( 11-C , 15-C ) :  -0.1778 B( 11-C , 17-C ) :  -0.1897 B( 11-C , 18-H ) :  -0.1100
B( 11-C , 19-H ) :   0.7975 B( 12-C , 20-H ) :   1.0402 B( 12-C , 21-H ) :   0.8998
B( 12-C , 22-H ) :   0.8455 B( 13-C , 23-H ) :   0.8841 B( 13-C , 24-H ) :   1.1601
B( 13-C , 25-H ) :   0.8443

Dispersion correction           -0.060501837
FINAL SINGLE POINT ENERGY      -908.770127414031

DIPOLE MOMENT
-------------

Method             : TDA/CIS
Type of density    : Electron Density
Level              : Relaxed density
State              :   2
Multiplicity       :   3
Irrep              :   0
Energy             :     0.0000000000000000 Eh
Relativity type    :
Basis              : AO
                                X                 Y                 Z
Electronic contribution:     -9.829127900      -6.535924781      -2.194654771
Nuclear contribution   :     11.461681425       7.803402841       4.462194643
                        -----------------------------------------
Total Dipole Moment    :      1.632553525       1.267478060       2.267539872
                        -----------------------------------------
Magnitude (a.u.)       :      3.068137662
Magnitude (Debye)      :      7.798586174

Rotational constants in cm-1:             0.022436             0.012882             0.012098
Rotational constants in MHz :           672.617845           386.184243           362.679775

                             ****ORCA TERMINATED NORMALLY****
TOTAL RUN TIME: 0 days 0 hours 5 minutes 32 seconds 941 msec
