                         Program Version 6.0.0  -   RELEASE  -
|  1> ! Engrad def2-TZVPPD wB97M-D3BJ
|  2> %pal nprocs 8 end%pal nprocs 64 end
|  3> %tddft
|  4>  Iroot 2 Nroots 3
|  5> sf true
|  6> end
|  7> *xyz 0 3
|  8> O   2.87236635 -0.308227 -1.89027775
|  9> O   -1.69506671 1.26216439 -2.04963571
| 10> O   -0.74924348 -2.83266599 -0.99059828
| 11> O   -3.20468687 -0.25596998 1.93721335
| 12> N   0.07351353 -1.55275108 0.78690091
| 13> N   -1.17184732 0.83761646 1.89948146
| 14> N   1.04096699 -1.50539511 -1.33284526
| 15> N   -2.33687449 0.38279882 -0.06645488
| 16> C   2.07657988 -0.21790571 0.37859775
| 17> C   -0.15830169 1.45202828 -0.22695618
| 18> C   0.91076309 -0.45439701 1.26754421
| 19> C   0.09119336 0.9597095 1.17320405
| 20> C   3.20611514 0.59984288 0.93908013
| 21> C   0.83888516 2.30467214 -0.93957011
| 22> C   2.08528587 -0.633295 -0.99436158
| 23> C   -1.40286659 1.06084083 -0.84809103
| 24> C   0.00214178 -2.03276364 -0.499594
| 25> C   -2.30808373 0.31249317 1.31644278
| 26> H   1.27863977 -0.60539543 2.28472409
| 27> H   0.68557946 1.63933214 1.73194175
| 28> H   3.46046261 0.29460756 1.9093237
| 29> H   4.18915832 0.53051352 0.31940312
| 30> H   3.06049984 1.67852217 0.92035009
| 31> H   0.33121141 2.78979576 -1.74997933
| 32> H   1.1632794 3.21263565 -0.35446394
| 33> H   1.60974949 1.73901045 -1.32207079
| 34> H   -0.7482357 -1.72687566 1.32835187
| 35> H   -1.19125705 0.91382931 2.92005852
| 36> H   1.15606376 -1.91257506 -2.26075925
| 37> H   -2.98761391 -0.26059345 -0.57128768
| 38> *
| 39>
| 40>                          ****END OF INPUT****

CARTESIAN COORDINATES (ANGSTROEM)
---------------------------------
  O      2.872366   -0.308227   -1.890278
  O     -1.695067    1.262164   -2.049636
  O     -0.749243   -2.832666   -0.990598
  O     -3.204687   -0.255970    1.937213
  N      0.073514   -1.552751    0.786901
  N     -1.171847    0.837616    1.899481
  N      1.040967   -1.505395   -1.332845
  N     -2.336874    0.382799   -0.066455
  C      2.076580   -0.217906    0.378598
  C     -0.158302    1.452028   -0.226956
  C      0.910763   -0.454397    1.267544
  C      0.091193    0.959709    1.173204
  C      3.206115    0.599843    0.939080
  C      0.838885    2.304672   -0.939570
  C      2.085286   -0.633295   -0.994362
  C     -1.402867    1.060841   -0.848091
  C      0.002142   -2.032764   -0.499594
  C     -2.308084    0.312493    1.316443
  H      1.278640   -0.605395    2.284724
  H      0.685579    1.639332    1.731942
  H      3.460463    0.294608    1.909324
  H      4.189158    0.530514    0.319403
  H      3.060500    1.678522    0.920350
  H      0.331211    2.789796   -1.749979
  H      1.163279    3.212636   -0.354464
  H      1.609749    1.739010   -1.322071
  H     -0.748236   -1.726876    1.328352
  H     -1.191257    0.913829    2.920059
  H      1.156064   -1.912575   -2.260759
  H     -2.987614   -0.260593   -0.571288

 Total Charge           Charge          ....    0
 Multiplicity           Mult            ....    3
 Number of Electrons    NEL             ....  132
 Basis Dimension        Dim             ....  882

ORBITAL ENERGIES
----------------
                 SPIN UP ORBITALS
  NO   OCC          E(Eh)            E(eV)
   0   1.0000     -19.336363      -526.1692
   1   1.0000     -19.333769      -526.0986
   2   1.0000     -19.328277      -525.9492
   3   1.0000     -19.322911      -525.8031
   4   1.0000     -14.569438      -396.4546
   5   1.0000     -14.568851      -396.4386
   6   1.0000     -14.566254      -396.3679
   7   1.0000     -14.557173      -396.1208
   8   1.0000     -10.513672      -286.0916
   9   1.0000     -10.510903      -286.0162
  10   1.0000     -10.484034      -285.2851
  11   1.0000     -10.482961      -285.2559
  12   1.0000     -10.457287      -284.5572
  13   1.0000     -10.453368      -284.4506
  14   1.0000     -10.429129      -283.7910
  15   1.0000     -10.425695      -283.6976
  16   1.0000     -10.383555      -282.5509
  17   1.0000     -10.366483      -282.0863
  18   1.0000      -1.219499       -33.1843
  19   1.0000      -1.211731       -32.9729
  20   1.0000      -1.191467       -32.4215
  21   1.0000      -1.182253       -32.1707
  22   1.0000      -1.120129       -30.4803
  23   1.0000      -1.096995       -29.8508
  24   1.0000      -1.058247       -28.7964
  25   1.0000      -1.047052       -28.4917
  26   1.0000      -0.991066       -26.9683
  27   1.0000      -0.957422       -26.0528
  28   1.0000      -0.889150       -24.1950
  29   1.0000      -0.847623       -23.0650
  30   1.0000      -0.831389       -22.6232
  31   1.0000      -0.808127       -21.9903
  32   1.0000      -0.783676       -21.3249
  33   1.0000      -0.781326       -21.2610
  34   1.0000      -0.697562       -18.9816
  35   1.0000      -0.696607       -18.9556
  36   1.0000      -0.688872       -18.7451
  37   1.0000      -0.680795       -18.5254
  38   1.0000      -0.655506       -17.8372
  39   1.0000      -0.640662       -17.4333
  40   1.0000      -0.629878       -17.1399
  41   1.0000      -0.601107       -16.3570
  42   1.0000      -0.595545       -16.2056
  43   1.0000      -0.583814       -15.8864
  44   1.0000      -0.581228       -15.8160
  45   1.0000      -0.573356       -15.6018
  46   1.0000      -0.568006       -15.4562
  47   1.0000      -0.560393       -15.2491
  48   1.0000      -0.558502       -15.1976
  49   1.0000      -0.555132       -15.1059
  50   1.0000      -0.551320       -15.0022
  51   1.0000      -0.539508       -14.6808
  52   1.0000      -0.535784       -14.5794
  53   1.0000      -0.522215       -14.2102
  54   1.0000      -0.515498       -14.0274
  55   1.0000      -0.502021       -13.6607
  56   1.0000      -0.486374       -13.2349
  57   1.0000      -0.428343       -11.6558
  58   1.0000      -0.420290       -11.4367
  59   1.0000      -0.414950       -11.2914
  60   1.0000      -0.405120       -11.0239
  61   1.0000      -0.401985       -10.9386
  62   1.0000      -0.396340       -10.7850
  63   1.0000      -0.390726       -10.6322
  64   1.0000      -0.385687       -10.4951
  65   1.0000      -0.351839        -9.5740
  66   1.0000      -0.333254        -9.0683
  67   0.0000       0.005460         0.1486
  68   0.0000       0.029259         0.7962
  69   0.0000       0.031036         0.8445
  70   0.0000       0.037014         1.0072
  71   0.0000       0.054573         1.4850

                 SPIN DOWN ORBITALS
  NO   OCC          E(Eh)            E(eV)
   0   1.0000     -19.330661      -526.0140
   1   1.0000     -19.329773      -525.9899
   2   1.0000     -19.328233      -525.9480
   3   1.0000     -19.322711      -525.7977
   4   1.0000     -14.568917      -396.4404
   5   1.0000     -14.568719      -396.4350
   6   1.0000     -14.565946      -396.3595
   7   1.0000     -14.556008      -396.0891
   8   1.0000     -10.513743      -286.0935
   9   1.0000     -10.510951      -286.0175
  10   1.0000     -10.485393      -285.3220
  11   1.0000     -10.483888      -285.2811
  12   1.0000     -10.456919      -284.5472
  13   1.0000     -10.452673      -284.4317
  14   1.0000     -10.417985      -283.4878
  15   1.0000     -10.414511      -283.3933
  16   1.0000     -10.384177      -282.5678
  17   1.0000     -10.366921      -282.0983
  18   1.0000      -1.218555       -33.1586
  19   1.0000      -1.210293       -32.9337
  20   1.0000      -1.186067       -32.2745
  21   1.0000      -1.175381       -31.9838
  22   1.0000      -1.117385       -30.4056
  23   1.0000      -1.094674       -29.7876
  24   1.0000      -1.056001       -28.7353
  25   1.0000      -1.044603       -28.4251
  26   1.0000      -0.977560       -26.6008
  27   1.0000      -0.939941       -25.5771
  28   1.0000      -0.883663       -24.0457
  29   1.0000      -0.843039       -22.9402
  30   1.0000      -0.821931       -22.3659
  31   1.0000      -0.802180       -21.8284
  32   1.0000      -0.782111       -21.2823
  33   1.0000      -0.779620       -21.2145
  34   1.0000      -0.693339       -18.8667
  35   1.0000      -0.691612       -18.8197
  36   1.0000      -0.682734       -18.5781
  37   1.0000      -0.672919       -18.3110
  38   1.0000      -0.645280       -17.5590
  39   1.0000      -0.635190       -17.2844
  40   1.0000      -0.623032       -16.9536
  41   1.0000      -0.596614       -16.2347
  42   1.0000      -0.589027       -16.0282
  43   1.0000      -0.575689       -15.6653
  44   1.0000      -0.574579       -15.6351
  45   1.0000      -0.568804       -15.4779
  46   1.0000      -0.561264       -15.2728
  47   1.0000      -0.553925       -15.0731
  48   1.0000      -0.551675       -15.0118
  49   1.0000      -0.549066       -14.9408
  50   1.0000      -0.545877       -14.8541
  51   1.0000      -0.531313       -14.4578
  52   1.0000      -0.527407       -14.3515
  53   1.0000      -0.511698       -13.9240
  54   1.0000      -0.501212       -13.6387
  55   1.0000      -0.498510       -13.5652
  56   1.0000      -0.482685       -13.1345
  57   1.0000      -0.424573       -11.5532
  58   1.0000      -0.416840       -11.3428
  59   1.0000      -0.410516       -11.1707
  60   1.0000      -0.390667       -10.6306
  61   1.0000      -0.388489       -10.5713
  62   1.0000      -0.386225       -10.5097
  63   1.0000      -0.384002       -10.4492
  64   1.0000      -0.374812       -10.1991
  65   0.0000      -0.069472        -1.8904
  66   0.0000      -0.063020        -1.7149
  67   0.0000       0.004990         0.1358
  68   0.0000       0.028935         0.7874
  69   0.0000       0.030954         0.8423

----------------------------------------------------------------------------------------------------
          SPIN FLIP ABSORPTION SPECTRUM VIA TRANSITION ELECTRIC DIPOLE MOMENTS
----------------------------------------------------------------------------------------------------
     Transition      Energy     Energy  Wavelength fosc(D2)      D2        DX        DY        DZ
                      (eV)      (cm-1)    (nm)                 (au**2)    (au)      (au)      (au)
----------------------------------------------------------------------------------------------------
  1-3A  ->  2-3A    0.052817     426.0  23474.5   0.000000202   0.00016  -0.00725   0.01012  -0.00104
  1-3A  ->  3-3A    1.855120   14962.6   668.3   0.000006182   0.00014   0.00490  -0.00638   0.00844

Dispersion correction             ... done (  0.1 sec)

MULLIKEN ATOMIC CHARGES AND SPIN DENSITIES
------------------------------------------
   0 O :   -0.701503    0.152776
   1 O :   -0.706075   -0.202329
   2 O :   -0.631508    0.002165
   3 O :   -0.652444    0.000946
   4 N :   -0.211757    0.009923
   5 N :   -0.250992   -0.008742
   6 N :    0.006732    0.020882
   7 N :   -0.000156   -0.012276
   8 C :   -0.054207    0.386067
   9 C :    1.118272    0.349941
  10 C :    0.546181    0.045235
  11 C :   -0.180858   -0.457886
  12 C :   -1.430199    0.018788
  13 C :   -1.357153   -0.074408
  14 C :    0.635879    0.157688
  15 C :   -0.128503   -0.448414
  16 C :    0.386580   -0.007466
  17 C :    0.381340    0.026231
  18 H :    0.453226    0.023333
  19 H :    0.575573   -0.017809
  20 H :    0.378635    0.002286
  21 H :    0.329524    0.010756
  22 H :    0.252985    0.018364
  23 H :    0.357461   -0.015091
  24 H :    0.303466    0.013761
  25 H :    0.283198    0.011859
  26 H :    0.047675   -0.004810
  27 H :    0.088571    0.000552
  28 H :    0.051859   -0.004399
  29 H :    0.108200    0.002077
Sum of atomic charges       :    0.0000000

LOEWDIN ATOMIC CHARGES AND SPIN DENSITIES
-----------------------------------------
   0 O :    0.068776    0.128882
   1 O :    0.051913   -0.180324
   2 O :    0.104415    0.001635
   3 O :    0.059944    0.000752
   4 N :    0.295611   -0.000022
   5 N :    0.263568    0.001789
   6 N :    0.321835    0.022089
   7 N :    0.299774   -0.015783
   8 C :   -0.062361    0.488373
   9 C :    0.024753   -0.465566
  10 C :   -0.060489    0.021003
  11 C :   -0.078518   -0.015092
  12 C :    0.193028    0.068650
  13 C :    0.223327   -0.062751
  14 C :   -0.413359    0.082227
  15 C :   -0.386148   -0.083562
  16 C :   -0.458093   -0.000705
  17 C :   -0.490414    0.000914
  18 H :    0.057448    0.004421
  19 H :    0.025869   -0.003978
  20 H :   -0.041096    0.006347
  21 H :    0.060052    0.004955
  22 H :   -0.008840    0.022947
  23 H :   -0.007262   -0.000122
  24 H :    0.045754   -0.012713
  25 H :   -0.061210   -0.015576
  26 H :   -0.049959    0.000064
  27 H :   -0.010081    0.000152
  28 H :   -0.004386    0.002061
  29 H :    0.036148   -0.001068

  Mayer bond orders larger than 0.100000
B(  0-O , 14-C ) :   1.4524 B(  1-O ,  9-C ) :   0.1157 B(  1-O , 15-C ) :   1.2474
B(  2-O , 16-C ) :   1.5860 B(  3-O , 17-C ) :   1.6134 B(  4-N ,  8-C ) :   0.2237
B(  4-N ,  9-C ) :   0.1227 B(  4-N , 10-C ) :   0.4810 B(  4-N , 16-C ) :   0.9992
B(  4-N , 26-H ) :   1.0786 B(  5-N ,  9-C ) :   0.2215 B(  5-N , 10-C ) :   0.1055
B(  5-N , 11-C ) :   0.1590 B(  5-N , 17-C ) :   1.1581 B(  5-N , 27-H ) :   1.0670
B(  6-N ,  8-C ) :  -0.1481 B(  6-N , 10-C ) :   0.1392 B(  6-N , 14-C ) :   1.1400
B(  6-N , 16-C ) :   0.9326 B(  6-N , 28-H ) :   1.0896 B(  7-N ,  9-C ) :  -0.1399
B(  7-N , 11-C ) :   0.1402 B(  7-N , 15-C ) :   1.0223 B(  7-N , 17-C ) :   0.9184
B(  7-N , 29-H ) :   1.0676 B(  8-C ,  9-C ) :   0.1651 B(  8-C , 10-C ) :   0.2327
B(  8-C , 11-C ) :   0.2850 B(  8-C , 12-C ) :   0.6218 B(  8-C , 14-C ) :   0.5132
B(  8-C , 16-C ) :   0.1359 B(  8-C , 18-H ) :  -0.2365 B(  9-C , 11-C ) :   0.2068
B(  9-C , 13-C ) :   0.4327 B(  9-C , 15-C ) :   0.3500 B(  9-C , 19-H ) :  -0.1274
B(  9-C , 23-H ) :  -0.1080 B( 10-C , 11-C ) :   0.5253 B( 10-C , 12-C ) :  -0.1514
B( 10-C , 16-C ) :  -0.1322 B( 10-C , 18-H ) :   0.9649 B( 11-C , 13-C ) :  -0.1489
B( 11-C , 15-C ) :   0.1792 B( 11-C , 17-C ) :  -0.1967 B( 11-C , 18-H ) :  -0.1178
B( 11-C , 19-H ) :   0.7580 B( 12-C , 20-H ) :   0.9973 B( 12-C , 21-H ) :   0.9201
B( 12-C , 22-H ) :   0.8951 B( 13-C , 23-H ) :   0.9561 B( 13-C , 24-H ) :   1.0111
B( 13-C , 25-H ) :   0.8079 B( 15-C , 17-C ) :  -0.1139

Dispersion correction           -0.059754741
FINAL SINGLE POINT ENERGY      -908.778634393673

DIPOLE MOMENT
-------------

Method             : TDA/CIS
Type of density    : Electron Density
Level              : Relaxed density
State              :   2
Multiplicity       :   3
Irrep              :   0
Energy             :     0.0000000000000000 Eh
Relativity type    :
Basis              : AO
                                X                 Y                 Z
Electronic contribution:     -9.356455486      -7.079002999      -2.767248868
Nuclear contribution   :     11.287210104       8.245685149       5.062757428
                        -----------------------------------------
Total Dipole Moment    :      1.930754618       1.166682150       2.295508560
                        -----------------------------------------
Magnitude (a.u.)       :      3.218434431
Magnitude (Debye)      :      8.180610199

Rotational constants in cm-1:             0.020793             0.013205             0.012450
Rotational constants in MHz :           623.349732           395.874405           373.245946

                             ****ORCA TERMINATED NORMALLY****
TOTAL RUN TIME: 0 days 0 hours 5 minutes 28 seconds 448 msec
