                         Program Version 6.0.0  -   RELEASE  -
|  1> ! Engrad def2-TZVPPD wB97M-D3BJ
|  2> %pal nprocs 8 end%pal nprocs 64 end
|  3> %tddft Nroots 2 Iroot 2
|  4> sf true
|  5> end
|  6> *xyz 0 3
|  7> O   2.35145495 -0.44270264 -1.19216708
|  8> O   -0.24311088 3.0028494 -2.34739919
|  9> O   0.44701003 -3.99311921 0.75896717
| 10> O   -2.02025286 -1.08081973 -1.33259332
| 11> N   0.42150655 -1.99612532 1.9953994
| 12> N   -1.29518177 -0.06314274 0.51205596
| 13> N   1.15338495 -2.06932777 -0.22966818
| 14> N   -0.8768698 0.83978387 -1.69180222
| 15> C   1.34325027 0.06515809 0.9503777
| 16> C   -1.31193317 2.7304973 -0.27698713
| 17> C   0.66726888 -0.56323417 2.10421071
| 18> C   -0.15633052 0.37199593 1.25881074
| 19> C   2.23037453 1.37170537 1.02585614
| 20> C   -1.32270727 3.58001902 0.90675297
| 21> C   1.62346909 -0.77503175 -0.22272962
| 22> C   -0.81029594 2.27585815 -1.54306735
| 23> C   0.60675747 -2.77627876 0.87721969
| 24> C   -1.44362674 -0.1267725 -0.87238248
| 25> H   0.75176507 -0.16192096 3.06479448
| 26> H   -0.27129327 1.34846652 1.77194218
| 27> H   1.99301579 2.13338175 0.23577964
| 28> H   2.07169583 1.86562875 1.99298962
| 29> H   3.30397271 1.01128189 0.95707775
| 30> H   -2.00687695 3.29003792 1.6817948
| 31> H   -0.29926928 3.7113322 1.37342025
| 32> H   -1.54130656 4.61576091 0.54776676
| 33> H   0.33862202 -2.61947799 2.80961712
| 34> H   -2.02006303 -0.66411224 1.00327474
| 35> H   1.19788351 -2.6132648 -1.0899455
| 36> H   -0.74482502 0.51334423 -2.61987013
| 37> *
| 38>
| 39>                          ****END OF INPUT****

CARTESIAN COORDINATES (ANGSTROEM)
---------------------------------
  O      2.351455   -0.442703   -1.192167
  O     -0.243111    3.002849   -2.347399
  O      0.447010   -3.993119    0.758967
  O     -2.020253   -1.080820   -1.332593
  N      0.421507   -1.996125    1.995399
  N     -1.295182   -0.063143    0.512056
  N      1.153385   -2.069328   -0.229668
  N     -0.876870    0.839784   -1.691802
  C      1.343250    0.065158    0.950378
  C     -1.311933    2.730497   -0.276987
  C      0.667269   -0.563234    2.104211
  C     -0.156331    0.371996    1.258811
  C      2.230375    1.371705    1.025856
  C     -1.322707    3.580019    0.906753
  C      1.623469   -0.775032   -0.222730
  C     -0.810296    2.275858   -1.543067
  C      0.606757   -2.776279    0.877220
  C     -1.443627   -0.126773   -0.872382
  H      0.751765   -0.161921    3.064794
  H     -0.271293    1.348467    1.771942
  H      1.993016    2.133382    0.235780
  H      2.071696    1.865629    1.992990
  H      3.303973    1.011282    0.957078
  H     -2.006877    3.290038    1.681795
  H     -0.299269    3.711332    1.373420
  H     -1.541307    4.615761    0.547767
  H      0.338622   -2.619478    2.809617
  H     -2.020063   -0.664112    1.003275
  H      1.197884   -2.613265   -1.089946
  H     -0.744825    0.513344   -2.619870

 Total Charge           Charge          ....    0
 Multiplicity           Mult            ....    3
 Number of Electrons    NEL             ....  132
 Basis Dimension        Dim             ....  882

ORBITAL ENERGIES
----------------
                 SPIN UP ORBITALS
  NO   OCC          E(Eh)            E(eV)
   0   1.0000     -19.343742      -526.3700
   1   1.0000     -19.324113      -525.8359
   2   1.0000     -19.323016      -525.8060
   3   1.0000     -19.318257      -525.6765
   4   1.0000     -14.575604      -396.6224
   5   1.0000     -14.562489      -396.2655
   6   1.0000     -14.559199      -396.1760
   7   1.0000     -14.558270      -396.1507
   8   1.0000     -10.512328      -286.0550
   9   1.0000     -10.503401      -285.8121
  10   1.0000     -10.498520      -285.6793
  11   1.0000     -10.488525      -285.4073
  12   1.0000     -10.448195      -284.3098
  13   1.0000     -10.434082      -283.9258
  14   1.0000     -10.422878      -283.6209
  15   1.0000     -10.415360      -283.4163
  16   1.0000     -10.399309      -282.9796
  17   1.0000     -10.381558      -282.4966
  18   1.0000      -1.214968       -33.0610
  19   1.0000      -1.206204       -32.8225
  20   1.0000      -1.197941       -32.5976
  21   1.0000      -1.172853       -31.9149
  22   1.0000      -1.117971       -30.4215
  23   1.0000      -1.077273       -29.3141
  24   1.0000      -1.059764       -28.8376
  25   1.0000      -1.048759       -28.5382
  26   1.0000      -1.008038       -27.4301
  27   1.0000      -0.939538       -25.5661
  28   1.0000      -0.869645       -23.6643
  29   1.0000      -0.838943       -22.8288
  30   1.0000      -0.819224       -22.2922
  31   1.0000      -0.803079       -21.8529
  32   1.0000      -0.776831       -21.1387
  33   1.0000      -0.757884       -20.6231
  34   1.0000      -0.716342       -19.4926
  35   1.0000      -0.692891       -18.8545
  36   1.0000      -0.682693       -18.5770
  37   1.0000      -0.668012       -18.1775
  38   1.0000      -0.635377       -17.2895
  39   1.0000      -0.619187       -16.8489
  40   1.0000      -0.607763       -16.5381
  41   1.0000      -0.605632       -16.4801
  42   1.0000      -0.598084       -16.2747
  43   1.0000      -0.586628       -15.9630
  44   1.0000      -0.575566       -15.6619
  45   1.0000      -0.571149       -15.5418
  46   1.0000      -0.568026       -15.4568
  47   1.0000      -0.559202       -15.2166
  48   1.0000      -0.552650       -15.0384
  49   1.0000      -0.544581       -14.8188
  50   1.0000      -0.541398       -14.7322
  51   1.0000      -0.538193       -14.6450
  52   1.0000      -0.521389       -14.1877
  53   1.0000      -0.514815       -14.0088
  54   1.0000      -0.506123       -13.7723
  55   1.0000      -0.490043       -13.3347
  56   1.0000      -0.437863       -11.9149
  57   1.0000      -0.421101       -11.4588
  58   1.0000      -0.416085       -11.3222
  59   1.0000      -0.410029       -11.1575
  60   1.0000      -0.401985       -10.9386
  61   1.0000      -0.386175       -10.5084
  62   1.0000      -0.385278       -10.4840
  63   1.0000      -0.377992       -10.2857
  64   1.0000      -0.370779       -10.0894
  65   1.0000      -0.349911        -9.5216
  66   1.0000      -0.332709        -9.0535
  67   0.0000       0.006693         0.1821
  68   0.0000       0.025229         0.6865
  69   0.0000       0.029630         0.8063
  70   0.0000       0.036532         0.9941
  71   0.0000       0.042078         1.1450

                 SPIN DOWN ORBITALS
  NO   OCC          E(Eh)            E(eV)
   0   1.0000     -19.336970      -526.1857
   1   1.0000     -19.324097      -525.8354
   2   1.0000     -19.323015      -525.8060
   3   1.0000     -19.318281      -525.6772
   4   1.0000     -14.575577      -396.6216
   5   1.0000     -14.562488      -396.2655
   6   1.0000     -14.558627      -396.1604
   7   1.0000     -14.557620      -396.1330
   8   1.0000     -10.512327      -286.0550
   9   1.0000     -10.503383      -285.8116
  10   1.0000     -10.500004      -285.7196
  11   1.0000     -10.488529      -285.4074
  12   1.0000     -10.448164      -284.3090
  13   1.0000     -10.434055      -283.9251
  14   1.0000     -10.422840      -283.6199
  15   1.0000     -10.400380      -283.0087
  16   1.0000     -10.390092      -282.7288
  17   1.0000     -10.381552      -282.4964
  18   1.0000      -1.213529       -33.0218
  19   1.0000      -1.205958       -32.8158
  20   1.0000      -1.188189       -32.3323
  21   1.0000      -1.172833       -31.9144
  22   1.0000      -1.117814       -30.4173
  23   1.0000      -1.075547       -29.2671
  24   1.0000      -1.057933       -28.7878
  25   1.0000      -1.048407       -28.5286
  26   1.0000      -1.007676       -27.4203
  27   1.0000      -0.910136       -24.7661
  28   1.0000      -0.869572       -23.6623
  29   1.0000      -0.820656       -22.3312
  30   1.0000      -0.817509       -22.2456
  31   1.0000      -0.802620       -21.8404
  32   1.0000      -0.775611       -21.1054
  33   1.0000      -0.754819       -20.5397
  34   1.0000      -0.712661       -19.3925
  35   1.0000      -0.692586       -18.8462
  36   1.0000      -0.672367       -18.2960
  37   1.0000      -0.667222       -18.1560
  38   1.0000      -0.629593       -17.1321
  39   1.0000      -0.609430       -16.5834
  40   1.0000      -0.605186       -16.4680
  41   1.0000      -0.601511       -16.3679
  42   1.0000      -0.591458       -16.0944
  43   1.0000      -0.572759       -15.5856
  44   1.0000      -0.565412       -15.3856
  45   1.0000      -0.561230       -15.2719
  46   1.0000      -0.557734       -15.1767
  47   1.0000      -0.555766       -15.1232
  48   1.0000      -0.548904       -14.9364
  49   1.0000      -0.544215       -14.8088
  50   1.0000      -0.540333       -14.7032
  51   1.0000      -0.531243       -14.4559
  52   1.0000      -0.514518       -14.0007
  53   1.0000      -0.509347       -13.8600
  54   1.0000      -0.505866       -13.7653
  55   1.0000      -0.489150       -13.3105
  56   1.0000      -0.426080       -11.5942
  57   1.0000      -0.420376       -11.4390
  58   1.0000      -0.415127       -11.2962
  59   1.0000      -0.399193       -10.8626
  60   1.0000      -0.391330       -10.6486
  61   1.0000      -0.384382       -10.4596
  62   1.0000      -0.382986       -10.4216
  63   1.0000      -0.373124       -10.1532
  64   1.0000      -0.369118       -10.0442
  65   0.0000      -0.043197        -1.1755
  66   0.0000       0.000924         0.0251
  67   0.0000       0.007424         0.2020
  68   0.0000       0.025251         0.6871
  69   0.0000       0.030676         0.8347

----------------------------------------------------------------------------------------------------
          SPIN FLIP ABSORPTION SPECTRUM VIA TRANSITION ELECTRIC DIPOLE MOMENTS
----------------------------------------------------------------------------------------------------
     Transition      Energy     Energy  Wavelength fosc(D2)      D2        DX        DY        DZ
                      (eV)      (cm-1)    (nm)                 (au**2)    (au)      (au)      (au)
----------------------------------------------------------------------------------------------------
  1-3A  ->  2-3A    0.397234    3203.9  3121.2   0.000046776   0.00481   0.02613   0.05488  -0.03334

Dispersion correction             ... done (  0.1 sec)

MULLIKEN ATOMIC CHARGES AND SPIN DENSITIES
------------------------------------------
   0 O :   -0.695907   -0.000954
   1 O :   -0.598403   -0.118297
   2 O :   -0.655483    0.000001
   3 O :   -0.644677   -0.003466
   4 N :   -0.136414    0.000746
   5 N :   -0.058329    0.033509
   6 N :    0.024871   -0.000414
   7 N :    0.122962   -0.017585
   8 C :    1.631347   -0.001086
   9 C :    0.535241    0.364355
  10 C :   -0.112643   -0.004292
  11 C :   -0.612456   -0.019599
  12 C :   -1.554712    0.001842
  13 C :   -0.998478    0.001054
  14 C :   -0.056330    0.004587
  15 C :    0.193941   -0.260000
  16 C :    0.430514   -0.000920
  17 C :    0.437713   -0.010481
  18 H :    0.326408    0.000654
  19 H :    0.277046    0.000656
  20 H :    0.252515   -0.002903
  21 H :    0.346223    0.000671
  22 H :    0.373334    0.000587
  23 H :    0.295204    0.012088
  24 H :    0.236280   -0.018262
  25 H :    0.341198    0.036807
  26 H :    0.086181    0.000048
  27 H :    0.126583   -0.001518
  28 H :    0.056087    0.000049
  29 H :    0.030185    0.002123
Sum of atomic charges       :    0.0000000

LOEWDIN ATOMIC CHARGES AND SPIN DENSITIES
-----------------------------------------
   0 O :    0.058666   -0.000183
   1 O :    0.076851   -0.105517
   2 O :    0.065791    0.000065
   3 O :    0.090432   -0.003555
   4 N :    0.288171    0.000576
   5 N :    0.240386    0.024132
   6 N :    0.323831   -0.000032
   7 N :    0.316537   -0.009234
   8 C :   -0.185567    0.000567
   9 C :    0.203628    0.112720
  10 C :   -0.032524    0.000029
  11 C :   -0.087301    0.005425
  12 C :    0.209103   -0.000500
  13 C :    0.091099    0.003983
  14 C :   -0.351476   -0.000017
  15 C :   -0.459117   -0.034290
  16 C :   -0.433945    0.000073
  17 C :   -0.498178    0.000694
  18 H :    0.025523   -0.000014
  19 H :    0.027964    0.001144
  20 H :    0.018084   -0.000182
  21 H :   -0.014262   -0.000212
  22 H :    0.024360    0.000018
  23 H :   -0.018689    0.003968
  24 H :    0.023793   -0.027544
  25 H :    0.013962    0.026708
  26 H :   -0.008846    0.000042
  27 H :    0.028017    0.000915
  28 H :    0.004483   -0.000008
  29 H :   -0.040776    0.000229

  Mayer bond orders larger than 0.100000
B(  0-O , 14-C ) :   1.3859 B(  1-O , 15-C ) :   1.4464 B(  2-O , 16-C ) :   1.5905
B(  3-O , 17-C ) :   1.4863 B(  4-N , 10-C ) :   0.8247 B(  4-N , 16-C ) :   1.0818
B(  4-N , 26-H ) :   1.0857 B(  5-N , 10-C ) :  -0.1112 B(  5-N , 11-C ) :   0.8782
B(  5-N , 17-C ) :   0.9727 B(  5-N , 19-H ) :  -0.1038 B(  5-N , 27-H ) :   1.0161
B(  6-N , 10-C ) :   0.1158 B(  6-N , 14-C ) :   1.0082 B(  6-N , 16-C ) :   0.9406
B(  6-N , 28-H ) :   1.0850 B(  7-N , 11-C ) :   0.1022 B(  7-N , 15-C ) :   0.9601
B(  7-N , 17-C ) :   0.9663 B(  7-N , 29-H ) :   1.1337 B(  8-C , 10-C ) :   0.4902
B(  8-C , 11-C ) :   0.3449 B(  8-C , 14-C ) :   0.4538 B(  8-C , 21-H ) :  -0.1160
B(  9-C , 13-C ) :   0.4508 B(  9-C , 15-C ) :   0.8461 B( 10-C , 11-C ) :   0.7159
B( 10-C , 12-C ) :  -0.1708 B( 10-C , 18-H ) :   1.0409 B( 11-C , 12-C ) :   0.1729
B( 11-C , 14-C ) :   0.1198 B( 11-C , 19-H ) :   1.1382 B( 12-C , 20-H ) :   1.0111
B( 12-C , 21-H ) :   1.0659 B( 12-C , 22-H ) :   0.8570 B( 13-C , 23-H ) :   0.9884
B( 13-C , 24-H ) :   0.9183 B( 13-C , 25-H ) :   0.9108

Dispersion correction           -0.054056343
FINAL SINGLE POINT ENERGY      -908.658175572377

DIPOLE MOMENT
-------------

Method             : TDA/CIS
Type of density    : Electron Density
Level              : Relaxed density
State              :   2
Multiplicity       :   3
Irrep              :   0
Energy             :     0.0000000000000000 Eh
Relativity type    :
Basis              : AO
                                X                 Y                 Z
Electronic contribution:     -2.005402461     -10.056721537      -7.572764853
Nuclear contribution   :      1.701855055      11.599480131      10.731650455
                        -----------------------------------------
Total Dipole Moment    :     -0.303547407       1.542758594       3.158885602
                        -----------------------------------------
Magnitude (a.u.)       :      3.528569590
Magnitude (Debye)      :      8.968911127

Rotational constants in cm-1:             0.022622             0.011103             0.010464
Rotational constants in MHz :           678.184597           332.855486           313.715061

                             ****ORCA TERMINATED NORMALLY****
TOTAL RUN TIME: 0 days 0 hours 4 minutes 31 seconds 947 msec
