                         Program Version 6.0.0  -   RELEASE  -
|  1> ! opt def2-TZVPPD wB97M-D3BJ
|  2> %pal nprocs 8 end%pal nprocs 32 end
|  3> %geom Constraints
|  4> {B 9 8 2.7 C}
|  5> {A 8 9 11 98.0 C}
|  6> end
|  7> MaxIter 300
|  8> end
|  9> *xyz 0 1
| 10> O   2.98579685529314 0.88758230159078 -0.86184571092411
| 11> O   -0.03983205397054 0.68929041702508 -2.10362336723772
| 12> O   0.93431434349854 -3.13274393337945 -0.68767288184107
| 13> O   -3.75829998830163 -0.84727300865116 -0.0472717177755
| 14> N   0.21184538946282 -1.54604804365365 0.7617588924445
| 15> N   -2.13631993928911 0.03188773433438 1.27350571071531
| 16> N   2.02598672506387 -1.14318467211666 -0.64531219127023
| 17> N   -1.91814233924584 0.03137116037665 -1.04498946748291
| 18> C   1.18097737274226 0.71693507080484 0.70173889017321
| 19> C   -0.20686880480777 1.27024627933494 0.21345042231937
| 20> C   0.41441080275909 -0.34173258966541 1.52336266615173
| 21> C   -0.82922175114212 0.58960593673968 1.44434972027296
| 22> C   1.92822011286806 1.69488653817281 1.5963734975385
| 23> C   -0.37809776891576 2.77134929626422 0.04819649358288
| 24> C   2.1403947470937 0.1972384729179 -0.35038567829864
| 25> C   -0.67361678962426 0.6214190571346 -1.0793014500539
| 26> C   1.04142578622994 -2.02697492875068 -0.21027082435993
| 27> C   -2.68467002550422 -0.30396816036989 0.07167054343891
| 28> H   0.80817443950001 -0.54572267081061 2.51895215321335
| 29> H   -0.83785272399001 1.27240685039143 2.28901317073582
| 30> H   2.31167340578204 2.52284411740894 1.00913016264629
| 31> H   1.28982602448342 2.08257620823614 2.38710022492991
| 32> H   2.77390820759972 1.19140411795486 2.06045858523949
| 33> H   -1.41857211141493 3.00964947214868 -0.16882755561625
| 34> H   -0.09065531563179 3.29799318042223 0.95389844358819
| 35> H   0.23426221611057 3.12492645074476 -0.77764887675592
| 36> H   -0.46772570547622 -2.21560145172536 1.0787081584806
| 37> H   -2.71769301149571 -0.17090724573546 2.06627440900372
| 38> H   2.60065167263658 -1.49057255715425 -1.3966820077142
| 39> H   -2.27169977231386 -0.32388339999036 -1.91951041514436
| 40> *
| 41>
| 42>                          ****END OF INPUT****
 Total Charge           Charge          ....    0
 Multiplicity           Mult            ....    1
 Number of Electrons    NEL             ....  132
Dispersion correction           -0.055109326
FINAL SINGLE POINT ENERGY      -908.645574581963
Dispersion correction             ... done (  0.0 sec)
Dispersion correction           -0.055619195
FINAL SINGLE POINT ENERGY      -908.674968622042
Dispersion correction             ... done (  0.0 sec)
Dispersion correction           -0.056335288
FINAL SINGLE POINT ENERGY      -908.694118207956
Dispersion correction             ... done (  0.0 sec)
FINAL SINGLE POINT ENERGY      -908.713023184947
FINAL SINGLE POINT ENERGY      -908.756854327462
FINAL SINGLE POINT ENERGY      -908.808300558556
FINAL SINGLE POINT ENERGY      -908.839229821000
FINAL SINGLE POINT ENERGY      -908.857018270298
FINAL SINGLE POINT ENERGY      -908.875458250232
FINAL SINGLE POINT ENERGY      -908.892009007941
FINAL SINGLE POINT ENERGY      -908.919428447628
FINAL SINGLE POINT ENERGY      -908.919605023139
FINAL SINGLE POINT ENERGY      -908.919728565160
FINAL SINGLE POINT ENERGY      -908.919824114122
FINAL SINGLE POINT ENERGY      -908.919881841312
FINAL SINGLE POINT ENERGY      -908.919910707225
FINAL SINGLE POINT ENERGY      -908.919932473350
Dispersion correction             ... done (  0.0 sec)
Dispersion correction           -0.061014404
FINAL SINGLE POINT ENERGY      -908.919943480785
Dispersion correction             ... done (  0.0 sec)
Dispersion correction           -0.060986855
FINAL SINGLE POINT ENERGY      -908.919947616687
Dispersion correction             ... done (  0.0 sec)
                    ***********************HURRAY********************

CARTESIAN COORDINATES (ANGSTROEM)
---------------------------------
  O      2.892181    1.229783   -0.491621
  O     -0.500095    0.478295   -1.943902
  O      1.324494   -2.863360   -1.691697
  O     -3.115325   -1.396263    1.247414
  N      0.652069   -1.967857    0.291335
  N     -2.243606    0.675560    1.626965
  N      2.117494   -0.817801   -1.056643
  N     -1.908230   -0.366100   -0.392044
  C      1.306438    0.225367    0.963845
  C     -0.766488    1.707546    0.071587
  C      0.667060   -0.931565    1.191886
  C     -1.473327    1.740557    1.205635
  C      1.499031    1.262306    2.026131
  C      0.012480    2.878479   -0.441383
  C      2.160496    0.297584   -0.229484
  C     -1.007711    0.595560   -0.850372
  C      1.358249   -1.955318   -0.895434
  C     -2.476431   -0.442189    0.858846
  H      0.107157   -1.108249    2.098285
  H     -1.428068    2.574511    1.888646
  H      1.381343    2.267312    1.635221
  H      0.793040    1.110408    2.839685
  H      2.508531    1.196531    2.429555
  H     -0.414749    3.222827   -1.381351
  H     -0.016139    3.696819    0.274818
  H      1.049219    2.621313   -0.637513
  H      0.102068   -2.790635    0.462048
  H     -2.706701    0.689987    2.517500
  H      2.637940   -0.757668   -1.917261
  H     -2.059821   -1.158739   -0.996097

 Multiplicity           Mult            ....    1
 Number of Electrons    NEL             ....  132
 Basis Dimension        Dim             ....  882

ORBITAL ENERGIES
----------------

  NO   OCC          E(Eh)            E(eV)
   0   2.0000     -19.329552      -525.9838
   1   2.0000     -19.326944      -525.9129
   2   2.0000     -19.319051      -525.6981
   3   2.0000     -19.317254      -525.6492
   4   2.0000     -14.586678      -396.9237
   5   2.0000     -14.577329      -396.6693
   6   2.0000     -14.572135      -396.5280
   7   2.0000     -14.561462      -396.2375
   8   2.0000     -10.515955      -286.1537
   9   2.0000     -10.504629      -285.8455
  10   2.0000     -10.481102      -285.2053
  11   2.0000     -10.475392      -285.0499
  12   2.0000     -10.428910      -283.7851
  13   2.0000     -10.428070      -283.7622
  14   2.0000     -10.380416      -282.4655
  15   2.0000     -10.379746      -282.4473
  16   2.0000     -10.360209      -281.9156
  17   2.0000     -10.350235      -281.6442
  18   2.0000      -1.229242       -33.4494
  19   2.0000      -1.218274       -33.1509
  20   2.0000      -1.197451       -32.5843
  21   2.0000      -1.188478       -32.3401
  22   2.0000      -1.124816       -30.6078
  23   2.0000      -1.116704       -30.3871
  24   2.0000      -1.072651       -29.1883
  25   2.0000      -1.062832       -28.9211
  26   2.0000      -0.965396       -26.2698
  27   2.0000      -0.949820       -25.8459
  28   2.0000      -0.848941       -23.1009
  29   2.0000      -0.846838       -23.0436
  30   2.0000      -0.812712       -22.1150
  31   2.0000      -0.807396       -21.9704
  32   2.0000      -0.796204       -21.6658
  33   2.0000      -0.788092       -21.4451
  34   2.0000      -0.696572       -18.9547
  35   2.0000      -0.695849       -18.9350
  36   2.0000      -0.691787       -18.8245
  37   2.0000      -0.687280       -18.7018
  38   2.0000      -0.643470       -17.5097
  39   2.0000      -0.639050       -17.3894
  40   2.0000      -0.635051       -17.2806
  41   2.0000      -0.601503       -16.3677
  42   2.0000      -0.599157       -16.3039
  43   2.0000      -0.591722       -16.1016
  44   2.0000      -0.570153       -15.5146
  45   2.0000      -0.567171       -15.4335
  46   2.0000      -0.558840       -15.2068
  47   2.0000      -0.553029       -15.0487
  48   2.0000      -0.550008       -14.9665
  49   2.0000      -0.536070       -14.5872
  50   2.0000      -0.523582       -14.2474
  51   2.0000      -0.519181       -14.1276
  52   2.0000      -0.516221       -14.0471
  53   2.0000      -0.509838       -13.8734
  54   2.0000      -0.504890       -13.7388
  55   2.0000      -0.497301       -13.5323
  56   2.0000      -0.477665       -12.9979
  57   2.0000      -0.472153       -12.8479
  58   2.0000      -0.421844       -11.4789
  59   2.0000      -0.410542       -11.1714
  60   2.0000      -0.406554       -11.0629
  61   2.0000      -0.391972       -10.6661
  62   2.0000      -0.390168       -10.6170
  63   2.0000      -0.383320       -10.4307
  64   2.0000      -0.361423        -9.8348
  65   2.0000      -0.328043        -8.9265
  66   0.0000       0.009496         0.2584
  67   0.0000       0.014763         0.4017
  68   0.0000       0.024243         0.6597
  69   0.0000       0.031856         0.8668
  70   0.0000       0.039973         1.0877

MULLIKEN ATOMIC CHARGES
-----------------------
   0 O :   -0.685244
   1 O :   -0.655498
   2 O :   -0.656159
   3 O :   -0.669439
   4 N :   -0.050880
   5 N :    0.005706
   6 N :    0.008436
   7 N :   -0.028490
   8 C :    0.893866
   9 C :    0.367525
  10 C :   -0.183677
  11 C :    0.249360
  12 C :   -1.564229
  13 C :   -1.516427
  14 C :    0.393448
  15 C :    0.581930
  16 C :    0.497078
  17 C :    0.470837
  18 H :    0.286954
  19 H :    0.206825
  20 H :    0.252265
  21 H :    0.328331
  22 H :    0.408301
  23 H :    0.380697
  24 H :    0.341022
  25 H :    0.224294
  26 H :    0.026585
  27 H :    0.021031
  28 H :    0.025432
  29 H :    0.040122
Sum of atomic charges:    0.0000000

LOEWDIN ATOMIC CHARGES
----------------------
   0 O :    0.086563
   1 O :    0.109907
   2 O :    0.091560
   3 O :    0.076836
   4 N :    0.287841
   5 N :    0.285455
   6 N :    0.344805
   7 N :    0.335890
   8 C :   -0.151283
   9 C :   -0.164934
  10 C :    0.042972
  11 C :    0.038878
  12 C :    0.180504
  13 C :    0.187787
  14 C :   -0.394147
  15 C :   -0.399514
  16 C :   -0.472449
  17 C :   -0.492792
  18 H :    0.041021
  19 H :    0.039574
  20 H :   -0.018273
  21 H :   -0.003730
  22 H :    0.008560
  23 H :    0.007782
  24 H :   -0.000912
  25 H :   -0.025783
  26 H :   -0.016106
  27 H :   -0.019999
  28 H :   -0.001810
  29 H :   -0.004203

  Mayer bond orders larger than 0.100000
B(  0-O , 14-C ) :   1.4084 B(  1-O , 15-C ) :   1.4245 B(  2-O , 16-C ) :   1.5642
B(  3-O , 17-C ) :   1.5519 B(  4-N , 10-C ) :   0.8971 B(  4-N , 16-C ) :   1.0253
B(  4-N , 26-H ) :   1.1500 B(  5-N , 11-C ) :   0.9766 B(  5-N , 17-C ) :   1.0383
B(  5-N , 27-H ) :   1.1359 B(  6-N , 14-C ) :   1.0809 B(  6-N , 16-C ) :   0.9765
B(  6-N , 28-H ) :   1.0979 B(  7-N , 15-C ) :   1.0286 B(  7-N , 17-C ) :   0.9581
B(  7-N , 29-H ) :   1.0932 B(  8-C , 10-C ) :   0.9336 B(  8-C , 12-C ) :   0.2849
B(  8-C , 14-C ) :   0.6328 B(  8-C , 15-C ) :  -0.1614 B(  8-C , 18-H ) :  -0.1324
B(  8-C , 20-H ) :  -0.1336 B(  9-C , 11-C ) :   0.9298 B(  9-C , 13-C ) :   0.5286
B(  9-C , 15-C ) :   0.6801 B(  9-C , 24-H ) :  -0.1194 B( 10-C , 12-C ) :  -0.1493
B( 10-C , 18-H ) :   1.1180 B( 11-C , 13-C ) :  -0.2884 B( 11-C , 19-H ) :   1.0881
B( 12-C , 20-H ) :   1.0539 B( 12-C , 21-H ) :   1.0531 B( 12-C , 22-H ) :   0.7962
B( 13-C , 23-H ) :   0.8393 B( 13-C , 24-H ) :   1.0664 B( 13-C , 25-H ) :   0.9700

Dispersion correction           -0.060987710
FINAL SINGLE POINT ENERGY      -908.919949427349

DIPOLE MOMENT
-------------

Method             : SCF
Type of density    : Electron Density
Multiplicity       :   1
Irrep              :   0
Energy             :  -908.8589617168610175 Eh
Relativity type    :
Basis              : AO
                                X                 Y                 Z
Electronic contribution:     -2.266720044      -9.755199529      -5.650534017
Nuclear contribution   :      1.492683561      10.764385950       7.855437130
                        -----------------------------------------
Total Dipole Moment    :     -0.774036484       1.009186420       2.204903113
                        -----------------------------------------
Magnitude (a.u.)       :      2.545424806
Magnitude (Debye)      :      6.469955682

Rotational constants in cm-1:             0.019774             0.014807             0.011636
Rotational constants in MHz :           592.803325           443.915358           348.826687

                             ****ORCA TERMINATED NORMALLY****
TOTAL RUN TIME: 0 days 1 hours 16 minutes 25 seconds 784 msec
