                         Program Version 6.0.0  -   RELEASE  -
|  1> ! Opt wB97M-D3BJ def2-TZVPPD
|  2> %pal nprocs 8 end %pal nprocs 64 end
|  3> %geom
|  4> Constraints
|  5>     {A 2 1 0 115.45454545454545 C }
|  6> end
|  7> MaxIter 500
|  8> end
|  9> *xyz 0 1
| 10> O   -0.0007 0.8141 0.0
| 11> C   0.7509 -0.4065 0.0
| 12> C   -0.7502 -0.4076 0.0
| 13> H   1.2625 -0.6786 0.9136
| 14> H   1.2625 -0.6787 -0.9136
| 15> H   -1.2614 -0.6806 -0.9136
| 16> H   -1.2614 -0.6805 0.9136
| 17> *
| 18>
| 19>                          ****END OF INPUT****
 Total Charge           Charge          ....    0
 Multiplicity           Mult            ....    1
 Number of Electrons    NEL             ....   24
Dispersion correction           -0.005788508
FINAL SINGLE POINT ENERGY      -153.648953200076
Dispersion correction             ... done (  0.1 sec)
Dispersion correction           -0.005673978
FINAL SINGLE POINT ENERGY      -153.720606493062
Dispersion correction             ... done (  0.1 sec)
Dispersion correction           -0.005603634
FINAL SINGLE POINT ENERGY      -153.740909738536
Dispersion correction             ... done (  0.1 sec)
FINAL SINGLE POINT ENERGY      -153.751685648612
FINAL SINGLE POINT ENERGY      -153.756398222864
FINAL SINGLE POINT ENERGY      -153.758019431565
FINAL SINGLE POINT ENERGY      -153.758829978711
FINAL SINGLE POINT ENERGY      -153.760323593792
FINAL SINGLE POINT ENERGY      -153.762090946209
FINAL SINGLE POINT ENERGY      -153.763922568715
FINAL SINGLE POINT ENERGY      -153.927913147229
FINAL SINGLE POINT ENERGY      -153.927933950151
FINAL SINGLE POINT ENERGY      -153.927943621157
FINAL SINGLE POINT ENERGY      -153.927960149805
FINAL SINGLE POINT ENERGY      -153.927970221528
FINAL SINGLE POINT ENERGY      -153.927975368556
FINAL SINGLE POINT ENERGY      -153.927979025783
Dispersion correction             ... done (  0.0 sec)
Dispersion correction           -0.005553439
FINAL SINGLE POINT ENERGY      -153.927979779630
Dispersion correction             ... done (  0.1 sec)
Dispersion correction           -0.005553478
FINAL SINGLE POINT ENERGY      -153.927980009261
Dispersion correction             ... done (  0.1 sec)
                    ***********************HURRAY********************

CARTESIAN COORDINATES (ANGSTROEM)
---------------------------------
  O      0.508592    1.282395    0.128538
  C      0.618051    0.151215   -0.277890
  C     -0.445765   -0.812525    0.190656
  H      0.001551   -1.648506    0.731520
  H      1.431231   -0.173759   -0.945193
  H     -0.978231   -1.243023   -0.659431
  H     -1.133228   -0.274197    0.831800

 Multiplicity           Mult            ....    1
 Number of Electrons    NEL             ....   24
 Basis Dimension        Dim             ....  182

ORBITAL ENERGIES
----------------

  NO   OCC          E(Eh)            E(eV)
   0   2.0000     -19.336991      -526.1863
   1   2.0000     -10.443445      -284.1806
   2   2.0000     -10.352332      -281.7013
   3   2.0000      -1.186381       -32.2831
   4   2.0000      -0.873539       -23.7702
   5   2.0000      -0.708527       -19.2800
   6   2.0000      -0.598761       -16.2931
   7   2.0000      -0.556050       -15.1309
   8   2.0000      -0.546907       -14.8821
   9   2.0000      -0.507268       -13.8035
  10   2.0000      -0.471936       -12.8420
  11   2.0000      -0.367211        -9.9923
  12   0.0000       0.039099         1.0639
  13   0.0000       0.051135         1.3915
  14   0.0000       0.058943         1.6039
  15   0.0000       0.084678         2.3042
  16   0.0000       0.087092         2.3699

MULLIKEN ATOMIC CHARGES
-----------------------
   0 O :   -0.472951
   1 C :    0.243807
   2 C :   -0.690840
   3 H :    0.218982
   4 H :    0.243489
   5 H :    0.219200
   6 H :    0.238313
Sum of atomic charges:   -0.0000000

LOEWDIN ATOMIC CHARGES
----------------------
   0 O :    0.053011
   1 C :   -0.199155
   2 C :    0.164360
   3 H :   -0.014750
   4 H :    0.023087
   5 H :   -0.014745
   6 H :   -0.011808

  Mayer bond orders larger than 0.100000
B(  0-O ,  1-C ) :   1.7723 B(  1-C ,  2-C ) :   0.7789 B(  1-C ,  4-H ) :   0.9815
B(  2-C ,  3-H ) :   0.9942 B(  2-C ,  5-H ) :   0.9937 B(  2-C ,  6-H ) :   0.9598

Dispersion correction           -0.005553567
FINAL SINGLE POINT ENERGY      -153.927980071140

DIPOLE MOMENT
-------------

Method             : SCF
Type of density    : Electron Density
Multiplicity       :   1
Irrep              :   0
Energy             :  -153.9224265038968440 Eh
Relativity type    :
Basis              : AO
                                X                 Y                 Z
Electronic contribution:      1.396177252       2.855699806      -0.151632071
Nuclear contribution   :     -1.443553066      -3.901531322      -0.119554749
                        -----------------------------------------
Total Dipole Moment    :     -0.047375815      -1.045831516      -0.271186820
                        -----------------------------------------
Magnitude (a.u.)       :      1.081457498
Magnitude (Debye)      :      2.748846505

Rotational constants in cm-1:             1.683538             0.365804             0.317988
Rotational constants in MHz :         50471.191715         10966.517550          9533.037238

                             ****ORCA TERMINATED NORMALLY****
TOTAL RUN TIME: 0 days 0 hours 11 minutes 58 seconds 794 msec
