                         Program Version 6.0.0  -   RELEASE  -
|  1> ! Engrad def2-TZVPPD wB97M-D3BJ
|  2> %pal nprocs 8 end%pal nprocs 64 end
|  3> %tddft Nroots 2 Iroot 1
|  4> sf true
|  5> end
|  6> *xyz 0 3
|  7> O   4.03866623 0.26108521 0.57813822
|  8> O   -2.26896307 1.94856455 -2.04736325
|  9> O   1.37013663 -3.01621417 -1.01150129
| 10> O   -3.65189063 -1.48162389 0.45439794
| 11> N   0.36589214 -1.3632051 0.14489876
| 12> N   -1.91520405 -0.2903518 1.28502346
| 13> N   2.58961027 -1.14404892 -0.51033909
| 14> N   -2.72947075 0.13211056 -0.9250642
| 15> C   1.77448531 0.28909376 1.2591627
| 16> C   -0.90833683 1.46813615 -0.12578164
| 17> C   0.43988038 -0.32927379 1.15698965
| 18> C   -0.78307636 0.61248129 1.07728314
| 19> C   2.04435771 1.20903138 2.43651779
| 20> C   -0.0672169 2.68638221 -0.40956229
| 21> C   2.8560783 -0.09047906 0.40599409
| 22> C   -1.9652674 1.22218036 -1.04971666
| 23> C   1.41218512 -1.90632894 -0.46883207
| 24> C   -2.8096103 -0.57542445 0.31943044
| 25> H   0.33728269 -0.62041148 2.21456436
| 26> H   -0.58115467 1.28866397 1.96470367
| 27> H   3.09046107 1.47948118 2.50025392
| 28> H   1.35842365 2.1043704 2.45275732
| 29> H   1.78713912 0.63077771 3.34178112
| 30> H   -0.07072831 3.24579545 0.47403551
| 31> H   0.89830304 2.27965228 -0.68833474
| 32> H   -0.43834902 3.25538407 -1.29364152
| 33> H   -0.30425077 -2.07548468 0.40851422
| 34> H   -2.24962415 -0.49997888 2.22881313
| 35> H   3.48377192 -1.58191271 -0.64221568
| 36> H   -3.47933402 0.10455783 -1.6067699
| 37> *
| 38>
| 39>                          ****END OF INPUT****

CARTESIAN COORDINATES (ANGSTROEM)
---------------------------------
  O      4.038666    0.261085    0.578138
  O     -2.268963    1.948565   -2.047363
  O      1.370137   -3.016214   -1.011501
  O     -3.651891   -1.481624    0.454398
  N      0.365892   -1.363205    0.144899
  N     -1.915204   -0.290352    1.285023
  N      2.589610   -1.144049   -0.510339
  N     -2.729471    0.132111   -0.925064
  C      1.774485    0.289094    1.259163
  C     -0.908337    1.468136   -0.125782
  C      0.439880   -0.329274    1.156990
  C     -0.783076    0.612481    1.077283
  C      2.044358    1.209031    2.436518
  C     -0.067217    2.686382   -0.409562
  C      2.856078   -0.090479    0.405994
  C     -1.965267    1.222180   -1.049717
  C      1.412185   -1.906329   -0.468832
  C     -2.809610   -0.575424    0.319430
  H      0.337283   -0.620411    2.214564
  H     -0.581155    1.288664    1.964704
  H      3.090461    1.479481    2.500254
  H      1.358424    2.104370    2.452757
  H      1.787139    0.630778    3.341781
  H     -0.070728    3.245795    0.474036
  H      0.898303    2.279652   -0.688335
  H     -0.438349    3.255384   -1.293642
  H     -0.304251   -2.075485    0.408514
  H     -2.249624   -0.499979    2.228813
  H      3.483772   -1.581913   -0.642216
  H     -3.479334    0.104558   -1.606770

 Total Charge           Charge          ....    0
 Multiplicity           Mult            ....    3
 Number of Electrons    NEL             ....  132
 Basis Dimension        Dim             ....  882

ORBITAL ENERGIES
----------------
                 SPIN UP ORBITALS
  NO   OCC          E(Eh)            E(eV)
   0   1.0000     -19.345864      -526.4277
   1   1.0000     -19.325879      -525.8839
   2   1.0000     -19.323976      -525.8321
   3   1.0000     -19.316981      -525.6418
   4   1.0000     -14.582653      -396.8142
   5   1.0000     -14.570842      -396.4928
   6   1.0000     -14.567962      -396.4144
   7   1.0000     -14.564879      -396.3305
   8   1.0000     -10.519003      -286.2366
   9   1.0000     -10.508859      -285.9606
  10   1.0000     -10.489564      -285.4356
  11   1.0000     -10.474086      -285.0144
  12   1.0000     -10.464785      -284.7613
  13   1.0000     -10.454395      -284.4786
  14   1.0000     -10.433439      -283.9083
  15   1.0000     -10.428315      -283.7689
  16   1.0000     -10.393611      -282.8245
  17   1.0000     -10.376086      -282.3477
  18   1.0000      -1.217354       -33.1259
  19   1.0000      -1.213542       -33.0222
  20   1.0000      -1.191605       -32.4252
  21   1.0000      -1.178163       -32.0594
  22   1.0000      -1.125526       -30.6271
  23   1.0000      -1.100239       -29.9390
  24   1.0000      -1.067215       -29.0404
  25   1.0000      -1.060873       -28.8678
  26   1.0000      -0.998466       -27.1696
  27   1.0000      -0.969576       -26.3835
  28   1.0000      -0.906529       -24.6679
  29   1.0000      -0.851153       -23.1611
  30   1.0000      -0.837312       -22.7844
  31   1.0000      -0.806476       -21.9453
  32   1.0000      -0.790493       -21.5104
  33   1.0000      -0.788097       -21.4452
  34   1.0000      -0.718249       -19.5446
  35   1.0000      -0.706564       -19.2266
  36   1.0000      -0.697016       -18.9668
  37   1.0000      -0.685745       -18.6601
  38   1.0000      -0.651125       -17.7180
  39   1.0000      -0.646871       -17.6022
  40   1.0000      -0.641590       -17.4585
  41   1.0000      -0.607544       -16.5321
  42   1.0000      -0.606062       -16.4918
  43   1.0000      -0.587257       -15.9801
  44   1.0000      -0.580626       -15.7996
  45   1.0000      -0.575234       -15.6529
  46   1.0000      -0.568865       -15.4796
  47   1.0000      -0.562299       -15.3009
  48   1.0000      -0.557276       -15.1643
  49   1.0000      -0.554880       -15.0991
  50   1.0000      -0.553950       -15.0737
  51   1.0000      -0.532924       -14.5016
  52   1.0000      -0.528476       -14.3806
  53   1.0000      -0.525294       -14.2940
  54   1.0000      -0.520418       -14.1613
  55   1.0000      -0.512110       -13.9352
  56   1.0000      -0.498597       -13.5675
  57   1.0000      -0.428735       -11.6665
  58   1.0000      -0.420676       -11.4472
  59   1.0000      -0.414697       -11.2845
  60   1.0000      -0.406433       -11.0596
  61   1.0000      -0.399018       -10.8578
  62   1.0000      -0.397199       -10.8083
  63   1.0000      -0.389458       -10.5977
  64   1.0000      -0.385337       -10.4856
  65   1.0000      -0.364803        -9.9268
  66   1.0000      -0.333718        -9.0809
  67   0.0000      -0.000407        -0.0111
  68   0.0000       0.026041         0.7086
  69   0.0000       0.026644         0.7250
  70   0.0000       0.032223         0.8768
  71   0.0000       0.048527         1.3205

                 SPIN DOWN ORBITALS
  NO   OCC          E(Eh)            E(eV)
   0   1.0000     -19.340338      -526.2774
   1   1.0000     -19.323934      -525.8310
   2   1.0000     -19.320568      -525.7394
   3   1.0000     -19.316956      -525.6411
   4   1.0000     -14.582597      -396.8126
   5   1.0000     -14.570864      -396.4934
   6   1.0000     -14.567359      -396.3980
   7   1.0000     -14.564251      -396.3134
   8   1.0000     -10.519065      -286.2383
   9   1.0000     -10.508879      -285.9611
  10   1.0000     -10.490725      -285.4671
  11   1.0000     -10.475271      -285.0466
  12   1.0000     -10.464556      -284.7550
  13   1.0000     -10.453962      -284.4668
  14   1.0000     -10.422598      -283.6133
  15   1.0000     -10.417172      -283.4657
  16   1.0000     -10.394215      -282.8410
  17   1.0000     -10.376438      -282.3572
  18   1.0000      -1.215413       -33.0731
  19   1.0000      -1.211677       -32.9714
  20   1.0000      -1.185596       -32.2617
  21   1.0000      -1.172790       -31.9132
  22   1.0000      -1.123493       -30.5718
  23   1.0000      -1.098539       -29.8928
  24   1.0000      -1.064060       -28.9545
  25   1.0000      -1.058423       -28.8012
  26   1.0000      -0.987012       -26.8580
  27   1.0000      -0.951902       -25.9026
  28   1.0000      -0.899244       -24.4697
  29   1.0000      -0.846410       -23.0320
  30   1.0000      -0.827813       -22.5259
  31   1.0000      -0.801820       -21.8186
  32   1.0000      -0.789081       -21.4720
  33   1.0000      -0.785216       -21.3668
  34   1.0000      -0.715160       -19.4605
  35   1.0000      -0.701906       -19.0998
  36   1.0000      -0.691183       -18.8080
  37   1.0000      -0.680734       -18.5237
  38   1.0000      -0.643513       -17.5109
  39   1.0000      -0.642617       -17.4865
  40   1.0000      -0.631134       -17.1740
  41   1.0000      -0.600549       -16.3418
  42   1.0000      -0.595709       -16.2101
  43   1.0000      -0.581069       -15.8117
  44   1.0000      -0.572606       -15.5814
  45   1.0000      -0.568715       -15.4755
  46   1.0000      -0.562633       -15.3100
  47   1.0000      -0.557955       -15.1827
  48   1.0000      -0.551151       -14.9976
  49   1.0000      -0.548059       -14.9134
  50   1.0000      -0.546800       -14.8792
  51   1.0000      -0.526807       -14.3352
  52   1.0000      -0.519993       -14.1497
  53   1.0000      -0.515370       -14.0239
  54   1.0000      -0.510051       -13.8792
  55   1.0000      -0.505701       -13.7608
  56   1.0000      -0.493164       -13.4197
  57   1.0000      -0.421084       -11.4583
  58   1.0000      -0.416473       -11.3328
  59   1.0000      -0.408867       -11.1258
  60   1.0000      -0.394609       -10.7379
  61   1.0000      -0.390621       -10.6293
  62   1.0000      -0.386101       -10.5063
  63   1.0000      -0.383705       -10.4412
  64   1.0000      -0.378986       -10.3127
  65   0.0000      -0.081512        -2.2181
  66   0.0000      -0.058983        -1.6050
  67   0.0000      -0.000682        -0.0186
  68   0.0000       0.025991         0.7072
  69   0.0000       0.026307         0.7158

----------------------------------------------------------------------------------------------------
          SPIN FLIP ABSORPTION SPECTRUM VIA TRANSITION ELECTRIC DIPOLE MOMENTS
----------------------------------------------------------------------------------------------------
     Transition      Energy     Energy  Wavelength fosc(D2)      D2        DX        DY        DZ
                      (eV)      (cm-1)    (nm)                 (au**2)    (au)      (au)      (au)
----------------------------------------------------------------------------------------------------
  1-3A  ->  2-3A    0.158008    1274.4  7846.7   0.000075480   0.01950  -0.13617   0.01539  -0.02684

Dispersion correction             ... done (  0.1 sec)

MULLIKEN ATOMIC CHARGES AND SPIN DENSITIES
------------------------------------------
   0 O :   -0.663778   -0.033191
   1 O :   -0.732611    0.040715
   2 O :   -0.668813   -0.000175
   3 O :   -0.674672   -0.000084
   4 N :   -0.192523    0.003365
   5 N :   -0.163175   -0.001112
   6 N :   -0.104095   -0.004521
   7 N :   -0.011794    0.003310
   8 C :    0.752822    0.458408
   9 C :    0.145737    0.366951
  10 C :    0.045239   -0.322323
  11 C :    0.512133   -0.115791
  12 C :   -1.666244    0.002484
  13 C :   -1.362163   -0.001086
  14 C :    0.375292   -0.281979
  15 C :    0.447877   -0.150385
  16 C :    0.383729    0.014881
  17 C :    0.359342    0.008576
  18 H :    0.421527   -0.019536
  19 H :    0.563623   -0.005317
  20 H :    0.323432   -0.008329
  21 H :    0.294278    0.011237
  22 H :    0.349462    0.012117
  23 H :    0.353687    0.010233
  24 H :    0.338581    0.016774
  25 H :    0.279901   -0.002650
  26 H :    0.024942   -0.002566
  27 H :    0.077698   -0.000668
  28 H :    0.097940   -0.001115
  29 H :    0.092625    0.001774
Sum of atomic charges       :   -0.0000000

LOEWDIN ATOMIC CHARGES AND SPIN DENSITIES
-----------------------------------------
   0 O :    0.054956   -0.031118
   1 O :    0.030519    0.036503
   2 O :    0.069108   -0.000245
   3 O :    0.048576   -0.000169
   4 N :    0.300780    0.000029
   5 N :    0.264423   -0.001150
   6 N :    0.327915   -0.007216
   7 N :    0.321520    0.001496
   8 C :   -0.023036   -0.081999
   9 C :    0.003464    0.100182
  10 C :   -0.132241   -0.010604
  11 C :   -0.116901    0.004641
  12 C :    0.199016   -0.010441
  13 C :    0.232881    0.010749
  14 C :   -0.374745   -0.020208
  15 C :   -0.406360    0.012571
  16 C :   -0.468403   -0.000283
  17 C :   -0.429736   -0.000484
  18 H :    0.058471   -0.004530
  19 H :    0.072572    0.002425
  20 H :   -0.009954    0.000274
  21 H :    0.015761   -0.002927
  22 H :    0.009515   -0.002564
  23 H :   -0.036250    0.002376
  24 H :    0.003215    0.003578
  25 H :    0.023481   -0.000206
  26 H :   -0.013046   -0.000015
  27 H :    0.003336   -0.000229
  28 H :   -0.029048   -0.000672
  29 H :    0.000211    0.000236

  Mayer bond orders larger than 0.100000
B(  0-O ,  8-C ) :   0.1840 B(  0-O , 14-C ) :   1.1171 B(  1-O , 15-C ) :   1.1318
B(  2-O , 16-C ) :   1.5532 B(  3-O , 17-C ) :   1.6006 B(  4-N , 10-C ) :   0.4772
B(  4-N , 11-C ) :   0.1590 B(  4-N , 16-C ) :   1.1567 B(  4-N , 26-H ) :   1.0979
B(  5-N , 10-C ) :   0.1482 B(  5-N , 11-C ) :   0.4278 B(  5-N , 17-C ) :   1.1545
B(  5-N , 27-H ) :   1.0796 B(  6-N ,  8-C ) :  -0.1479 B(  6-N , 14-C ) :   0.9821
B(  6-N , 16-C ) :   0.9250 B(  6-N , 28-H ) :   1.0254 B(  7-N ,  9-C ) :  -0.1039
B(  7-N , 15-C ) :   1.1212 B(  7-N , 17-C ) :   0.9738 B(  7-N , 29-H ) :   1.0431
B(  8-C ,  9-C ) :   0.1984 B(  8-C , 10-C ) :   0.6896 B(  8-C , 12-C ) :   0.2113
B(  8-C , 14-C ) :   0.9896 B(  8-C , 21-H ) :  -0.1416 B(  9-C , 10-C ) :   0.1937
B(  9-C , 11-C ) :   0.4827 B(  9-C , 13-C ) :   0.5347 B(  9-C , 15-C ) :   0.9902
B(  9-C , 19-H ) :  -0.1565 B( 10-C , 11-C ) :   0.5165 B( 10-C , 12-C ) :  -0.1741
B( 10-C , 18-H ) :   0.8883 B( 11-C , 12-C ) :   0.1610 B( 11-C , 13-C ) :  -0.2317
B( 11-C , 17-C ) :  -0.2122 B( 11-C , 19-H ) :   0.7975 B( 12-C , 14-C ) :  -0.2013
B( 12-C , 20-H ) :   1.0084 B( 12-C , 21-H ) :   1.0605 B( 12-C , 22-H ) :   0.8812
B( 13-C , 23-H ) :   0.9000 B( 13-C , 24-H ) :   0.8949 B( 13-C , 25-H ) :   1.0047
B( 15-C , 17-C ) :  -0.1136

Dispersion correction           -0.055956408
FINAL SINGLE POINT ENERGY      -908.765714569273

DIPOLE MOMENT
-------------

Method             : TDA/CIS
Type of density    : Electron Density
Level              : Relaxed density
State              :   1
Multiplicity       :   3
Irrep              :   0
Energy             :     0.0000000000000000 Eh
Relativity type    :
Basis              : AO
                                X                 Y                 Z
Electronic contribution:     -3.678069811      -8.026313862      -6.437372436
Nuclear contribution   :      3.760066428       9.380737184       9.084190666
                        -----------------------------------------
Total Dipole Moment    :      0.081996617       1.354423322       2.646818230
                        -----------------------------------------
Magnitude (a.u.)       :      2.974362574
Magnitude (Debye)      :      7.560228842

Rotational constants in cm-1:             0.021045             0.010675             0.009270
Rotational constants in MHz :           630.921228           320.015391           277.913227

                             ****ORCA TERMINATED NORMALLY****
TOTAL RUN TIME: 0 days 0 hours 4 minutes 24 seconds 590 msec
