                         Program Version 6.0.0  -   RELEASE  -
|  1> ! Engrad def2-TZVPPD wB97M-D3BJ
|  2> %pal nprocs 8 end%pal nprocs 64 end
|  3> %tddft
|  4>  Iroot 1 Nroots 3
|  5> sf true
|  6> end
|  7> *xyz 0 3
|  8> O   3.44001106 -1.20887051 -1.93691857
|  9> O   -2.16862106 1.88332458 -1.34541914
| 10> O   -1.04576663 -1.99658866 -1.78957952
| 11> O   -3.09846694 0.50348256 2.83205413
| 12> N   0.06163205 -1.70475045 0.24470781
| 13> N   -0.90771684 0.3305109 2.13045692
| 14> N   1.11659676 -1.50784311 -1.84626862
| 15> N   -2.56377848 1.02870367 0.70692222
| 16> C   2.22607732 -0.50664411 0.0409419
| 17> C   -0.34930406 1.30125566 -0.02250073
| 18> C   0.96226681 -0.69404538 0.77600569
| 19> C   0.13662541 0.56014193 1.1192534
| 20> C   3.47062837 0.11119281 0.72539376
| 21> C   0.55715906 1.92917752 -1.08409828
| 22> C   2.3515094 -1.07562219 -1.34207993
| 23> C   -1.71267541 1.40041302 -0.29705397
| 24> C   -0.03334396 -1.77051081 -1.14502878
| 25> C   -2.25969068 0.55656095 1.95008544
| 26> H   1.34911174 -1.09506105 1.70157465
| 27> H   0.7870445 1.28889859 1.68372737
| 28> H   3.16544289 0.93541484 1.39407155
| 29> H   4.15826676 -0.60556428 1.20352899
| 30> H   4.12114062 0.57971332 -0.01400269
| 31> H   0.32769724 1.51117262 -2.02488023
| 32> H   0.31235654 2.90484961 -1.30049737
| 33> H   1.56009639 1.82157513 -0.84218785
| 34> H   -0.84716087 -1.55283063 0.61040884
| 35> H   -0.64140266 0.25640841 3.0967399
| 36> H   1.20009804 -1.76941679 -2.8668246
| 37> H   -3.53674218 1.17496701 0.56852916
| 38> *
| 39>
| 40>                          ****END OF INPUT****

CARTESIAN COORDINATES (ANGSTROEM)
---------------------------------
  O      3.440011   -1.208871   -1.936919
  O     -2.168621    1.883325   -1.345419
  O     -1.045767   -1.996589   -1.789580
  O     -3.098467    0.503483    2.832054
  N      0.061632   -1.704750    0.244708
  N     -0.907717    0.330511    2.130457
  N      1.116597   -1.507843   -1.846269
  N     -2.563778    1.028704    0.706922
  C      2.226077   -0.506644    0.040942
  C     -0.349304    1.301256   -0.022501
  C      0.962267   -0.694045    0.776006
  C      0.136625    0.560142    1.119253
  C      3.470628    0.111193    0.725394
  C      0.557159    1.929178   -1.084098
  C      2.351509   -1.075622   -1.342080
  C     -1.712675    1.400413   -0.297054
  C     -0.033344   -1.770511   -1.145029
  C     -2.259691    0.556561    1.950085
  H      1.349112   -1.095061    1.701575
  H      0.787044    1.288899    1.683727
  H      3.165443    0.935415    1.394072
  H      4.158267   -0.605564    1.203529
  H      4.121141    0.579713   -0.014003
  H      0.327697    1.511173   -2.024880
  H      0.312357    2.904850   -1.300497
  H      1.560096    1.821575   -0.842188
  H     -0.847161   -1.552831    0.610409
  H     -0.641403    0.256408    3.096740
  H      1.200098   -1.769417   -2.866825
  H     -3.536742    1.174967    0.568529

 Total Charge           Charge          ....    0
 Multiplicity           Mult            ....    3
 Number of Electrons    NEL             ....  132
 Basis Dimension        Dim             ....  882

ORBITAL ENERGIES
----------------
                 SPIN UP ORBITALS
  NO   OCC          E(Eh)            E(eV)
   0   1.0000     -19.345257      -526.4112
   1   1.0000     -19.331219      -526.0292
   2   1.0000     -19.325881      -525.8840
   3   1.0000     -19.325021      -525.8605
   4   1.0000     -14.574580      -396.5945
   5   1.0000     -14.571061      -396.4987
   6   1.0000     -14.564484      -396.3198
   7   1.0000     -14.564390      -396.3172
   8   1.0000     -10.512386      -286.0566
   9   1.0000     -10.511719      -286.0384
  10   1.0000     -10.496075      -285.6127
  11   1.0000     -10.476089      -285.0689
  12   1.0000     -10.457703      -284.5686
  13   1.0000     -10.446720      -284.2697
  14   1.0000     -10.433806      -283.9183
  15   1.0000     -10.421243      -283.5764
  16   1.0000     -10.389096      -282.7017
  17   1.0000     -10.362333      -281.9734
  18   1.0000      -1.223825       -33.3020
  19   1.0000      -1.218888       -33.1676
  20   1.0000      -1.189449       -32.3665
  21   1.0000      -1.187935       -32.3253
  22   1.0000      -1.127155       -30.6714
  23   1.0000      -1.104709       -30.0607
  24   1.0000      -1.074309       -29.2334
  25   1.0000      -1.062474       -28.9114
  26   1.0000      -0.989739       -26.9322
  27   1.0000      -0.961142       -26.1540
  28   1.0000      -0.894865       -24.3505
  29   1.0000      -0.856770       -23.3139
  30   1.0000      -0.835777       -22.7426
  31   1.0000      -0.802973       -21.8500
  32   1.0000      -0.797725       -21.7072
  33   1.0000      -0.795177       -21.6379
  34   1.0000      -0.711361       -19.3571
  35   1.0000      -0.702111       -19.1054
  36   1.0000      -0.692140       -18.8341
  37   1.0000      -0.685480       -18.6529
  38   1.0000      -0.659553       -17.9473
  39   1.0000      -0.635541       -17.2939
  40   1.0000      -0.625991       -17.0341
  41   1.0000      -0.606202       -16.4956
  42   1.0000      -0.602437       -16.3932
  43   1.0000      -0.588032       -16.0012
  44   1.0000      -0.579004       -15.7555
  45   1.0000      -0.574324       -15.6281
  46   1.0000      -0.568503       -15.4697
  47   1.0000      -0.565033       -15.3753
  48   1.0000      -0.562426       -15.3044
  49   1.0000      -0.558858       -15.2073
  50   1.0000      -0.555618       -15.1191
  51   1.0000      -0.531630       -14.4664
  52   1.0000      -0.531025       -14.4499
  53   1.0000      -0.524787       -14.2802
  54   1.0000      -0.515532       -14.0283
  55   1.0000      -0.511186       -13.9101
  56   1.0000      -0.509342       -13.8599
  57   1.0000      -0.430375       -11.7111
  58   1.0000      -0.419562       -11.4169
  59   1.0000      -0.414301       -11.2737
  60   1.0000      -0.410397       -11.1675
  61   1.0000      -0.404587       -11.0094
  62   1.0000      -0.398790       -10.8516
  63   1.0000      -0.392817       -10.6891
  64   1.0000      -0.391860       -10.6631
  65   1.0000      -0.357841        -9.7373
  66   1.0000      -0.330773        -9.0008
  67   0.0000       0.006331         0.1723
  68   0.0000       0.028928         0.7872
  69   0.0000       0.031167         0.8481
  70   0.0000       0.033933         0.9234
  71   0.0000       0.049273         1.3408

                 SPIN DOWN ORBITALS
  NO   OCC          E(Eh)            E(eV)
   0   1.0000     -19.341389      -526.3059
   1   1.0000     -19.326128      -525.8907
   2   1.0000     -19.325758      -525.8806
   3   1.0000     -19.324945      -525.8585
   4   1.0000     -14.573848      -396.5746
   5   1.0000     -14.571036      -396.4980
   6   1.0000     -14.564428      -396.3182
   7   1.0000     -14.563640      -396.2968
   8   1.0000     -10.512446      -286.0582
   9   1.0000     -10.511762      -286.0396
  10   1.0000     -10.497168      -285.6425
  11   1.0000     -10.477138      -285.0974
  12   1.0000     -10.457264      -284.5566
  13   1.0000     -10.446349      -284.2596
  14   1.0000     -10.422049      -283.5984
  15   1.0000     -10.410329      -283.2795
  16   1.0000     -10.389699      -282.7181
  17   1.0000     -10.362586      -281.9803
  18   1.0000      -1.222371       -33.2624
  19   1.0000      -1.217858       -33.1396
  20   1.0000      -1.183475       -32.2040
  21   1.0000      -1.182859       -32.1872
  22   1.0000      -1.124546       -30.6005
  23   1.0000      -1.102465       -29.9996
  24   1.0000      -1.071946       -29.1691
  25   1.0000      -1.060866       -28.8676
  26   1.0000      -0.977181       -26.5904
  27   1.0000      -0.943640       -25.6778
  28   1.0000      -0.888759       -24.1844
  29   1.0000      -0.851684       -23.1755
  30   1.0000      -0.827781       -22.5251
  31   1.0000      -0.797789       -21.7089
  32   1.0000      -0.796019       -21.6608
  33   1.0000      -0.792438       -21.5633
  34   1.0000      -0.705932       -19.2094
  35   1.0000      -0.697396       -18.9771
  36   1.0000      -0.686174       -18.6717
  37   1.0000      -0.678074       -18.4513
  38   1.0000      -0.647516       -17.6198
  39   1.0000      -0.631062       -17.1721
  40   1.0000      -0.620855       -16.8943
  41   1.0000      -0.601004       -16.3541
  42   1.0000      -0.596536       -16.2326
  43   1.0000      -0.583012       -15.8646
  44   1.0000      -0.571529       -15.5521
  45   1.0000      -0.566957       -15.4277
  46   1.0000      -0.564119       -15.3504
  47   1.0000      -0.561343       -15.2749
  48   1.0000      -0.552547       -15.0356
  49   1.0000      -0.550741       -14.9864
  50   1.0000      -0.545131       -14.8338
  51   1.0000      -0.525056       -14.2875
  52   1.0000      -0.523585       -14.2475
  53   1.0000      -0.515634       -14.0311
  54   1.0000      -0.509293       -13.8586
  55   1.0000      -0.505606       -13.7582
  56   1.0000      -0.500521       -13.6199
  57   1.0000      -0.427196       -11.6246
  58   1.0000      -0.416102       -11.3227
  59   1.0000      -0.405630       -11.0378
  60   1.0000      -0.400222       -10.8906
  61   1.0000      -0.393209       -10.6998
  62   1.0000      -0.389311       -10.5937
  63   1.0000      -0.387674       -10.5492
  64   1.0000      -0.386265       -10.5108
  65   0.0000      -0.073597        -2.0027
  66   0.0000      -0.052956        -1.4410
  67   0.0000       0.006031         0.1641
  68   0.0000       0.028781         0.7832
  69   0.0000       0.031527         0.8579

----------------------------------------------------------------------------------------------------
          SPIN FLIP ABSORPTION SPECTRUM VIA TRANSITION ELECTRIC DIPOLE MOMENTS
----------------------------------------------------------------------------------------------------
     Transition      Energy     Energy  Wavelength fosc(D2)      D2        DX        DY        DZ
                      (eV)      (cm-1)    (nm)                 (au**2)    (au)      (au)      (au)
----------------------------------------------------------------------------------------------------
  1-3A  ->  2-3A    0.132522    1068.9  9355.7   0.000035993   0.01109  -0.08988   0.03905   0.03851
  1-3A  ->  3-3A    2.012110   16228.8   616.2   0.000471027   0.00956   0.08418  -0.03358   0.03663

Dispersion correction             ... done (  0.1 sec)

MULLIKEN ATOMIC CHARGES AND SPIN DENSITIES
------------------------------------------
   0 O :   -0.661982    0.051984
   1 O :   -0.717730   -0.069287
   2 O :   -0.641737   -0.002414
   3 O :   -0.656583   -0.000838
   4 N :   -0.348664   -0.004624
   5 N :   -0.183747    0.003148
   6 N :   -0.011983    0.012169
   7 N :   -0.004926   -0.015448
   8 C :    0.106283    0.421693
   9 C :    0.915823    0.410714
  10 C :    0.310114   -0.097343
  11 C :   -0.042747   -0.380765
  12 C :   -1.462751   -0.010434
  13 C :   -1.810041   -0.007715
  14 C :    0.421549   -0.059683
  15 C :    0.244014   -0.301251
  16 C :    0.380214   -0.012572
  17 C :    0.511630    0.018261
  18 H :    0.396310    0.009293
  19 H :    0.619210    0.006416
  20 H :    0.329351    0.005061
  21 H :    0.375671    0.011950
  22 H :    0.306157    0.004233
  23 H :    0.369354    0.003498
  24 H :    0.437713   -0.001253
  25 H :    0.436146   -0.000735
  26 H :    0.200377    0.001590
  27 H :    0.050841   -0.000366
  28 H :    0.117850    0.000373
  29 H :    0.014283    0.004345
Sum of atomic charges       :    0.0000000

LOEWDIN ATOMIC CHARGES AND SPIN DENSITIES
-----------------------------------------
   0 O :    0.058649    0.046867
   1 O :    0.077870   -0.059347
   2 O :    0.087403   -0.002288
   3 O :    0.084050   -0.000836
   4 N :    0.306838   -0.000688
   5 N :    0.287100    0.000324
   6 N :    0.292729    0.009569
   7 N :    0.335812   -0.014462
   8 C :   -0.012107    0.210179
   9 C :    0.011208   -0.169174
  10 C :   -0.138308    0.015256
  11 C :   -0.126714   -0.021666
  12 C :    0.194910    0.022862
  13 C :    0.277717   -0.018386
  14 C :   -0.361414    0.023159
  15 C :   -0.415799   -0.039145
  16 C :   -0.468749   -0.000640
  17 C :   -0.474107   -0.000893
  18 H :    0.048882    0.006172
  19 H :    0.082264   -0.010145
  20 H :   -0.005319    0.001316
  21 H :    0.010924    0.008436
  22 H :   -0.009329    0.001908
  23 H :   -0.003533   -0.006137
  24 H :   -0.026444   -0.004633
  25 H :   -0.039390    0.003416
  26 H :   -0.072973   -0.000254
  27 H :   -0.028765    0.000038
  28 H :    0.043839    0.000518
  29 H :   -0.017244   -0.001327

  Mayer bond orders larger than 0.100000
B(  0-O , 14-C ) :   1.3887 B(  1-O , 13-C ) :   0.1340 B(  1-O , 15-C ) :   1.1742
B(  2-O , 16-C ) :   1.5242 B(  3-O , 17-C ) :   1.6142 B(  4-N ,  8-C ) :   0.2167
B(  4-N , 10-C ) :   0.2574 B(  4-N , 11-C ) :   0.1148 B(  4-N , 16-C ) :   1.0701
B(  4-N , 18-H ) :  -0.1605 B(  4-N , 26-H ) :   0.8491 B(  5-N , 10-C ) :   0.3158
B(  5-N , 11-C ) :   0.3068 B(  5-N , 17-C ) :   1.0880 B(  5-N , 27-H ) :   1.1324
B(  6-N ,  8-C ) :  -0.1078 B(  6-N , 10-C ) :   0.1260 B(  6-N , 14-C ) :   1.0956
B(  6-N , 16-C ) :   0.9191 B(  6-N , 28-H ) :   1.0463 B(  7-N , 15-C ) :   0.9950
B(  7-N , 17-C ) :   0.9645 B(  7-N , 29-H ) :   1.1212 B(  8-C , 10-C ) :   0.4681
B(  8-C , 11-C ) :   0.1127 B(  8-C , 12-C ) :   0.5095 B(  8-C , 13-C ) :   0.1072
B(  8-C , 14-C ) :   0.7773 B(  8-C , 16-C ) :   0.1378 B(  8-C , 18-H ) :  -0.1553
B(  8-C , 20-H ) :  -0.1047 B(  9-C , 10-C ) :   0.1394 B(  9-C , 11-C ) :   0.7394
B(  9-C , 15-C ) :   0.8358 B(  9-C , 19-H ) :  -0.2039 B(  9-C , 25-H ) :  -0.1230
B( 10-C , 11-C ) :   0.4484 B( 10-C , 12-C ) :  -0.2036 B( 10-C , 18-H ) :   1.0316
B( 10-C , 19-H ) :  -0.1092 B( 11-C , 13-C ) :  -0.1495 B( 11-C , 17-C ) :  -0.1358
B( 11-C , 19-H ) :   0.8032 B( 12-C , 14-C ) :  -0.1501 B( 12-C , 20-H ) :   0.9683
B( 12-C , 21-H ) :   0.8440 B( 12-C , 22-H ) :   1.0375 B( 13-C , 23-H ) :   0.9173
B( 13-C , 24-H ) :   0.8469 B( 13-C , 25-H ) :   0.8753

Dispersion correction           -0.057665361
FINAL SINGLE POINT ENERGY      -908.771202824094

DIPOLE MOMENT
-------------

Method             : TDA/CIS
Type of density    : Electron Density
Level              : Relaxed density
State              :   1
Multiplicity       :   3
Irrep              :   0
Energy             :     0.0000000000000000 Eh
Relativity type    :
Basis              : AO
                                X                 Y                 Z
Electronic contribution:     -9.306166623      -4.916649750      -1.791858052
Nuclear contribution   :     11.241828154       5.621404316       3.283490017
                        -----------------------------------------
Total Dipole Moment    :      1.935661532       0.704754566       1.491631965
                        -----------------------------------------
Magnitude (a.u.)       :      2.543310929
Magnitude (Debye)      :      6.464582633

Rotational constants in cm-1:             0.023864             0.010748             0.010088
Rotational constants in MHz :           715.436958           322.224084           302.445072

                             ****ORCA TERMINATED NORMALLY****
TOTAL RUN TIME: 0 days 0 hours 4 minutes 52 seconds 870 msec
