                         Program Version 6.0.0  -   RELEASE  -
|  1> ! Opt wB97M-D3BJ def2-TZVPPD
|  2> %pal nprocs 8 end %pal nprocs 64 end
|  3> %geom
|  4> Constraints
|  5>     {A 2 1 0 98.13559322033899 C }
|  6> end
|  7> MaxIter 200
|  8> end
|  9> *xyz 0 1
| 10> O   0.9527159368761464 1.0126678010801977 0.0
| 11> C   0.7509 -0.4065 0.0
| 12> C   -0.7502 -0.4076 0.0
| 13> H   1.2625 -0.6786 0.9136
| 14> H   1.2625 -0.6787 -0.9136
| 15> H   -1.2614 -0.6806 -0.9136
| 16> H   -1.2614 -0.6805 0.9136
| 17> *
| 18>
| 19>                          ****END OF INPUT****
 Total Charge           Charge          ....    0
 Multiplicity           Mult            ....    1
 Number of Electrons    NEL             ....   24
Dispersion correction           -0.005516081
FINAL SINGLE POINT ENERGY      -153.764782531779
Dispersion correction             ... done (  0.1 sec)
Dispersion correction           -0.005598614
FINAL SINGLE POINT ENERGY      -153.783533532905
Dispersion correction             ... done (  0.1 sec)
Dispersion correction           -0.005649386
FINAL SINGLE POINT ENERGY      -153.793817235945
Dispersion correction             ... done (  0.1 sec)
FINAL SINGLE POINT ENERGY      -153.801800840423
FINAL SINGLE POINT ENERGY      -153.803280874921
FINAL SINGLE POINT ENERGY      -153.803335341812
Dispersion correction             ... done (  0.1 sec)
Dispersion correction           -0.005664798
FINAL SINGLE POINT ENERGY      -153.803341046792
Dispersion correction             ... done (  0.1 sec)
Dispersion correction           -0.005664082
FINAL SINGLE POINT ENERGY      -153.803342087014
Dispersion correction             ... done (  0.1 sec)
                    ***********************HURRAY********************

CARTESIAN COORDINATES (ANGSTROEM)
---------------------------------
  O      0.712821    1.002050   -0.000202
  C      0.765671   -0.335452   -0.000108
  C     -0.646093   -0.594518    0.000091
  H      1.266143   -0.759932    0.882698
  H      1.265942   -0.760227   -0.882900
  H     -1.204651   -0.536109   -0.923891
  H     -1.204216   -0.535645    0.924313

 Multiplicity           Mult            ....    1
 Number of Electrons    NEL             ....   24
 Basis Dimension        Dim             ....  182

ORBITAL ENERGIES
----------------

  NO   OCC          E(Eh)            E(eV)
   0   2.0000     -19.331361      -526.0331
   1   2.0000     -10.442748      -284.1616
   2   2.0000     -10.397093      -282.9193
   3   2.0000      -1.131389       -30.7867
   4   2.0000      -0.880108       -23.9490
   5   2.0000      -0.733652       -19.9637
   6   2.0000      -0.624854       -17.0031
   7   2.0000      -0.575055       -15.6480
   8   2.0000      -0.517871       -14.0920
   9   2.0000      -0.511107       -13.9079
  10   2.0000      -0.372308       -10.1310
  11   2.0000      -0.355757        -9.6806
  12   0.0000      -0.051276        -1.3953
  13   0.0000       0.037261         1.0139
  14   0.0000       0.061148         1.6639
  15   0.0000       0.076433         2.0799
  16   0.0000       0.098121         2.6700

MULLIKEN ATOMIC CHARGES
-----------------------
   0 O :   -0.506811
   1 C :   -0.101206
   2 C :   -0.258781
   3 H :    0.215933
   4 H :    0.215968
   5 H :    0.217426
   6 H :    0.217471
Sum of atomic charges:    0.0000000

LOEWDIN ATOMIC CHARGES
----------------------
   0 O :   -0.016281
   1 C :   -0.394198
   2 C :    0.380932
   3 H :    0.022836
   4 H :    0.022846
   5 H :   -0.008065
   6 H :   -0.008069

  Mayer bond orders larger than 0.100000
B(  0-O ,  1-C ) :   0.7137 B(  0-O ,  2-C ) :   0.9108 B(  1-C ,  2-C ) :   0.7779
B(  1-C ,  3-H ) :   1.0430 B(  1-C ,  4-H ) :   1.0430 B(  2-C ,  5-H ) :   0.9666
B(  2-C ,  6-H ) :   0.9666

Dispersion correction           -0.005664070
FINAL SINGLE POINT ENERGY      -153.803342287246

DIPOLE MOMENT
-------------

Method             : SCF
Type of density    : Electron Density
Multiplicity       :   1
Irrep              :   0
Energy             :  -153.7976782167506258 Eh
Relativity type    :
Basis              : AO
                                X                 Y                 Z
Electronic contribution:      0.282547112       1.389806710      -0.000302944
Nuclear contribution   :     -0.982638468      -2.609214205       0.000476868
                        -----------------------------------------
Total Dipole Moment    :     -0.700091357      -1.219407495       0.000173924
                        -----------------------------------------
Magnitude (a.u.)       :      1.406087685
Magnitude (Debye)      :      3.573990865

Rotational constants in cm-1:             1.159525             0.445236             0.367949
Rotational constants in MHz :         34761.680118         13347.835242         11030.818594

                             ****ORCA TERMINATED NORMALLY****
TOTAL RUN TIME: 0 days 0 hours 1 minutes 58 seconds 515 msec
