                         Program Version 6.0.0  -   RELEASE  -
|  1> ! Engrad def2-TZVPPD wB97M-D3BJ
|  2> %pal nprocs 8 end%pal nprocs 64 end
|  3> %tddft
|  4>  Iroot 2 Nroots 3
|  5> sf true
|  6> end
|  7> *xyz 0 3
|  8> O   -0.32174439 -0.35457453 0.91081839
|  9> C   0.31208789 0.54130923 0.08939971
| 10> C   1.32934162 -0.00491078 -0.84448413
| 11> H   0.9004873 1.361961 0.64257879
| 12> H   -0.4035382 1.22477828 -0.44732928
| 13> H   1.51730421 -1.10912732 -0.76092778
| 14> H   1.56955934 0.47252423 -1.76346721
| 15> *
| 16>
| 17>                          ****END OF INPUT****

CARTESIAN COORDINATES (ANGSTROEM)
---------------------------------
  O     -0.321744   -0.354575    0.910818
  C      0.312088    0.541309    0.089400
  C      1.329342   -0.004911   -0.844484
  H      0.900487    1.361961    0.642579
  H     -0.403538    1.224778   -0.447329
  H      1.517304   -1.109127   -0.760928
  H      1.569559    0.472524   -1.763467

 Total Charge           Charge          ....    0
 Multiplicity           Mult            ....    3
 Number of Electrons    NEL             ....   24
 Basis Dimension        Dim             ....  182

ORBITAL ENERGIES
----------------
                 SPIN UP ORBITALS
  NO   OCC          E(Eh)            E(eV)
   0   1.0000     -19.396104      -527.7948
   1   1.0000     -10.422214      -283.6029
   2   1.0000     -10.366728      -282.0930
   3   1.0000      -1.169376       -31.8203
   4   1.0000      -0.879789       -23.9403
   5   1.0000      -0.731223       -19.8976
   6   1.0000      -0.600339       -16.3361
   7   1.0000      -0.597468       -16.2579
   8   1.0000      -0.555537       -15.1169
   9   1.0000      -0.506566       -13.7844
  10   1.0000      -0.449649       -12.2356
  11   1.0000      -0.418701       -11.3934
  12   1.0000      -0.315424        -8.5831
  13   0.0000       0.039953         1.0872
  14   0.0000       0.060385         1.6432
  15   0.0000       0.080440         2.1889
  16   0.0000       0.082639         2.2487
  17   0.0000       0.108277         2.9464

                 SPIN DOWN ORBITALS
  NO   OCC          E(Eh)            E(eV)
   0   1.0000     -19.373469      -527.1789
   1   1.0000     -10.423734      -283.6442
   2   1.0000     -10.353297      -281.7275
   3   1.0000      -1.117456       -30.4075
   4   1.0000      -0.848758       -23.0959
   5   1.0000      -0.703948       -19.1554
   6   1.0000      -0.581616       -15.8266
   7   1.0000      -0.545932       -14.8556
   8   1.0000      -0.522182       -14.2093
   9   1.0000      -0.491341       -13.3701
  10   1.0000      -0.390004       -10.6126
  11   0.0000      -0.064332        -1.7506
  12   0.0000       0.006938         0.1888
  13   0.0000       0.039186         1.0663
  14   0.0000       0.060190         1.6378
  15   0.0000       0.080594         2.1931

----------------------------------------------------------------------------------------------------
          SPIN FLIP ABSORPTION SPECTRUM VIA TRANSITION ELECTRIC DIPOLE MOMENTS
----------------------------------------------------------------------------------------------------
     Transition      Energy     Energy  Wavelength fosc(D2)      D2        DX        DY        DZ
                      (eV)      (cm-1)    (nm)                 (au**2)    (au)      (au)      (au)
----------------------------------------------------------------------------------------------------
  1-3A  ->  2-3A    0.438808    3539.2  2825.5   0.000736636   0.06852   0.11117  -0.04396  -0.23287
  1-3A  ->  3-3A    0.797878    6435.3  1553.9   0.026797170   1.37086   0.82253   0.32369  -0.76781

Dispersion correction             ... done (  0.2 sec)

MULLIKEN ATOMIC CHARGES AND SPIN DENSITIES
------------------------------------------
   0 O :   -0.325957    0.066508
   1 C :   -0.002821    0.014550
   2 C :   -0.464444   -0.006381
   3 H :    0.195443    0.032111
   4 H :    0.220486   -0.049223
   5 H :    0.173678   -0.024709
   6 H :    0.203615   -0.032857
Sum of atomic charges       :   -0.0000000

LOEWDIN ATOMIC CHARGES AND SPIN DENSITIES
-----------------------------------------
   0 O :    0.052278    0.052658
   1 C :   -0.294842   -0.011321
   2 C :    0.263537   -0.019980
   3 H :    0.057307    0.030582
   4 H :    0.033166   -0.034283
   5 H :   -0.029549   -0.009611
   6 H :   -0.081897   -0.008045

  Mayer bond orders larger than 0.100000
B(  0-O ,  1-C ) :   0.9179 B(  1-C ,  2-C ) :   0.7989 B(  1-C ,  3-H ) :   0.9183
B(  1-C ,  4-H ) :   0.9595 B(  2-C ,  5-H ) :   1.0001 B(  2-C ,  6-H ) :   1.0097

Dispersion correction           -0.005503392
FINAL SINGLE POINT ENERGY      -153.743548620683

DIPOLE MOMENT
-------------

Method             : TDA/CIS
Type of density    : Electron Density
Level              : Relaxed density
State              :   2
Multiplicity       :   3
Irrep              :   0
Energy             :     0.0000000000000000 Eh
Relativity type    :
Basis              : AO
                                X                 Y                 Z
Electronic contribution:     -1.519148215      -1.045013532       1.929887447
Nuclear contribution   :      1.802693592       1.590375856      -2.441507835
                        -----------------------------------------
Total Dipole Moment    :      0.283545377       0.545362324      -0.511620388
                        -----------------------------------------
Magnitude (a.u.)       :      0.799733372
Magnitude (Debye)      :      2.032760686

Rotational constants in cm-1:             1.485390             0.345094             0.295878
Rotational constants in MHz :         44530.878964         10345.645570          8870.191361

                             ****ORCA TERMINATED NORMALLY****
TOTAL RUN TIME: 0 days 0 hours 0 minutes 27 seconds 69 msec
