                         Program Version 6.0.0  -   RELEASE  -
|  1> ! Engrad def2-TZVPPD wB97M-D3BJ
|  2> %pal nprocs 8 end%pal nprocs 64 end
|  3> %tddft
|  4>  Iroot 2 Nroots 3
|  5> sf true
|  6> end
|  7> *xyz 0 3
|  8> O   3.16261873 -1.44338254 -1.85325447
|  9> O   -2.30530505 1.33386598 -1.65097243
| 10> O   -1.20421655 -2.29945447 -1.07044727
| 11> O   -2.63757371 0.93055657 2.88278362
| 12> N   0.08897848 -1.46709762 0.60609021
| 13> N   -0.63042269 1.02929231 2.01887798
| 14> N   0.86035032 -1.6446096 -1.58378633
| 15> N   -2.51163817 0.99628996 0.58022189
| 16> C   2.19888481 -0.57130373 -0.01291318
| 17> C   -0.34700699 1.17914678 -0.36926322
| 18> C   1.0500467 -0.40490667 0.95672553
| 19> C   0.34092415 1.01508529 0.9368828
| 20> C   3.4898493 -0.01289408 0.36140429
| 21> C   0.44520839 1.64284086 -1.53877661
| 22> C   2.12334189 -1.301441 -1.20577244
| 23> C   -1.7914529 1.14118887 -0.58830644
| 24> C   -0.17781562 -1.82444548 -0.65915806
| 25> C   -1.96738353 0.93025351 1.87574223
| 26> H   1.53946909 -0.63345694 1.89205916
| 27> H   1.16350345 1.75686096 1.01299689
| 28> H   3.81633385 -0.55263047 1.28642932
| 29> H   4.29450476 -0.07987738 -0.33659317
| 30> H   3.48919061 1.0683333 0.59591066
| 31> H   -0.02022903 2.61153304 -1.82850358
| 32> H   1.52602224 1.72048756 -1.4430092
| 33> H   0.2624873 1.10838421 -2.54292692
| 34> H   -0.83812465 -1.39241719 0.90852632
| 35> H   -0.41325607 0.99225353 2.97956936
| 36> H   0.73422598 -2.12644255 -2.47880715
| 37> H   -3.53041466 0.84943089 0.45591302
| 38> *
| 39>
| 40>                          ****END OF INPUT****

CARTESIAN COORDINATES (ANGSTROEM)
---------------------------------
  O      3.162619   -1.443383   -1.853254
  O     -2.305305    1.333866   -1.650972
  O     -1.204217   -2.299454   -1.070447
  O     -2.637574    0.930557    2.882784
  N      0.088978   -1.467098    0.606090
  N     -0.630423    1.029292    2.018878
  N      0.860350   -1.644610   -1.583786
  N     -2.511638    0.996290    0.580222
  C      2.198885   -0.571304   -0.012913
  C     -0.347007    1.179147   -0.369263
  C      1.050047   -0.404907    0.956726
  C      0.340924    1.015085    0.936883
  C      3.489849   -0.012894    0.361404
  C      0.445208    1.642841   -1.538777
  C      2.123342   -1.301441   -1.205772
  C     -1.791453    1.141189   -0.588306
  C     -0.177816   -1.824445   -0.659158
  C     -1.967384    0.930254    1.875742
  H      1.539469   -0.633457    1.892059
  H      1.163503    1.756861    1.012997
  H      3.816334   -0.552630    1.286429
  H      4.294505   -0.079877   -0.336593
  H      3.489191    1.068333    0.595911
  H     -0.020229    2.611533   -1.828504
  H      1.526022    1.720488   -1.443009
  H      0.262487    1.108384   -2.542927
  H     -0.838125   -1.392417    0.908526
  H     -0.413256    0.992254    2.979569
  H      0.734226   -2.126443   -2.478807
  H     -3.530415    0.849431    0.455913

 Total Charge           Charge          ....    0
 Multiplicity           Mult            ....    3
 Number of Electrons    NEL             ....  132
 Basis Dimension        Dim             ....  882

ORBITAL ENERGIES
----------------
                 SPIN UP ORBITALS
  NO   OCC          E(Eh)            E(eV)
   0   1.0000     -19.336074      -526.1613
   1   1.0000     -19.329682      -525.9874
   2   1.0000     -19.323898      -525.8300
   3   1.0000     -19.320112      -525.7270
   4   1.0000     -14.571530      -396.5115
   5   1.0000     -14.566660      -396.3790
   6   1.0000     -14.562483      -396.2653
   7   1.0000     -14.561588      -396.2410
   8   1.0000     -10.510713      -286.0110
   9   1.0000     -10.504859      -285.8517
  10   1.0000     -10.483245      -285.2636
  11   1.0000     -10.471532      -284.9449
  12   1.0000     -10.459272      -284.6113
  13   1.0000     -10.450352      -284.3685
  14   1.0000     -10.421556      -283.5850
  15   1.0000     -10.411549      -283.3127
  16   1.0000     -10.378835      -282.4225
  17   1.0000     -10.371400      -282.2201
  18   1.0000      -1.231113       -33.5003
  19   1.0000      -1.227224       -33.3945
  20   1.0000      -1.209722       -32.9182
  21   1.0000      -1.193446       -32.4753
  22   1.0000      -1.125917       -30.6378
  23   1.0000      -1.103880       -30.0381
  24   1.0000      -1.074198       -29.2304
  25   1.0000      -1.067295       -29.0426
  26   1.0000      -0.987943       -26.8833
  27   1.0000      -0.962198       -26.1827
  28   1.0000      -0.894204       -24.3325
  29   1.0000      -0.844063       -22.9681
  30   1.0000      -0.825622       -22.4663
  31   1.0000      -0.809641       -22.0314
  32   1.0000      -0.791953       -21.5501
  33   1.0000      -0.780934       -21.2503
  34   1.0000      -0.705113       -19.1871
  35   1.0000      -0.698294       -19.0015
  36   1.0000      -0.693076       -18.8596
  37   1.0000      -0.690848       -18.7989
  38   1.0000      -0.660986       -17.9864
  39   1.0000      -0.638955       -17.3868
  40   1.0000      -0.627247       -17.0683
  41   1.0000      -0.606144       -16.4940
  42   1.0000      -0.602069       -16.3831
  43   1.0000      -0.590320       -16.0634
  44   1.0000      -0.575922       -15.6716
  45   1.0000      -0.573578       -15.6079
  46   1.0000      -0.570285       -15.5183
  47   1.0000      -0.564102       -15.3500
  48   1.0000      -0.561190       -15.2707
  49   1.0000      -0.560501       -15.2520
  50   1.0000      -0.558028       -15.1847
  51   1.0000      -0.532315       -14.4850
  52   1.0000      -0.531347       -14.4587
  53   1.0000      -0.521912       -14.2020
  54   1.0000      -0.514017       -13.9871
  55   1.0000      -0.502552       -13.6751
  56   1.0000      -0.492311       -13.3965
  57   1.0000      -0.426168       -11.5966
  58   1.0000      -0.420032       -11.4297
  59   1.0000      -0.417119       -11.3504
  60   1.0000      -0.410535       -11.1712
  61   1.0000      -0.405736       -11.0406
  62   1.0000      -0.396068       -10.7776
  63   1.0000      -0.393955       -10.7201
  64   1.0000      -0.387691       -10.5496
  65   1.0000      -0.349526        -9.5111
  66   1.0000      -0.325761        -8.8644
  67   0.0000       0.010854         0.2953
  68   0.0000       0.031106         0.8464
  69   0.0000       0.032887         0.8949
  70   0.0000       0.034393         0.9359
  71   0.0000       0.054217         1.4753

                 SPIN DOWN ORBITALS
  NO   OCC          E(Eh)            E(eV)
   0   1.0000     -19.332846      -526.0735
   1   1.0000     -19.324433      -525.8446
   2   1.0000     -19.323707      -525.8248
   3   1.0000     -19.319985      -525.7235
   4   1.0000     -14.570799      -396.4916
   5   1.0000     -14.566531      -396.3754
   6   1.0000     -14.561707      -396.2442
   7   1.0000     -14.561499      -396.2385
   8   1.0000     -10.510764      -286.0124
   9   1.0000     -10.504922      -285.8535
  10   1.0000     -10.484100      -285.2869
  11   1.0000     -10.472636      -284.9749
  12   1.0000     -10.459181      -284.6088
  13   1.0000     -10.449787      -284.3531
  14   1.0000     -10.410098      -283.2732
  15   1.0000     -10.400487      -283.0116
  16   1.0000     -10.379310      -282.4354
  17   1.0000     -10.372008      -282.2367
  18   1.0000      -1.229872       -33.4665
  19   1.0000      -1.225626       -33.3510
  20   1.0000      -1.206309       -32.8254
  21   1.0000      -1.186391       -32.2833
  22   1.0000      -1.123474       -30.5713
  23   1.0000      -1.101936       -29.9852
  24   1.0000      -1.072064       -29.1724
  25   1.0000      -1.065616       -28.9969
  26   1.0000      -0.975705       -26.5503
  27   1.0000      -0.944982       -25.7143
  28   1.0000      -0.887677       -24.1549
  29   1.0000      -0.839413       -22.8416
  30   1.0000      -0.817126       -22.2351
  31   1.0000      -0.803385       -21.8612
  32   1.0000      -0.790545       -21.5118
  33   1.0000      -0.779550       -21.2126
  34   1.0000      -0.701144       -19.0791
  35   1.0000      -0.693549       -18.8724
  36   1.0000      -0.686314       -18.6756
  37   1.0000      -0.684257       -18.6196
  38   1.0000      -0.649011       -17.6605
  39   1.0000      -0.634534       -17.2665
  40   1.0000      -0.621845       -16.9213
  41   1.0000      -0.600041       -16.3279
  42   1.0000      -0.597203       -16.2507
  43   1.0000      -0.585296       -15.9267
  44   1.0000      -0.567279       -15.4364
  45   1.0000      -0.566985       -15.4284
  46   1.0000      -0.563769       -15.3409
  47   1.0000      -0.560109       -15.2413
  48   1.0000      -0.556343       -15.1389
  49   1.0000      -0.551104       -14.9963
  50   1.0000      -0.545952       -14.8561
  51   1.0000      -0.524749       -14.2791
  52   1.0000      -0.523683       -14.2501
  53   1.0000      -0.512817       -13.9545
  54   1.0000      -0.505650       -13.7594
  55   1.0000      -0.493137       -13.4189
  56   1.0000      -0.488131       -13.2827
  57   1.0000      -0.423320       -11.5191
  58   1.0000      -0.416835       -11.3427
  59   1.0000      -0.410186       -11.1617
  60   1.0000      -0.398563       -10.8455
  61   1.0000      -0.392118       -10.6701
  62   1.0000      -0.391474       -10.6525
  63   1.0000      -0.389084       -10.5875
  64   1.0000      -0.381558       -10.3827
  65   0.0000      -0.066443        -1.8080
  66   0.0000      -0.048242        -1.3127
  67   0.0000       0.010528         0.2865
  68   0.0000       0.030666         0.8345
  69   0.0000       0.032850         0.8939

----------------------------------------------------------------------------------------------------
          SPIN FLIP ABSORPTION SPECTRUM VIA TRANSITION ELECTRIC DIPOLE MOMENTS
----------------------------------------------------------------------------------------------------
     Transition      Energy     Energy  Wavelength fosc(D2)      D2        DX        DY        DZ
                      (eV)      (cm-1)    (nm)                 (au**2)    (au)      (au)      (au)
----------------------------------------------------------------------------------------------------
  1-3A  ->  2-3A    0.098987     798.4  12525.3   0.000026398   0.01089  -0.08505   0.03153   0.05155
  1-3A  ->  3-3A    2.100318   16940.2   590.3   0.000152078   0.00296  -0.05106  -0.01333   0.01307

Dispersion correction             ... done (  0.1 sec)

MULLIKEN ATOMIC CHARGES AND SPIN DENSITIES
------------------------------------------
   0 O :   -0.683812   -0.028006
   1 O :   -0.646287    0.015922
   2 O :   -0.650608   -0.000616
   3 O :   -0.659329    0.000067
   4 N :   -0.305740   -0.011499
   5 N :   -0.184151    0.000694
   6 N :    0.055950   -0.010252
   7 N :   -0.030342    0.001657
   8 C :    0.531506    0.282390
   9 C :    0.701454    0.357745
  10 C :    0.300461   -0.171830
  11 C :    0.027442   -0.205507
  12 C :   -1.526336    0.025556
  13 C :   -1.634902    0.016970
  14 C :    0.202377   -0.225019
  15 C :    0.401124   -0.116327
  16 C :    0.330455    0.022442
  17 C :    0.459984    0.012432
  18 H :    0.575087   -0.009182
  19 H :    0.511457    0.004026
  20 H :    0.395617    0.007463
  21 H :    0.281550   -0.003446
  22 H :    0.293277    0.006456
  23 H :    0.417786    0.010415
  24 H :    0.330222    0.003767
  25 H :    0.265914    0.005892
  26 H :    0.089618    0.002199
  27 H :    0.007594    0.000825
  28 H :    0.070156    0.003481
  29 H :    0.072475    0.001286
Sum of atomic charges       :   -0.0000000

LOEWDIN ATOMIC CHARGES AND SPIN DENSITIES
-----------------------------------------
   0 O :    0.072078   -0.024202
   1 O :    0.118331    0.014184
   2 O :    0.110186   -0.000283
   3 O :    0.082560    0.000049
   4 N :    0.316135    0.000257
   5 N :    0.291433   -0.000647
   6 N :    0.327592   -0.006386
   7 N :    0.323443    0.003128
   8 C :   -0.055872   -0.062184
   9 C :   -0.024272    0.079629
  10 C :   -0.062036   -0.002913
  11 C :   -0.084875    0.005666
  12 C :    0.176762   -0.010237
  13 C :    0.174419    0.009432
  14 C :   -0.439383   -0.016797
  15 C :   -0.445937    0.008912
  16 C :   -0.503747    0.000547
  17 C :   -0.488946   -0.000084
  18 H :    0.042156   -0.001400
  19 H :    0.066523    0.001733
  20 H :    0.034649   -0.003321
  21 H :   -0.017549    0.000039
  22 H :    0.014294   -0.002085
  23 H :    0.021263    0.004340
  24 H :   -0.006395   -0.000630
  25 H :    0.054380    0.003627
  26 H :   -0.087556    0.000052
  27 H :   -0.046095   -0.000123
  28 H :    0.013247   -0.000529
  29 H :    0.023211    0.000227

  Mayer bond orders larger than 0.100000
B(  0-O , 14-C ) :   1.2805 B(  1-O , 13-C ) :   0.1157 B(  1-O , 15-C ) :   1.3244
B(  2-O , 16-C ) :   1.5003 B(  3-O , 17-C ) :   1.5842 B(  4-N ,  8-C ) :   0.2711
B(  4-N , 10-C ) :   0.1702 B(  4-N , 16-C ) :   1.1165 B(  4-N , 18-H ) :  -0.2122
B(  4-N , 26-H ) :   0.8968 B(  5-N ,  9-C ) :   0.1288 B(  5-N , 10-C ) :   0.1034
B(  5-N , 11-C ) :   0.4585 B(  5-N , 17-C ) :   1.1465 B(  5-N , 19-H ) :  -0.1069
B(  5-N , 27-H ) :   1.1287 B(  6-N ,  8-C ) :  -0.1503 B(  6-N , 14-C ) :   1.1615
B(  6-N , 16-C ) :   0.9058 B(  6-N , 28-H ) :   1.0755 B(  7-N , 15-C ) :   0.9970
B(  7-N , 17-C ) :   0.9186 B(  7-N , 29-H ) :   1.0969 B(  8-C ,  9-C ) :   0.1528
B(  8-C , 10-C ) :   0.6314 B(  8-C , 12-C ) :   0.3946 B(  8-C , 13-C ) :   0.1322
B(  8-C , 14-C ) :   0.8135 B(  8-C , 18-H ) :  -0.1116 B(  9-C , 10-C ) :   0.1075
B(  9-C , 11-C ) :   0.8636 B(  9-C , 13-C ) :   0.1766 B(  9-C , 15-C ) :   0.5845
B(  9-C , 19-H ) :  -0.1925 B(  9-C , 24-H ) :  -0.1154 B(  9-C , 25-H ) :  -0.1403
B( 10-C , 11-C ) :   0.6816 B( 10-C , 16-C ) :  -0.1886 B( 10-C , 18-H ) :   0.7779
B( 11-C , 13-C ) :  -0.2591 B( 11-C , 17-C ) :  -0.1699 B( 11-C , 19-H ) :   0.8900
B( 12-C , 14-C ) :  -0.1590 B( 12-C , 20-H ) :   0.8255 B( 12-C , 21-H ) :   1.0843
B( 12-C , 22-H ) :   0.9481 B( 13-C , 23-H ) :   0.7476 B( 13-C , 24-H ) :   1.0684
B( 13-C , 25-H ) :   1.0915

Dispersion correction           -0.059082400
FINAL SINGLE POINT ENERGY      -908.768383072634

DIPOLE MOMENT
-------------

Method             : TDA/CIS
Type of density    : Electron Density
Level              : Relaxed density
State              :   2
Multiplicity       :   3
Irrep              :   0
Energy             :     0.0000000000000000 Eh
Relativity type    :
Basis              : AO
                                X                 Y                 Z
Electronic contribution:     -9.649616196      -4.449754403       0.323021516
Nuclear contribution   :     11.309935039       5.503211000       0.759080428
                        -----------------------------------------
Total Dipole Moment    :      1.660318843       1.053456597       1.082101944
                        -----------------------------------------
Magnitude (a.u.)       :      2.244409517
Magnitude (Debye)      :      5.704835621

Rotational constants in cm-1:             0.023951             0.011733             0.010734
Rotational constants in MHz :           718.040263           351.740783           321.805893

                             ****ORCA TERMINATED NORMALLY****
TOTAL RUN TIME: 0 days 0 hours 5 minutes 16 seconds 707 msec
