                         Program Version 6.0.0  -   RELEASE  -
|  1> ! Engrad def2-TZVPPD wB97M-D3BJ
|  2> %pal nprocs 8 end%pal nprocs 64 end
|  3> %tddft
|  4>  Iroot 1 Nroots 3
|  5> sf true
|  6> end
|  7> *xyz 0 3
|  8> O   2.94176949 -1.31250531 -2.33037797
|  9> O   -2.26247547 1.56213017 -1.28327314
| 10> O   -1.46235935 -2.16156151 -1.31360516
| 11> O   -2.43324083 0.99067075 3.23327077
| 12> N   -0.09975955 -1.532385 0.33017559
| 13> N   -0.41596992 0.58271367 2.23621038
| 14> N   0.63929025 -1.69960488 -1.8867426
| 15> N   -2.26182022 1.09471244 0.93230914
| 16> C   2.08221877 -0.64219561 -0.25443786
| 17> C   -0.14939565 1.41687145 -0.10347935
| 18> C   1.00159422 -0.70867428 0.67805815
| 19> C   0.4566585 0.71142901 1.10140367
| 20> C   3.45898573 -0.16192265 0.11259974
| 21> C   0.53108564 1.8137912 -1.34880246
| 22> C   1.95371496 -1.25180176 -1.579921
| 23> C   -1.59892167 1.4013072 -0.2305161
| 24> C   -0.42264043 -1.7859385 -0.92097996
| 25> C   -1.75224715 0.90896123 2.2309197
| 26> H   1.36317063 -1.07951616 1.65746516
| 27> H   1.29023561 1.26548283 1.521249
| 28> H   3.44414216 -0.13456388 1.16750287
| 29> H   4.17689057 -0.71444312 -0.3174302
| 30> H   3.71394804 0.87465853 -0.15879708
| 31> H   0.19492052 2.8896027 -1.48158438
| 32> H   1.6079711 1.83132581 -1.27591271
| 33> H   0.29573446 1.21785402 -2.18394381
| 34> H   -0.81182718 -1.60477561 1.0459787
| 35> H   -0.00898492 0.80108419 3.13084105
| 36> H   0.55710038 -2.32777217 -2.66003277
| 37> H   -3.25643913 0.97164363 0.91403138
| 38> *
| 39>
| 40>                          ****END OF INPUT****

CARTESIAN COORDINATES (ANGSTROEM)
---------------------------------
  O      2.941769   -1.312505   -2.330378
  O     -2.262475    1.562130   -1.283273
  O     -1.462359   -2.161562   -1.313605
  O     -2.433241    0.990671    3.233271
  N     -0.099760   -1.532385    0.330176
  N     -0.415970    0.582714    2.236210
  N      0.639290   -1.699605   -1.886743
  N     -2.261820    1.094712    0.932309
  C      2.082219   -0.642196   -0.254438
  C     -0.149396    1.416871   -0.103479
  C      1.001594   -0.708674    0.678058
  C      0.456659    0.711429    1.101404
  C      3.458986   -0.161923    0.112600
  C      0.531086    1.813791   -1.348802
  C      1.953715   -1.251802   -1.579921
  C     -1.598922    1.401307   -0.230516
  C     -0.422640   -1.785938   -0.920980
  C     -1.752247    0.908961    2.230920
  H      1.363171   -1.079516    1.657465
  H      1.290236    1.265483    1.521249
  H      3.444142   -0.134564    1.167503
  H      4.176891   -0.714443   -0.317430
  H      3.713948    0.874659   -0.158797
  H      0.194921    2.889603   -1.481584
  H      1.607971    1.831326   -1.275913
  H      0.295734    1.217854   -2.183944
  H     -0.811827   -1.604776    1.045979
  H     -0.008985    0.801084    3.130841
  H      0.557100   -2.327772   -2.660033
  H     -3.256439    0.971644    0.914031

 Total Charge           Charge          ....    0
 Multiplicity           Mult            ....    3
 Number of Electrons    NEL             ....  132
 Basis Dimension        Dim             ....  882

ORBITAL ENERGIES
----------------
                 SPIN UP ORBITALS
  NO   OCC          E(Eh)            E(eV)
   0   1.0000     -19.334813      -526.1270
   1   1.0000     -19.334430      -526.1166
   2   1.0000     -19.330992      -526.0230
   3   1.0000     -19.317585      -525.6582
   4   1.0000     -14.572661      -396.5423
   5   1.0000     -14.565693      -396.3527
   6   1.0000     -14.565392      -396.3445
   7   1.0000     -14.558087      -396.1457
   8   1.0000     -10.517048      -286.1834
   9   1.0000     -10.499656      -285.7102
  10   1.0000     -10.483154      -285.2611
  11   1.0000     -10.483117      -285.2601
  12   1.0000     -10.453172      -284.4453
  13   1.0000     -10.443573      -284.1841
  14   1.0000     -10.424684      -283.6701
  15   1.0000     -10.417111      -283.4640
  16   1.0000     -10.370795      -282.2037
  17   1.0000     -10.366710      -282.0925
  18   1.0000      -1.233618       -33.5685
  19   1.0000      -1.223366       -33.2895
  20   1.0000      -1.185547       -32.2604
  21   1.0000      -1.181911       -32.1614
  22   1.0000      -1.135734       -30.9049
  23   1.0000      -1.109587       -30.1934
  24   1.0000      -1.067246       -29.0412
  25   1.0000      -1.055035       -28.7090
  26   1.0000      -0.990461       -26.9518
  27   1.0000      -0.960871       -26.1466
  28   1.0000      -0.899620       -24.4799
  29   1.0000      -0.853154       -23.2155
  30   1.0000      -0.828706       -22.5502
  31   1.0000      -0.807709       -21.9789
  32   1.0000      -0.790450       -21.5092
  33   1.0000      -0.782061       -21.2810
  34   1.0000      -0.707237       -19.2449
  35   1.0000      -0.700331       -19.0570
  36   1.0000      -0.692733       -18.8502
  37   1.0000      -0.687958       -18.7203
  38   1.0000      -0.657338       -17.8871
  39   1.0000      -0.640748       -17.4356
  40   1.0000      -0.631228       -17.1766
  41   1.0000      -0.611953       -16.6521
  42   1.0000      -0.591198       -16.0873
  43   1.0000      -0.586911       -15.9707
  44   1.0000      -0.578124       -15.7316
  45   1.0000      -0.575840       -15.6694
  46   1.0000      -0.570931       -15.5358
  47   1.0000      -0.567459       -15.4413
  48   1.0000      -0.562369       -15.3029
  49   1.0000      -0.555787       -15.1237
  50   1.0000      -0.552067       -15.0225
  51   1.0000      -0.533602       -14.5200
  52   1.0000      -0.530235       -14.4284
  53   1.0000      -0.525541       -14.3007
  54   1.0000      -0.519291       -14.1306
  55   1.0000      -0.512796       -13.9539
  56   1.0000      -0.493220       -13.4212
  57   1.0000      -0.424682       -11.5562
  58   1.0000      -0.423911       -11.5352
  59   1.0000      -0.412262       -11.2182
  60   1.0000      -0.407601       -11.0914
  61   1.0000      -0.405097       -11.0233
  62   1.0000      -0.397020       -10.8035
  63   1.0000      -0.391496       -10.6532
  64   1.0000      -0.386105       -10.5065
  65   1.0000      -0.353707        -9.6248
  66   1.0000      -0.323523        -8.8035
  67   0.0000       0.005039         0.1371
  68   0.0000       0.028149         0.7660
  69   0.0000       0.031187         0.8486
  70   0.0000       0.034733         0.9451
  71   0.0000       0.052315         1.4236

                 SPIN DOWN ORBITALS
  NO   OCC          E(Eh)            E(eV)
   0   1.0000     -19.334381      -526.1153
   1   1.0000     -19.330704      -526.0152
   2   1.0000     -19.326991      -525.9142
   3   1.0000     -19.317563      -525.6576
   4   1.0000     -14.572590      -396.5403
   5   1.0000     -14.565426      -396.3454
   6   1.0000     -14.564915      -396.3315
   7   1.0000     -14.557327      -396.1250
   8   1.0000     -10.517087      -286.1845
   9   1.0000     -10.499689      -285.7111
  10   1.0000     -10.484194      -285.2894
  11   1.0000     -10.484130      -285.2877
  12   1.0000     -10.452359      -284.4232
  13   1.0000     -10.443368      -284.1785
  14   1.0000     -10.413228      -283.3583
  15   1.0000     -10.405952      -283.1604
  16   1.0000     -10.371185      -282.2143
  17   1.0000     -10.367288      -282.1082
  18   1.0000      -1.233241       -33.5582
  19   1.0000      -1.222750       -33.2727
  20   1.0000      -1.179452       -32.0945
  21   1.0000      -1.176758       -32.0212
  22   1.0000      -1.133561       -30.8458
  23   1.0000      -1.108056       -30.1517
  24   1.0000      -1.064876       -28.9767
  25   1.0000      -1.053114       -28.6567
  26   1.0000      -0.977842       -26.6084
  27   1.0000      -0.943442       -25.6723
  28   1.0000      -0.893656       -24.3176
  29   1.0000      -0.848308       -23.0836
  30   1.0000      -0.820168       -22.3179
  31   1.0000      -0.802988       -21.8504
  32   1.0000      -0.788351       -21.4521
  33   1.0000      -0.779861       -21.2211
  34   1.0000      -0.703636       -19.1469
  35   1.0000      -0.693634       -18.8748
  36   1.0000      -0.686259       -18.6741
  37   1.0000      -0.681695       -18.5499
  38   1.0000      -0.649164       -17.6646
  39   1.0000      -0.637599       -17.3499
  40   1.0000      -0.622722       -16.9451
  41   1.0000      -0.606361       -16.4999
  42   1.0000      -0.586072       -15.9478
  43   1.0000      -0.581452       -15.8221
  44   1.0000      -0.572218       -15.5708
  45   1.0000      -0.568760       -15.4768
  46   1.0000      -0.561816       -15.2878
  47   1.0000      -0.561498       -15.2791
  48   1.0000      -0.557114       -15.1599
  49   1.0000      -0.545392       -14.8409
  50   1.0000      -0.543192       -14.7810
  51   1.0000      -0.526473       -14.3261
  52   1.0000      -0.524782       -14.2801
  53   1.0000      -0.517122       -14.0716
  54   1.0000      -0.511840       -13.9279
  55   1.0000      -0.503266       -13.6946
  56   1.0000      -0.487725       -13.2717
  57   1.0000      -0.422011       -11.4835
  58   1.0000      -0.421773       -11.4770
  59   1.0000      -0.409223       -11.1355
  60   1.0000      -0.394861       -10.7447
  61   1.0000      -0.391964       -10.6659
  62   1.0000      -0.387582       -10.5466
  63   1.0000      -0.385890       -10.5006
  64   1.0000      -0.378785       -10.3073
  65   0.0000      -0.068639        -1.8678
  66   0.0000      -0.050244        -1.3672
  67   0.0000       0.004338         0.1180
  68   0.0000       0.027855         0.7580
  69   0.0000       0.030940         0.8419

----------------------------------------------------------------------------------------------------
          SPIN FLIP ABSORPTION SPECTRUM VIA TRANSITION ELECTRIC DIPOLE MOMENTS
----------------------------------------------------------------------------------------------------
     Transition      Energy     Energy  Wavelength fosc(D2)      D2        DX        DY        DZ
                      (eV)      (cm-1)    (nm)                 (au**2)    (au)      (au)      (au)
----------------------------------------------------------------------------------------------------
  1-3A  ->  2-3A    0.126935    1023.8  9767.6   0.000050152   0.01613   0.09533  -0.06277  -0.05567
  1-3A  ->  3-3A    2.199517   17740.3   563.7   0.001908170   0.03541   0.14163  -0.10487   0.06598

Dispersion correction             ... done (  0.1 sec)

MULLIKEN ATOMIC CHARGES AND SPIN DENSITIES
------------------------------------------
   0 O :   -0.691651   -0.026758
   1 O :   -0.699915    0.028439
   2 O :   -0.616974    0.000074
   3 O :   -0.634611   -0.000103
   4 N :   -0.212210   -0.009024
   5 N :   -0.240562    0.001334
   6 N :    0.049865   -0.006226
   7 N :    0.023563    0.003059
   8 C :    0.705840    0.362571
   9 C :    0.383810    0.386619
  10 C :   -0.025946   -0.301966
  11 C :    0.256566   -0.164876
  12 C :   -1.624708    0.007403
  13 C :   -1.499661   -0.042618
  14 C :    0.287933   -0.179298
  15 C :    0.351820   -0.093305
  16 C :    0.382285    0.014844
  17 C :    0.378241    0.006563
  18 H :    0.421565   -0.021140
  19 H :    0.574682   -0.009727
  20 H :    0.413359    0.009502
  21 H :    0.464133   -0.006659
  22 H :    0.231119    0.003353
  23 H :    0.425271    0.012743
  24 H :    0.316917    0.007217
  25 H :    0.334548    0.014662
  26 H :    0.064237    0.001073
  27 H :    0.080595   -0.001608
  28 H :    0.067054    0.002159
  29 H :    0.032836    0.001691
Sum of atomic charges       :    0.0000000

LOEWDIN ATOMIC CHARGES AND SPIN DENSITIES
-----------------------------------------
   0 O :    0.054787   -0.023631
   1 O :    0.064149    0.024137
   2 O :    0.135778    0.000042
   3 O :    0.092606   -0.000336
   4 N :    0.293889   -0.000371
   5 N :    0.265139   -0.002279
   6 N :    0.340989   -0.006634
   7 N :    0.323148    0.003178
   8 C :   -0.033169   -0.077408
   9 C :    0.002245    0.099825
  10 C :   -0.148483   -0.012707
  11 C :   -0.092093   -0.000069
  12 C :    0.236470   -0.011137
  13 C :    0.197140    0.013354
  14 C :   -0.368734   -0.016008
  15 C :   -0.394512    0.010764
  16 C :   -0.521485   -0.000075
  17 C :   -0.454144   -0.000307
  18 H :    0.076626   -0.003958
  19 H :    0.052351    0.001582
  20 H :   -0.026227   -0.000220
  21 H :   -0.066349   -0.001198
  22 H :    0.027549   -0.003417
  23 H :    0.056319    0.004437
  24 H :   -0.013756   -0.000982
  25 H :   -0.014743    0.004004
  26 H :   -0.007924   -0.000058
  27 H :   -0.026449   -0.000223
  28 H :   -0.033973   -0.000608
  29 H :   -0.017142    0.000303

  Mayer bond orders larger than 0.100000
B(  0-O ,  8-C ) :   0.1227 B(  0-O , 14-C ) :   1.2283 B(  1-O , 15-C ) :   1.3504
B(  2-O , 16-C ) :   1.5293 B(  3-O , 17-C ) :   1.6346 B(  4-N ,  9-C ) :   0.1042
B(  4-N , 10-C ) :   0.5351 B(  4-N , 16-C ) :   1.0606 B(  4-N , 26-H ) :   1.1187
B(  5-N , 10-C ) :   0.2685 B(  5-N , 11-C ) :   0.3054 B(  5-N , 17-C ) :   1.1409
B(  5-N , 27-H ) :   1.0889 B(  6-N ,  8-C ) :  -0.1225 B(  6-N , 10-C ) :   0.1495
B(  6-N , 14-C ) :   1.0252 B(  6-N , 16-C ) :   0.9259 B(  6-N , 28-H ) :   1.0481
B(  7-N , 15-C ) :   1.0171 B(  7-N , 17-C ) :   0.9613 B(  7-N , 29-H ) :   1.1061
B(  8-C ,  9-C ) :   0.1599 B(  8-C , 10-C ) :   0.4390 B(  8-C , 11-C ) :   0.1900
B(  8-C , 12-C ) :   0.2523 B(  8-C , 14-C ) :   0.6548 B(  8-C , 18-H ) :  -0.1125
B(  8-C , 20-H ) :  -0.1275 B(  9-C , 10-C ) :   0.1402 B(  9-C , 11-C ) :   0.7183
B(  9-C , 13-C ) :   0.1873 B(  9-C , 15-C ) :   1.0165 B(  9-C , 19-H ) :  -0.1520
B(  9-C , 24-H ) :  -0.1608 B( 10-C , 11-C ) :   0.4537 B( 10-C , 14-C ) :   0.1163
B( 10-C , 18-H ) :   0.8442 B( 10-C , 19-H ) :  -0.1200 B( 11-C , 15-C ) :  -0.1175
B( 11-C , 17-C ) :  -0.1561 B( 11-C , 18-H ) :  -0.1048 B( 11-C , 19-H ) :   0.7983
B( 12-C , 14-C ) :  -0.1310 B( 12-C , 20-H ) :   0.9133 B( 12-C , 21-H ) :   0.8168
B( 12-C , 22-H ) :   0.9110 B( 13-C , 23-H ) :   0.8522 B( 13-C , 24-H ) :   1.0708
B( 13-C , 25-H ) :   0.9243

Dispersion correction           -0.058665333
FINAL SINGLE POINT ENERGY      -908.773381789758

DIPOLE MOMENT
-------------

Method             : TDA/CIS
Type of density    : Electron Density
Level              : Relaxed density
State              :   1
Multiplicity       :   3
Irrep              :   0
Energy             :     0.0000000000000000 Eh
Relativity type    :
Basis              : AO
                                X                 Y                 Z
Electronic contribution:     -9.867305492      -3.786432941       0.090503266
Nuclear contribution   :     11.818125455       4.263448510       1.571080458
                        -----------------------------------------
Total Dipole Moment    :      1.950819963       0.477015569       1.661583724
                        -----------------------------------------
Magnitude (a.u.)       :      2.606549990
Magnitude (Debye)      :      6.625323552

Rotational constants in cm-1:             0.023554             0.011489             0.010561
Rotational constants in MHz :           706.137631           344.430351           316.623119

                             ****ORCA TERMINATED NORMALLY****
TOTAL RUN TIME: 0 days 0 hours 5 minutes 7 seconds 877 msec
