                         Program Version 6.0.0  -   RELEASE  -
|  1> ! Engrad def2-TZVPPD wB97M-D3BJ
|  2> %pal nprocs 8 end%pal nprocs 64 end
|  3> %tddft Nroots 2 Iroot 1
|  4> sf true
|  5> end
|  6> *xyz 0 3
|  7> O   3.04447884 0.97173352 -0.64754819
|  8> O   -1.33065853 0.93631795 -2.32279922
|  9> O   0.75701091 -2.86275679 -1.62447155
| 10> O   -3.07051058 -1.21214167 1.38706043
| 11> N   1.04234003 -2.30576584 0.51696127
| 12> N   -2.23279551 0.89365239 1.56869877
| 13> N   1.87869698 -0.88658663 -1.05908981
| 14> N   -2.02718911 -0.2158589 -0.44596719
| 15> C   2.13885209 -0.24125067 1.2132257
| 16> C   -1.14074957 2.04964129 -0.15840407
| 17> C   1.48525043 -1.44090243 1.47417907
| 18> C   -1.58025702 1.93708649 1.16953972
| 19> C   2.60010372 0.67752464 2.25400625
| 20> C   -0.52269501 3.29882119 -0.68602736
| 21> C   2.42456071 0.0507592 -0.121357
| 22> C   -1.4856845 0.95882787 -1.07773025
| 23> C   1.23357567 -2.11575025 -0.82157895
| 24> C   -2.4875967 -0.27420391 0.85877533
| 25> H   1.13026838 -1.76718071 2.53780717
| 26> H   -1.26496737 2.73870884 1.82566399
| 27> H   2.22998923 0.32759377 3.29300215
| 28> H   3.68869219 0.66972245 2.37421414
| 29> H   2.29619572 1.66541145 1.95021173
| 30> H   0.08321585 3.15103602 -1.52158664
| 31> H   -1.30050762 3.9749742 -1.05028597
| 32> H   0.01255562 3.71688635 0.1764941
| 33> H   0.41695466 -2.98720653 0.73592668
| 34> H   -2.41442927 0.8914977 2.5490656
| 35> H   2.15952239 -0.60537773 -2.01917852
| 36> H   -1.88387674 -1.07379496 -1.0040346
| 37> *
| 38>
| 39>                          ****END OF INPUT****

CARTESIAN COORDINATES (ANGSTROEM)
---------------------------------
  O      3.044479    0.971734   -0.647548
  O     -1.330659    0.936318   -2.322799
  O      0.757011   -2.862757   -1.624472
  O     -3.070511   -1.212142    1.387060
  N      1.042340   -2.305766    0.516961
  N     -2.232796    0.893652    1.568699
  N      1.878697   -0.886587   -1.059090
  N     -2.027189   -0.215859   -0.445967
  C      2.138852   -0.241251    1.213226
  C     -1.140750    2.049641   -0.158404
  C      1.485250   -1.440902    1.474179
  C     -1.580257    1.937086    1.169540
  C      2.600104    0.677525    2.254006
  C     -0.522695    3.298821   -0.686027
  C      2.424561    0.050759   -0.121357
  C     -1.485684    0.958828   -1.077730
  C      1.233576   -2.115750   -0.821579
  C     -2.487597   -0.274204    0.858775
  H      1.130268   -1.767181    2.537807
  H     -1.264967    2.738709    1.825664
  H      2.229989    0.327594    3.293002
  H      3.688692    0.669722    2.374214
  H      2.296196    1.665411    1.950212
  H      0.083216    3.151036   -1.521587
  H     -1.300508    3.974974   -1.050286
  H      0.012556    3.716886    0.176494
  H      0.416955   -2.987207    0.735927
  H     -2.414429    0.891498    2.549066
  H      2.159522   -0.605378   -2.019179
  H     -1.883877   -1.073795   -1.004035

 Total Charge           Charge          ....    0
 Multiplicity           Mult            ....    3
 Number of Electrons    NEL             ....  132
 Basis Dimension        Dim             ....  882

ORBITAL ENERGIES
----------------
                 SPIN UP ORBITALS
  NO   OCC          E(Eh)            E(eV)
   0   1.0000     -19.333880      -526.1016
   1   1.0000     -19.330242      -526.0026
   2   1.0000     -19.327474      -525.9273
   3   1.0000     -19.318829      -525.6921
   4   1.0000     -14.590541      -397.0288
   5   1.0000     -14.586748      -396.9256
   6   1.0000     -14.574014      -396.5791
   7   1.0000     -14.546165      -395.8213
   8   1.0000     -10.521892      -286.3152
   9   1.0000     -10.508334      -285.9463
  10   1.0000     -10.480531      -285.1897
  11   1.0000     -10.457940      -284.5750
  12   1.0000     -10.437045      -284.0064
  13   1.0000     -10.418179      -283.4931
  14   1.0000     -10.413772      -283.3731
  15   1.0000     -10.382542      -282.5233
  16   1.0000     -10.379670      -282.4452
  17   1.0000     -10.348237      -281.5898
  18   1.0000      -1.231073       -33.4992
  19   1.0000      -1.221751       -33.2455
  20   1.0000      -1.190114       -32.3846
  21   1.0000      -1.165524       -31.7155
  22   1.0000      -1.137258       -30.9464
  23   1.0000      -1.131168       -30.7806
  24   1.0000      -1.063478       -28.9387
  25   1.0000      -1.044408       -28.4198
  26   1.0000      -0.985186       -26.8083
  27   1.0000      -0.946127       -25.7454
  28   1.0000      -0.862406       -23.4673
  29   1.0000      -0.852150       -23.1882
  30   1.0000      -0.813722       -22.1425
  31   1.0000      -0.811787       -22.0899
  32   1.0000      -0.791732       -21.5441
  33   1.0000      -0.787319       -21.4240
  34   1.0000      -0.702784       -19.1237
  35   1.0000      -0.702041       -19.1035
  36   1.0000      -0.692012       -18.8306
  37   1.0000      -0.685972       -18.6663
  38   1.0000      -0.649463       -17.6728
  39   1.0000      -0.627107       -17.0644
  40   1.0000      -0.613496       -16.6941
  41   1.0000      -0.610508       -16.6128
  42   1.0000      -0.595465       -16.2034
  43   1.0000      -0.587737       -15.9931
  44   1.0000      -0.579018       -15.7559
  45   1.0000      -0.572879       -15.5888
  46   1.0000      -0.562243       -15.2994
  47   1.0000      -0.546974       -14.8839
  48   1.0000      -0.544944       -14.8287
  49   1.0000      -0.542087       -14.7509
  50   1.0000      -0.534607       -14.5474
  51   1.0000      -0.530762       -14.4428
  52   1.0000      -0.512102       -13.9350
  53   1.0000      -0.509906       -13.8752
  54   1.0000      -0.508811       -13.8455
  55   1.0000      -0.494464       -13.4551
  56   1.0000      -0.494208       -13.4481
  57   1.0000      -0.483400       -13.1540
  58   1.0000      -0.424735       -11.5576
  59   1.0000      -0.418485       -11.3875
  60   1.0000      -0.403993       -10.9932
  61   1.0000      -0.397170       -10.8076
  62   1.0000      -0.391249       -10.6464
  63   1.0000      -0.387024       -10.5315
  64   1.0000      -0.379706       -10.3323
  65   1.0000      -0.330890        -9.0040
  66   1.0000      -0.226645        -6.1673
  67   0.0000       0.006272         0.1707
  68   0.0000       0.011546         0.3142
  69   0.0000       0.026498         0.7210
  70   0.0000       0.034466         0.9379
  71   0.0000       0.040613         1.1051

                 SPIN DOWN ORBITALS
  NO   OCC          E(Eh)            E(eV)
   0   1.0000     -19.331865      -526.0468
   1   1.0000     -19.330239      -526.0025
   2   1.0000     -19.320182      -525.7289
   3   1.0000     -19.318820      -525.6918
   4   1.0000     -14.590525      -397.0284
   5   1.0000     -14.581736      -396.7892
   6   1.0000     -14.574018      -396.5792
   7   1.0000     -14.545330      -395.7985
   8   1.0000     -10.521891      -286.3152
   9   1.0000     -10.508741      -285.9574
  10   1.0000     -10.480532      -285.1898
  11   1.0000     -10.457555      -284.5645
  12   1.0000     -10.437030      -284.0060
  13   1.0000     -10.409038      -283.2443
  14   1.0000     -10.403303      -283.0883
  15   1.0000     -10.382948      -282.5344
  16   1.0000     -10.379660      -282.4449
  17   1.0000     -10.348235      -281.5898
  18   1.0000      -1.226552       -33.3762
  19   1.0000      -1.221736       -33.2451
  20   1.0000      -1.179023       -32.0829
  21   1.0000      -1.165514       -31.7152
  22   1.0000      -1.137235       -30.9457
  23   1.0000      -1.120044       -30.4780
  24   1.0000      -1.063476       -28.9387
  25   1.0000      -1.038867       -28.2690
  26   1.0000      -0.962994       -26.2044
  27   1.0000      -0.946100       -25.7447
  28   1.0000      -0.852139       -23.1879
  29   1.0000      -0.850035       -23.1306
  30   1.0000      -0.811781       -22.0897
  31   1.0000      -0.801421       -21.8078
  32   1.0000      -0.787311       -21.4238
  33   1.0000      -0.783857       -21.3298
  34   1.0000      -0.702016       -19.1028
  35   1.0000      -0.689574       -18.7643
  36   1.0000      -0.686241       -18.6736
  37   1.0000      -0.685956       -18.6658
  38   1.0000      -0.649291       -17.6681
  39   1.0000      -0.615593       -16.7511
  40   1.0000      -0.610206       -16.6046
  41   1.0000      -0.596757       -16.2386
  42   1.0000      -0.587703       -15.9922
  43   1.0000      -0.586186       -15.9509
  44   1.0000      -0.567503       -15.4426
  45   1.0000      -0.562241       -15.2994
  46   1.0000      -0.558745       -15.2042
  47   1.0000      -0.546920       -14.8825
  48   1.0000      -0.541605       -14.7378
  49   1.0000      -0.534908       -14.5556
  50   1.0000      -0.525982       -14.3127
  51   1.0000      -0.512113       -13.9353
  52   1.0000      -0.510241       -13.8844
  53   1.0000      -0.508933       -13.8488
  54   1.0000      -0.498155       -13.5555
  55   1.0000      -0.493945       -13.4409
  56   1.0000      -0.483437       -13.1550
  57   1.0000      -0.448396       -12.2015
  58   1.0000      -0.419831       -11.4242
  59   1.0000      -0.418472       -11.3872
  60   1.0000      -0.397207       -10.8086
  61   1.0000      -0.382236       -10.4012
  62   1.0000      -0.379712       -10.3325
  63   1.0000      -0.375560       -10.2195
  64   1.0000      -0.330775        -9.0008
  65   0.0000      -0.109611        -2.9827
  66   0.0000       0.005172         0.1407
  67   0.0000       0.011546         0.3142
  68   0.0000       0.025376         0.6905
  69   0.0000       0.032300         0.8789

----------------------------------------------------------------------------------------------------
          SPIN FLIP ABSORPTION SPECTRUM VIA TRANSITION ELECTRIC DIPOLE MOMENTS
----------------------------------------------------------------------------------------------------
     Transition      Energy     Energy  Wavelength fosc(D2)      D2        DX        DY        DZ
                      (eV)      (cm-1)    (nm)                 (au**2)    (au)      (au)      (au)
----------------------------------------------------------------------------------------------------
  1-3A  ->  2-3A    3.826361   30861.7   324.0   0.001209386   0.01290   0.04382   0.07355  -0.07464

Dispersion correction             ... done (  0.1 sec)

MULLIKEN ATOMIC CHARGES AND SPIN DENSITIES
------------------------------------------
   0 O :   -0.719362    0.033977
   1 O :   -0.682281    0.000194
   2 O :   -0.616813    0.009809
   3 O :   -0.654055   -0.000147
   4 N :    0.068537    0.054074
   5 N :   -0.062731   -0.000558
   6 N :    0.004992   -0.002224
   7 N :   -0.029024   -0.001580
   8 C :    1.019344    0.570472
   9 C :    0.543713   -0.002656
  10 C :   -0.290338   -0.375691
  11 C :    0.183516    0.008142
  12 C :   -1.230325   -0.034845
  13 C :   -1.454012   -0.000570
  14 C :    0.321852   -0.334065
  15 C :    0.544928   -0.002613
  16 C :    0.462133    0.024019
  17 C :    0.450762    0.000172
  18 H :    0.106501    0.025254
  19 H :    0.120361   -0.001268
  20 H :    0.318762    0.011374
  21 H :    0.281628    0.004416
  22 H :    0.254373    0.007411
  23 H :    0.271573    0.000067
  24 H :    0.297877   -0.000322
  25 H :    0.360071   -0.000363
  26 H :   -0.038574    0.003432
  27 H :    0.017957   -0.000028
  28 H :    0.059737    0.004127
  29 H :    0.088897   -0.000010
Sum of atomic charges       :    0.0000000

LOEWDIN ATOMIC CHARGES AND SPIN DENSITIES
-----------------------------------------
   0 O :    0.062558    0.029357
   1 O :    0.044342   -0.000026
   2 O :    0.105613    0.008045
   3 O :    0.064676    0.000034
   4 N :    0.298975    0.018836
   5 N :    0.262355    0.000065
   6 N :    0.323459   -0.002637
   7 N :    0.324218   -0.000052
   8 C :   -0.178720   -0.031361
   9 C :   -0.115888   -0.000162
  10 C :    0.089999   -0.027307
  11 C :    0.037331   -0.000276
  12 C :    0.145727   -0.004033
  13 C :    0.175319   -0.000006
  14 C :   -0.420904    0.008106
  15 C :   -0.339865    0.000029
  16 C :   -0.475514    0.000524
  17 C :   -0.443840   -0.000049
  18 H :    0.089901   -0.001133
  19 H :    0.041510    0.000012
  20 H :    0.039342    0.000301
  21 H :    0.002827   -0.000354
  22 H :   -0.016858   -0.000420
  23 H :   -0.040483    0.000013
  24 H :    0.004862   -0.000018
  25 H :   -0.001367    0.000002
  26 H :   -0.081036    0.002443
  27 H :   -0.021094    0.000012
  28 H :    0.014473    0.000054
  29 H :    0.008083    0.000002

  Mayer bond orders larger than 0.100000
B(  0-O , 14-C ) :   1.3093 B(  1-O , 15-C ) :   1.4076 B(  2-O , 16-C ) :   1.5971
B(  3-O , 17-C ) :   1.6048 B(  4-N , 10-C ) :   0.9341 B(  4-N , 16-C ) :   0.9991
B(  4-N , 26-H ) :   1.1656 B(  5-N , 11-C ) :   1.0121 B(  5-N , 17-C ) :   1.0140
B(  5-N , 27-H ) :   1.1531 B(  6-N , 14-C ) :   0.9994 B(  6-N , 16-C ) :   1.0034
B(  6-N , 28-H ) :   1.0868 B(  7-N , 15-C ) :   0.9488 B(  7-N , 17-C ) :   0.9939
B(  7-N , 29-H ) :   1.0716 B(  8-C , 10-C ) :   1.0117 B(  8-C , 12-C ) :   0.4102
B(  8-C , 14-C ) :   0.7538 B(  8-C , 18-H ) :  -0.1430 B(  8-C , 20-H ) :  -0.1016
B(  9-C , 11-C ) :   1.1826 B(  9-C , 13-C ) :   0.3952 B(  9-C , 15-C ) :   0.8018
B(  9-C , 23-H ) :  -0.1194 B(  9-C , 25-H ) :  -0.1072 B( 10-C , 18-H ) :   1.1839
B( 11-C , 19-H ) :   1.0956 B( 12-C , 20-H ) :   0.9388 B( 12-C , 21-H ) :   0.9903
B( 12-C , 22-H ) :   0.9792 B( 13-C , 23-H ) :   1.0502 B( 13-C , 24-H ) :   0.9081
B( 13-C , 25-H ) :   0.9244

Dispersion correction           -0.049818865
FINAL SINGLE POINT ENERGY      -908.863856153854

DIPOLE MOMENT
-------------

Method             : TDA/CIS
Type of density    : Electron Density
Level              : Relaxed density
State              :   1
Multiplicity       :   3
Irrep              :   0
Energy             :     0.0000000000000000 Eh
Relativity type    :
Basis              : AO
                                X                 Y                 Z
Electronic contribution:     -4.373983051      -9.531942797      -5.533118184
Nuclear contribution   :      4.420463732      10.005531574       8.473238043
                        -----------------------------------------
Total Dipole Moment    :      0.046480681       0.473588777       2.940119860
                        -----------------------------------------
Magnitude (a.u.)       :      2.978380696
Magnitude (Debye)      :      7.570442097

Rotational constants in cm-1:             0.016528             0.011444             0.010259
Rotational constants in MHz :           495.493654           343.085420           307.567576

                             ****ORCA TERMINATED NORMALLY****
TOTAL RUN TIME: 0 days 0 hours 5 minutes 29 seconds 531 msec
