                         Program Version 6.0.0  -   RELEASE  -
|  1> ! opt def2-TZVPPD wB97M-D3BJ
|  2> %pal nprocs 24 end%geom Constraints
|  3> {B 9 8 3.0 C}
|  4> {A 8 9 11 98.0 C}
|  5>  end
|  6>  end
|  7> *xyz 0 1
|  8> O   2.98579685529314 0.88758230159078 -0.86184571092411
|  9> O   -0.03983205397054 0.68929041702508 -2.10362336723772
| 10> O   0.93431434349854 -3.13274393337945 -0.68767288184107
| 11> O   -3.75829998830163 -0.84727300865116 -0.0472717177755
| 12> N   0.21184538946282 -1.54604804365365 0.7617588924445
| 13> N   -2.13631993928911 0.03188773433438 1.27350571071531
| 14> N   2.02598672506387 -1.14318467211666 -0.64531219127023
| 15> N   -1.91814233924584 0.03137116037665 -1.04498946748291
| 16> C   1.18097737274226 0.71693507080484 0.70173889017321
| 17> C   -0.20686880480777 1.27024627933494 0.21345042231937
| 18> C   0.41441080275909 -0.34173258966541 1.52336266615173
| 19> C   -0.82922175114212 0.58960593673968 1.44434972027296
| 20> C   1.92822011286806 1.69488653817281 1.5963734975385
| 21> C   -0.37809776891576 2.77134929626422 0.04819649358288
| 22> C   2.1403947470937 0.1972384729179 -0.35038567829864
| 23> C   -0.67361678962426 0.6214190571346 -1.0793014500539
| 24> C   1.04142578622994 -2.02697492875068 -0.21027082435993
| 25> C   -2.68467002550422 -0.30396816036989 0.07167054343891
| 26> H   0.80817443950001 -0.54572267081061 2.51895215321335
| 27> H   -0.83785272399001 1.27240685039143 2.28901317073582
| 28> H   2.31167340578204 2.52284411740894 1.00913016264629
| 29> H   1.28982602448342 2.08257620823614 2.38710022492991
| 30> H   2.77390820759972 1.19140411795486 2.06045858523949
| 31> H   -1.41857211141493 3.00964947214868 -0.16882755561625
| 32> H   -0.09065531563179 3.29799318042223 0.95389844358819
| 33> H   0.23426221611057 3.12492645074476 -0.77764887675592
| 34> H   -0.46772570547622 -2.21560145172536 1.0787081584806
| 35> H   -2.71769301149571 -0.17090724573546 2.06627440900372
| 36> H   2.60065167263658 -1.49057255715425 -1.3966820077142
| 37> H   -2.27169977231386 -0.32388339999036 -1.91951041514436
| 38> *
| 39>
| 40>                          ****END OF INPUT****
 Total Charge           Charge          ....    0
 Multiplicity           Mult            ....    1
 Number of Electrons    NEL             ....  132
Dispersion correction           -0.053659644
FINAL SINGLE POINT ENERGY      -908.570238882583
Dispersion correction             ... done (  0.0 sec)
Dispersion correction           -0.054135724
FINAL SINGLE POINT ENERGY      -908.628747650027
Dispersion correction             ... done (  0.1 sec)
Dispersion correction           -0.054654329
FINAL SINGLE POINT ENERGY      -908.681589307942
Dispersion correction             ... done (  0.0 sec)
FINAL SINGLE POINT ENERGY      -908.749995072001
FINAL SINGLE POINT ENERGY      -908.813657754245
FINAL SINGLE POINT ENERGY      -908.852890243813
FINAL SINGLE POINT ENERGY      -908.875887635394
FINAL SINGLE POINT ENERGY      -908.899715159123
FINAL SINGLE POINT ENERGY      -908.912249102773
FINAL SINGLE POINT ENERGY      -908.916805973775
FINAL SINGLE POINT ENERGY      -908.928694179384
FINAL SINGLE POINT ENERGY      -908.928808996943
FINAL SINGLE POINT ENERGY      -908.928893082326
FINAL SINGLE POINT ENERGY      -908.928999087100
FINAL SINGLE POINT ENERGY      -908.929030167418
FINAL SINGLE POINT ENERGY      -908.929054248054
FINAL SINGLE POINT ENERGY      -908.929062591891
Dispersion correction             ... done (  0.0 sec)
Dispersion correction           -0.058942904
FINAL SINGLE POINT ENERGY      -908.929071167427
Dispersion correction             ... done (  0.1 sec)
Dispersion correction           -0.058922225
FINAL SINGLE POINT ENERGY      -908.929075132231
Dispersion correction             ... done (  0.0 sec)
                    ***********************HURRAY********************

CARTESIAN COORDINATES (ANGSTROEM)
---------------------------------
  O      2.932459    1.248425   -0.488758
  O     -0.528345    0.426434   -1.878078
  O      1.406919   -2.836567   -1.773502
  O     -3.133523   -1.371866    1.366755
  N      0.739999   -1.998593    0.235767
  N     -2.329595    0.741133    1.657401
  N      2.199143   -0.807647   -1.086336
  N     -1.929865   -0.387224   -0.302760
  C      1.438228    0.149580    0.991125
  C     -0.904822    1.767397    0.046251
  C      0.760684   -0.991780    1.169405
  C     -1.580786    1.805971    1.198119
  C      1.559408    1.209898    2.038010
  C     -0.097269    2.908182   -0.484433
  C      2.245743    0.282750   -0.226009
  C     -1.069274    0.589438   -0.806361
  C      1.442912   -1.951173   -0.952233
  C     -2.517880   -0.418542    0.941254
  H      0.177888   -1.181096    2.058929
  H     -1.544547    2.658981    1.858225
  H      1.366511    2.195221    1.623896
  H      0.863507    1.025196    2.853617
  H      2.570808    1.229942    2.441207
  H     -0.495208    3.237268   -1.442554
  H     -0.116437    3.746246    0.208863
  H      0.936756    2.616821   -0.652687
  H      0.193931   -2.828029    0.383993
  H     -2.787301    0.776120    2.550021
  H      2.694671   -0.712027   -1.958419
  H     -2.042114   -1.215460   -0.866108

 Multiplicity           Mult            ....    1
 Number of Electrons    NEL             ....  132
 Basis Dimension        Dim             ....  882

ORBITAL ENERGIES
----------------

  NO   OCC          E(Eh)            E(eV)
   0   2.0000     -19.329445      -525.9809
   1   2.0000     -19.326865      -525.9107
   2   2.0000     -19.317923      -525.6674
   3   2.0000     -19.316171      -525.6197
   4   2.0000     -14.586557      -396.9204
   5   2.0000     -14.576454      -396.6455
   6   2.0000     -14.572658      -396.5422
   7   2.0000     -14.560545      -396.2126
   8   2.0000     -10.516119      -286.1582
   9   2.0000     -10.503747      -285.8215
  10   2.0000     -10.481393      -285.2132
  11   2.0000     -10.473834      -285.0075
  12   2.0000     -10.431121      -283.8452
  13   2.0000     -10.428846      -283.7833
  14   2.0000     -10.380876      -282.4780
  15   2.0000     -10.377736      -282.3926
  16   2.0000     -10.359073      -281.8847
  17   2.0000     -10.351619      -281.6819
  18   2.0000      -1.229103       -33.4456
  19   2.0000      -1.217108       -33.1192
  20   2.0000      -1.197179       -32.5769
  21   2.0000      -1.187051       -32.3013
  22   2.0000      -1.124804       -30.6075
  23   2.0000      -1.115607       -30.3572
  24   2.0000      -1.072648       -29.1882
  25   2.0000      -1.061913       -28.8961
  26   2.0000      -0.961784       -26.1715
  27   2.0000      -0.951492       -25.8914
  28   2.0000      -0.848625       -23.0923
  29   2.0000      -0.846604       -23.0373
  30   2.0000      -0.812723       -22.1153
  31   2.0000      -0.806529       -21.9468
  32   2.0000      -0.796648       -21.6779
  33   2.0000      -0.787119       -21.4186
  34   2.0000      -0.696905       -18.9637
  35   2.0000      -0.695037       -18.9129
  36   2.0000      -0.691154       -18.8073
  37   2.0000      -0.686506       -18.6808
  38   2.0000      -0.643656       -17.5148
  39   2.0000      -0.637249       -17.3404
  40   2.0000      -0.631627       -17.1874
  41   2.0000      -0.602918       -16.4062
  42   2.0000      -0.598933       -16.2978
  43   2.0000      -0.591110       -16.0849
  44   2.0000      -0.569165       -15.4878
  45   2.0000      -0.564024       -15.3479
  46   2.0000      -0.558061       -15.1856
  47   2.0000      -0.553000       -15.0479
  48   2.0000      -0.548492       -14.9252
  49   2.0000      -0.537078       -14.6146
  50   2.0000      -0.521573       -14.1927
  51   2.0000      -0.518216       -14.1014
  52   2.0000      -0.516782       -14.0624
  53   2.0000      -0.513157       -13.9637
  54   2.0000      -0.504038       -13.7156
  55   2.0000      -0.498552       -13.5663
  56   2.0000      -0.478866       -13.0306
  57   2.0000      -0.471497       -12.8301
  58   2.0000      -0.421870       -11.4797
  59   2.0000      -0.409668       -11.1476
  60   2.0000      -0.406434       -11.0596
  61   2.0000      -0.391673       -10.6580
  62   2.0000      -0.390054       -10.6139
  63   2.0000      -0.381842       -10.3905
  64   2.0000      -0.355775        -9.6811
  65   2.0000      -0.334880        -9.1125
  66   0.0000       0.010701         0.2912
  67   0.0000       0.017438         0.4745
  68   0.0000       0.023268         0.6332
  69   0.0000       0.031082         0.8458
  70   0.0000       0.039837         1.0840

MULLIKEN ATOMIC CHARGES
-----------------------
   0 O :   -0.682059
   1 O :   -0.659634
   2 O :   -0.656349
   3 O :   -0.666888
   4 N :   -0.051963
   5 N :   -0.013939
   6 N :    0.005480
   7 N :   -0.020270
   8 C :    0.808778
   9 C :    0.424927
  10 C :   -0.087982
  11 C :    0.205009
  12 C :   -1.553312
  13 C :   -1.451691
  14 C :    0.439594
  15 C :    0.560151
  16 C :    0.505656
  17 C :    0.480349
  18 H :    0.249624
  19 H :    0.189122
  20 H :    0.225925
  21 H :    0.310706
  22 H :    0.414513
  23 H :    0.378513
  24 H :    0.325018
  25 H :    0.205437
  26 H :    0.024009
  27 H :    0.019808
  28 H :    0.027787
  29 H :    0.043681
Sum of atomic charges:   -0.0000000

LOEWDIN ATOMIC CHARGES
----------------------
   0 O :    0.085136
   1 O :    0.106870
   2 O :    0.090561
   3 O :    0.076364
   4 N :    0.284982
   5 N :    0.282632
   6 N :    0.343852
   7 N :    0.334459
   8 C :   -0.141812
   9 C :   -0.151903
  10 C :    0.043866
  11 C :    0.047891
  12 C :    0.178316
  13 C :    0.184860
  14 C :   -0.396371
  15 C :   -0.398733
  16 C :   -0.474026
  17 C :   -0.490663
  18 H :    0.040458
  19 H :    0.038875
  20 H :   -0.019412
  21 H :   -0.005026
  22 H :    0.005688
  23 H :    0.005870
  24 H :   -0.001757
  25 H :   -0.023518
  26 H :   -0.017575
  27 H :   -0.021242
  28 H :   -0.002620
  29 H :   -0.006024

  Mayer bond orders larger than 0.100000
B(  0-O , 14-C ) :   1.4197 B(  1-O , 15-C ) :   1.4187 B(  2-O , 16-C ) :   1.5582
B(  3-O , 17-C ) :   1.5526 B(  4-N , 10-C ) :   0.9320 B(  4-N , 16-C ) :   1.0203
B(  4-N , 26-H ) :   1.1545 B(  5-N , 11-C ) :   0.9757 B(  5-N , 17-C ) :   1.0393
B(  5-N , 27-H ) :   1.1428 B(  6-N , 14-C ) :   1.0658 B(  6-N , 16-C ) :   0.9778
B(  6-N , 28-H ) :   1.0973 B(  7-N , 15-C ) :   1.0324 B(  7-N , 17-C ) :   0.9545
B(  7-N , 29-H ) :   1.1000 B(  8-C , 10-C ) :   0.9735 B(  8-C , 12-C ) :   0.3188
B(  8-C , 14-C ) :   0.6412 B(  8-C , 15-C ) :  -0.1087 B(  8-C , 18-H ) :  -0.1255
B(  8-C , 20-H ) :  -0.1110 B(  9-C , 11-C ) :   1.0254 B(  9-C , 13-C ) :   0.4139
B(  9-C , 15-C ) :   0.8038 B(  9-C , 24-H ) :  -0.1104 B(  9-C , 25-H ) :  -0.1011
B( 10-C , 12-C ) :  -0.1722 B( 10-C , 18-H ) :   1.1260 B( 11-C , 13-C ) :  -0.2518
B( 11-C , 19-H ) :   1.0681 B( 12-C , 20-H ) :   1.0618 B( 12-C , 21-H ) :   1.0463
B( 12-C , 22-H ) :   0.8163 B( 13-C , 23-H ) :   0.8673 B( 13-C , 24-H ) :   1.0739
B( 13-C , 25-H ) :   0.9763

Dispersion correction           -0.058905556
FINAL SINGLE POINT ENERGY      -908.929076301761

DIPOLE MOMENT
-------------

Method             : SCF
Type of density    : Electron Density
Multiplicity       :   1
Irrep              :   0
Energy             :  -908.8701707453362815 Eh
Relativity type    :
Basis              : AO
                                X                 Y                 Z
Electronic contribution:     -2.119869154      -9.711369934      -5.450464707
Nuclear contribution   :      1.280980200      10.737594775       7.613615655
                        -----------------------------------------
Total Dipole Moment    :     -0.838888954       1.026224841       2.163150947
                        -----------------------------------------
Magnitude (a.u.)       :      2.536945826
Magnitude (Debye)      :      6.448403826

Rotational constants in cm-1:             0.019782             0.013933             0.011160
Rotational constants in MHz :           593.063802           417.708721           334.579480

                             ****ORCA TERMINATED NORMALLY****
TOTAL RUN TIME: 0 days 3 hours 11 minutes 31 seconds 613 msec
