                         Program Version 6.0.0  -   RELEASE  -
|  1> ! Engrad def2-TZVPPD wB97M-D3BJ
|  2> %pal nprocs 8 end%pal nprocs 64 end
|  3> %tddft Nroots 2 Iroot 2
|  4> sf true
|  5> end
|  6> *xyz 0 3
|  7> O   3.11472325 0.5395226 -0.85919076
|  8> O   -0.44036904 1.34518391 -2.30964785
|  9> O   0.42294714 -3.06785059 -0.54553779
| 10> O   -3.14993303 -1.59248066 -0.25318676
| 11> N   0.28719985 -1.51914701 1.10458269
| 12> N   -2.12923757 -0.02947163 1.04976941
| 13> N   1.59069781 -1.14009827 -0.78927533
| 14> N   -1.50382994 -0.30728055 -1.17186889
| 15> C   1.59080052 0.53291279 0.94221839
| 16> C   -0.62803053 1.56663123 0.04748386
| 17> C   0.3745952 -0.15409148 1.57829901
| 18> C   -0.91819722 0.71835209 1.27831533
| 19> C   2.31061881 1.5863786 1.69555697
| 20> C   -0.59864064 3.04175747 0.11179841
| 21> C   2.17509574 0.01413805 -0.28805058
| 22> C   -0.81912202 0.90546516 -1.24289416
| 23> C   0.72968677 -1.98353711 -0.10613639
| 24> C   -2.32324516 -0.72040123 -0.12237724
| 25> H   0.51467869 -0.19522281 2.65320087
| 26> H   -1.08153557 1.3809506 2.13082416
| 27> H   3.01359434 2.10791046 1.05104727
| 28> H   1.62422703 2.30339774 2.1502275
| 29> H   2.8720771 1.13478759 2.51687712
| 30> H   -1.59392546 3.42447679 0.36019306
| 31> H   0.06407967 3.39297884 0.89818708
| 32> H   -0.29609078 3.44293994 -0.84981011
| 33> H   -0.37103799 -2.13557336 1.54153127
| 34> H   -2.69412531 -0.36281189 1.81965332
| 35> H   1.98082305 -1.50672477 -1.65195653
| 36> H   -1.66096208 -0.78396357 -2.04851061
| 37> *
| 38>
| 39>                          ****END OF INPUT****

CARTESIAN COORDINATES (ANGSTROEM)
---------------------------------
  O      3.114723    0.539523   -0.859191
  O     -0.440369    1.345184   -2.309648
  O      0.422947   -3.067851   -0.545538
  O     -3.149933   -1.592481   -0.253187
  N      0.287200   -1.519147    1.104583
  N     -2.129238   -0.029472    1.049769
  N      1.590698   -1.140098   -0.789275
  N     -1.503830   -0.307281   -1.171869
  C      1.590801    0.532913    0.942218
  C     -0.628031    1.566631    0.047484
  C      0.374595   -0.154091    1.578299
  C     -0.918197    0.718352    1.278315
  C      2.310619    1.586379    1.695557
  C     -0.598641    3.041757    0.111798
  C      2.175096    0.014138   -0.288051
  C     -0.819122    0.905465   -1.242894
  C      0.729687   -1.983537   -0.106136
  C     -2.323245   -0.720401   -0.122377
  H      0.514679   -0.195223    2.653201
  H     -1.081536    1.380951    2.130824
  H      3.013594    2.107910    1.051047
  H      1.624227    2.303398    2.150228
  H      2.872077    1.134788    2.516877
  H     -1.593925    3.424477    0.360193
  H      0.064080    3.392979    0.898187
  H     -0.296091    3.442940   -0.849810
  H     -0.371038   -2.135573    1.541531
  H     -2.694125   -0.362812    1.819653
  H      1.980823   -1.506725   -1.651957
  H     -1.660962   -0.783964   -2.048511

 Total Charge           Charge          ....    0
 Multiplicity           Mult            ....    3
 Number of Electrons    NEL             ....  132
 Basis Dimension        Dim             ....  882

ORBITAL ENERGIES
----------------
                 SPIN UP ORBITALS
  NO   OCC          E(Eh)            E(eV)
   0   1.0000     -19.332911      -526.0753
   1   1.0000     -19.330391      -526.0067
   2   1.0000     -19.319775      -525.7178
   3   1.0000     -19.313707      -525.5527
   4   1.0000     -14.564423      -396.3181
   5   1.0000     -14.559651      -396.1882
   6   1.0000     -14.558969      -396.1697
   7   1.0000     -14.557087      -396.1185
   8   1.0000     -10.504171      -285.8330
   9   1.0000     -10.500671      -285.7378
  10   1.0000     -10.479095      -285.1507
  11   1.0000     -10.477929      -285.1189
  12   1.0000     -10.444736      -284.2157
  13   1.0000     -10.444515      -284.2097
  14   1.0000     -10.418494      -283.5016
  15   1.0000     -10.413526      -283.3664
  16   1.0000     -10.374247      -282.2976
  17   1.0000     -10.372809      -282.2585
  18   1.0000      -1.220245       -33.2046
  19   1.0000      -1.214003       -33.0347
  20   1.0000      -1.196533       -32.5593
  21   1.0000      -1.192573       -32.4516
  22   1.0000      -1.117617       -30.4119
  23   1.0000      -1.094829       -29.7918
  24   1.0000      -1.064230       -28.9592
  25   1.0000      -1.053951       -28.6795
  26   1.0000      -0.982417       -26.7329
  27   1.0000      -0.948523       -25.8106
  28   1.0000      -0.889722       -24.2106
  29   1.0000      -0.836293       -22.7567
  30   1.0000      -0.828893       -22.5553
  31   1.0000      -0.800845       -21.7921
  32   1.0000      -0.784785       -21.3551
  33   1.0000      -0.778109       -21.1734
  34   1.0000      -0.698309       -19.0019
  35   1.0000      -0.694944       -18.9104
  36   1.0000      -0.688531       -18.7359
  37   1.0000      -0.664536       -18.0829
  38   1.0000      -0.653413       -17.7803
  39   1.0000      -0.646435       -17.5904
  40   1.0000      -0.616489       -16.7755
  41   1.0000      -0.602395       -16.3920
  42   1.0000      -0.588007       -16.0005
  43   1.0000      -0.581966       -15.8361
  44   1.0000      -0.580365       -15.7925
  45   1.0000      -0.575829       -15.6691
  46   1.0000      -0.565896       -15.3988
  47   1.0000      -0.559807       -15.2331
  48   1.0000      -0.556471       -15.1423
  49   1.0000      -0.551078       -14.9956
  50   1.0000      -0.547075       -14.8867
  51   1.0000      -0.541558       -14.7365
  52   1.0000      -0.530777       -14.4432
  53   1.0000      -0.524718       -14.2783
  54   1.0000      -0.512430       -13.9439
  55   1.0000      -0.507180       -13.8011
  56   1.0000      -0.488307       -13.2875
  57   1.0000      -0.419314       -11.4101
  58   1.0000      -0.415371       -11.3028
  59   1.0000      -0.408322       -11.1110
  60   1.0000      -0.404774       -11.0145
  61   1.0000      -0.396517       -10.7898
  62   1.0000      -0.391775       -10.6607
  63   1.0000      -0.386921       -10.5287
  64   1.0000      -0.384401       -10.4601
  65   1.0000      -0.357358        -9.7242
  66   1.0000      -0.311657        -8.4806
  67   0.0000       0.005338         0.1453
  68   0.0000       0.028195         0.7672
  69   0.0000       0.030314         0.8249
  70   0.0000       0.038847         1.0571
  71   0.0000       0.056362         1.5337

                 SPIN DOWN ORBITALS
  NO   OCC          E(Eh)            E(eV)
   0   1.0000     -19.328873      -525.9654
   1   1.0000     -19.325858      -525.8833
   2   1.0000     -19.319525      -525.7110
   3   1.0000     -19.313605      -525.5499
   4   1.0000     -14.563814      -396.3015
   5   1.0000     -14.559334      -396.1796
   6   1.0000     -14.558548      -396.1582
   7   1.0000     -14.556880      -396.1128
   8   1.0000     -10.504181      -285.8333
   9   1.0000     -10.500690      -285.7383
  10   1.0000     -10.480039      -285.1764
  11   1.0000     -10.478939      -285.1464
  12   1.0000     -10.444671      -284.2140
  13   1.0000     -10.444131      -284.1992
  14   1.0000     -10.406702      -283.1808
  15   1.0000     -10.401422      -283.0371
  16   1.0000     -10.374820      -282.3132
  17   1.0000     -10.373346      -282.2731
  18   1.0000      -1.218502       -33.1571
  19   1.0000      -1.212236       -32.9866
  20   1.0000      -1.191741       -32.4289
  21   1.0000      -1.187442       -32.3120
  22   1.0000      -1.115035       -30.3416
  23   1.0000      -1.092762       -29.7356
  24   1.0000      -1.062523       -28.9127
  25   1.0000      -1.052525       -28.6407
  26   1.0000      -0.967790       -26.3349
  27   1.0000      -0.931808       -25.3558
  28   1.0000      -0.884715       -24.0743
  29   1.0000      -0.831383       -22.6231
  30   1.0000      -0.819961       -22.3123
  31   1.0000      -0.795340       -21.6423
  32   1.0000      -0.783311       -21.3150
  33   1.0000      -0.776516       -21.1301
  34   1.0000      -0.693003       -18.8576
  35   1.0000      -0.686899       -18.6915
  36   1.0000      -0.681646       -18.5485
  37   1.0000      -0.655887       -17.8476
  38   1.0000      -0.644944       -17.5498
  39   1.0000      -0.642195       -17.4750
  40   1.0000      -0.613616       -16.6973
  41   1.0000      -0.598252       -16.2793
  42   1.0000      -0.581913       -15.8347
  43   1.0000      -0.574971       -15.6458
  44   1.0000      -0.572298       -15.5730
  45   1.0000      -0.565426       -15.3860
  46   1.0000      -0.560745       -15.2586
  47   1.0000      -0.554032       -15.0760
  48   1.0000      -0.552874       -15.0445
  49   1.0000      -0.541400       -14.7322
  50   1.0000      -0.539871       -14.6906
  51   1.0000      -0.534563       -14.5462
  52   1.0000      -0.523830       -14.2541
  53   1.0000      -0.515089       -14.0163
  54   1.0000      -0.504179       -13.7194
  55   1.0000      -0.499612       -13.5951
  56   1.0000      -0.482545       -13.1307
  57   1.0000      -0.415656       -11.3106
  58   1.0000      -0.412054       -11.2126
  59   1.0000      -0.402895       -10.9633
  60   1.0000      -0.391725       -10.6594
  61   1.0000      -0.387072       -10.5328
  62   1.0000      -0.384827       -10.4717
  63   1.0000      -0.382277       -10.4023
  64   1.0000      -0.375206       -10.2099
  65   0.0000      -0.076081        -2.0703
  66   0.0000      -0.023012        -0.6262
  67   0.0000       0.005057         0.1376
  68   0.0000       0.028312         0.7704
  69   0.0000       0.030154         0.8205

----------------------------------------------------------------------------------------------------
          SPIN FLIP ABSORPTION SPECTRUM VIA TRANSITION ELECTRIC DIPOLE MOMENTS
----------------------------------------------------------------------------------------------------
     Transition      Energy     Energy  Wavelength fosc(D2)      D2        DX        DY        DZ
                      (eV)      (cm-1)    (nm)                 (au**2)    (au)      (au)      (au)
----------------------------------------------------------------------------------------------------
  1-3A  ->  2-3A    0.712034    5742.9  1741.3   0.000064073   0.00367  -0.04404   0.03092  -0.02789

Dispersion correction             ... done (  0.1 sec)

MULLIKEN ATOMIC CHARGES AND SPIN DENSITIES
------------------------------------------
   0 O :   -0.694045    0.002232
   1 O :   -0.675128   -0.006473
   2 O :   -0.661501   -0.000254
   3 O :   -0.645495   -0.000399
   4 N :   -0.273750    0.004256
   5 N :   -0.304464   -0.000419
   6 N :    0.056854   -0.004029
   7 N :    0.057550    0.004232
   8 C :    0.713289    0.478549
   9 C :    0.882778    0.358997
  10 C :   -0.235659   -0.262238
  11 C :    0.409523   -0.169059
  12 C :   -1.327808    0.059385
  13 C :   -1.367019    0.010871
  14 C :    0.213646   -0.311095
  15 C :   -0.223254   -0.262713
  16 C :    0.456013    0.018514
  17 C :    0.355312    0.014015
  18 H :    0.620153    0.013796
  19 H :    0.463274    0.000744
  20 H :    0.298450   -0.007326
  21 H :    0.337775    0.014478
  22 H :    0.369592    0.013183
  23 H :    0.349109    0.006848
  24 H :    0.259822    0.019023
  25 H :    0.345334   -0.003570
  26 H :    0.047498    0.001346
  27 H :    0.093962    0.001188
  28 H :    0.036279    0.004590
  29 H :    0.041910    0.001326
Sum of atomic charges       :   -0.0000000

LOEWDIN ATOMIC CHARGES AND SPIN DENSITIES
-----------------------------------------
   0 O :    0.089094    0.003240
   1 O :    0.097196   -0.008133
   2 O :    0.090956    0.000196
   3 O :    0.094383    0.000220
   4 N :    0.281024   -0.000597
   5 N :    0.273988   -0.000764
   6 N :    0.325415   -0.001859
   7 N :    0.325571   -0.001584
   8 C :   -0.016657    0.031418
   9 C :   -0.027690   -0.007112
  10 C :   -0.076980   -0.002038
  11 C :   -0.098840   -0.003081
  12 C :    0.189399    0.002793
  13 C :    0.199054   -0.003447
  14 C :   -0.409231   -0.001238
  15 C :   -0.414331   -0.006884
  16 C :   -0.497771   -0.000235
  17 C :   -0.487818   -0.000165
  18 H :    0.045661   -0.000748
  19 H :    0.054445   -0.000165
  20 H :    0.002179    0.000060
  21 H :   -0.008385    0.000455
  22 H :    0.014042    0.001473
  23 H :    0.018577   -0.000867
  24 H :   -0.013098   -0.000565
  25 H :    0.003474    0.000057
  26 H :   -0.031322   -0.000045
  27 H :   -0.021743   -0.000097
  28 H :    0.002808   -0.000161
  29 H :   -0.003401   -0.000127

  Mayer bond orders larger than 0.100000
B(  0-O , 14-C ) :   1.2617 B(  1-O , 15-C ) :   1.4181 B(  2-O , 16-C ) :   1.5204
B(  3-O , 17-C ) :   1.5419 B(  4-N ,  8-C ) :   0.2496 B(  4-N , 10-C ) :   0.3923
B(  4-N , 16-C ) :   1.0424 B(  4-N , 26-H ) :   1.1069 B(  5-N ,  9-C ) :   0.2688
B(  5-N , 17-C ) :   1.1700 B(  5-N , 27-H ) :   1.0421 B(  6-N , 10-C ) :   0.1109
B(  6-N , 14-C ) :   1.0405 B(  6-N , 16-C ) :   0.9542 B(  6-N , 28-H ) :   1.1019
B(  7-N , 11-C ) :   0.1349 B(  7-N , 15-C ) :   0.9528 B(  7-N , 17-C ) :   0.9723
B(  7-N , 29-H ) :   1.0817 B(  8-C ,  9-C ) :   0.1961 B(  8-C , 10-C ) :   0.3295
B(  8-C , 12-C ) :   0.4654 B(  8-C , 14-C ) :   0.6942 B(  8-C , 20-H ) :  -0.1248
B(  9-C , 10-C ) :   0.1332 B(  9-C , 11-C ) :   0.4318 B(  9-C , 13-C ) :   0.4557
B(  9-C , 15-C ) :   0.4461 B( 10-C , 11-C ) :   0.6360 B( 10-C , 16-C ) :  -0.1157
B( 10-C , 18-H ) :   0.6086 B( 11-C , 13-C ) :  -0.1738 B( 11-C , 17-C ) :  -0.2031
B( 11-C , 19-H ) :   0.9070 B( 12-C , 20-H ) :   1.0615 B( 12-C , 21-H ) :   0.8608
B( 12-C , 22-H ) :   0.8534 B( 13-C , 23-H ) :   0.8504 B( 13-C , 24-H ) :   0.9872
B( 13-C , 25-H ) :   0.9641 B( 14-C , 16-C ) :  -0.1024 B( 15-C , 17-C ) :  -0.1415

Dispersion correction           -0.059987337
FINAL SINGLE POINT ENERGY      -908.794454619576

DIPOLE MOMENT
-------------

Method             : TDA/CIS
Type of density    : Electron Density
Level              : Relaxed density
State              :   2
Multiplicity       :   3
Irrep              :   0
Energy             :     0.0000000000000000 Eh
Relativity type    :
Basis              : AO
                                X                 Y                 Z
Electronic contribution:     -2.456314006     -10.139517109      -7.125500887
Nuclear contribution   :      2.227869891      11.747188079      10.010499176
                        -----------------------------------------
Total Dipole Moment    :     -0.228444116       1.607670970       2.884998289
                        -----------------------------------------
Magnitude (a.u.)       :      3.310590248
Magnitude (Debye)      :      8.414851671

Rotational constants in cm-1:             0.019442             0.015616             0.012747
Rotational constants in MHz :           582.844250           468.153191           382.152174

                             ****ORCA TERMINATED NORMALLY****
TOTAL RUN TIME: 0 days 0 hours 4 minutes 40 seconds 521 msec
