                         Program Version 6.0.0  -   RELEASE  -
|  1> ! EnGrad wB97M-D3BJ def2-TZVPPD
|  2> %pal nprocs 8 end%pal nprocs 16 end
|  3> %tddft
|  4>  sf true
|  5>  nroots 2 Iroot 1 end
|  6> *xyz 0 3
|  7> O   0.51792067856373 1.10286044776172 0.14203450963995
|  8> C   0.59287544735484 -0.22347846697835 0.00874981655398
|  9> C   -0.75251007056978 -0.7533348563272 0.00522846717151
| 10> H   1.18014546521968 -0.7304584952688 0.80412131706202
| 11> H   1.09743557759932 -0.51316473211059 -0.93074764397673
| 12> H   -1.26547811803684 -1.04627059119112 -0.90356103828583
| 13> H   -1.36818898013095 -0.55455330588567 0.87417457183511
| 14> *
| 15>
| 16>                          ****END OF INPUT****

CARTESIAN COORDINATES (ANGSTROEM)
---------------------------------
  O      0.517921    1.102860    0.142035
  C      0.592875   -0.223478    0.008750
  C     -0.752510   -0.753335    0.005228
  H      1.180145   -0.730458    0.804121
  H      1.097436   -0.513165   -0.930748
  H     -1.265478   -1.046271   -0.903561
  H     -1.368189   -0.554553    0.874175

 Total Charge           Charge          ....    0
 Multiplicity           Mult            ....    3
 Number of Electrons    NEL             ....   24
 Basis Dimension        Dim             ....  182

ORBITAL ENERGIES
----------------
                 SPIN UP ORBITALS
  NO   OCC          E(Eh)            E(eV)
   0   1.0000     -19.390880      -527.6527
   1   1.0000     -10.408762      -283.2368
   2   1.0000     -10.357401      -281.8392
   3   1.0000      -1.187108       -32.3028
   4   1.0000      -0.880031       -23.9469
   5   1.0000      -0.733642       -19.9634
   6   1.0000      -0.627933       -17.0869
   7   1.0000      -0.593363       -16.1462
   8   1.0000      -0.559880       -15.2351
   9   1.0000      -0.514056       -13.9882
  10   1.0000      -0.435974       -11.8635
  11   1.0000      -0.416644       -11.3375
  12   1.0000      -0.321504        -8.7486
  13   0.0000       0.041202         1.1212
  14   0.0000       0.062775         1.7082
  15   0.0000       0.075172         2.0455
  16   0.0000       0.087140         2.3712
  17   0.0000       0.115311         3.1378

                 SPIN DOWN ORBITALS
  NO   OCC          E(Eh)            E(eV)
   0   1.0000     -19.366431      -526.9874
   1   1.0000     -10.410131      -283.2741
   2   1.0000     -10.344315      -281.4831
   3   1.0000      -1.133368       -30.8405
   4   1.0000      -0.846408       -23.0319
   5   1.0000      -0.708176       -19.2705
   6   1.0000      -0.594003       -16.1636
   7   1.0000      -0.555686       -15.1210
   8   1.0000      -0.536337       -14.5945
   9   1.0000      -0.480961       -13.0876
  10   1.0000      -0.382811       -10.4168
  11   0.0000      -0.063118        -1.7175
  12   0.0000       0.002720         0.0740
  13   0.0000       0.040106         1.0913
  14   0.0000       0.063210         1.7200
  15   0.0000       0.074918         2.0386

----------------------------------------------------------------------------------------------------
          SPIN FLIP ABSORPTION SPECTRUM VIA TRANSITION ELECTRIC DIPOLE MOMENTS
----------------------------------------------------------------------------------------------------
     Transition      Energy     Energy  Wavelength fosc(D2)      D2        DX        DY        DZ
                      (eV)      (cm-1)    (nm)                 (au**2)    (au)      (au)      (au)
----------------------------------------------------------------------------------------------------
  1-3A  ->  2-3A    0.633517    5109.7  1957.1   0.000091478   0.00589  -0.01532   0.00677   0.07492

Dispersion correction             ... done (  0.0 sec)

MULLIKEN ATOMIC CHARGES AND SPIN DENSITIES
------------------------------------------
   0 O :   -0.497152   -0.452052
   1 C :   -0.076542   -0.043774
   2 C :   -0.363298    0.370774
   3 H :    0.219407    0.077128
   4 H :    0.218764   -0.030422
   5 H :    0.220360    0.036345
   6 H :    0.278460    0.042000
Sum of atomic charges       :    0.0000000

LOEWDIN ATOMIC CHARGES AND SPIN DENSITIES
-----------------------------------------
   0 O :   -0.031390   -0.454245
   1 C :   -0.389413    0.016264
   2 C :    0.384891    0.363824
   3 H :    0.039777    0.029595
   4 H :    0.022113   -0.038859
   5 H :   -0.010963    0.041500
   6 H :   -0.015014    0.041921

  Mayer bond orders larger than 0.100000
B(  0-O ,  1-C ) :   0.9125 B(  0-O ,  2-C ) :   0.5612 B(  1-C ,  2-C ) :   0.7788
B(  1-C ,  3-H ) :   0.9934 B(  1-C ,  4-H ) :   1.0226 B(  2-C ,  5-H ) :   0.9511
B(  2-C ,  6-H ) :   0.9411

Dispersion correction           -0.005608922
FINAL SINGLE POINT ENERGY      -153.768722648946

DIPOLE MOMENT
-------------

Method             : TDA/CIS
Type of density    : Electron Density
Level              : Relaxed density
State              :   1
Multiplicity       :   3
Irrep              :   0
Energy             :     0.0000000000000000 Eh
Relativity type    :
Basis              : AO
                                X                 Y                 Z
Electronic contribution:      0.242904847       1.491095565       0.225815815
Nuclear contribution   :     -0.840390322      -2.912693077      -0.339516988
                        -----------------------------------------
Total Dipole Moment    :     -0.597485475      -1.421597512      -0.113701173
                        -----------------------------------------
Magnitude (a.u.)       :      1.546239417
Magnitude (Debye)      :      3.930228258

Rotational constants in cm-1:             1.325574             0.391106             0.338367
Rotational constants in MHz :         39739.712214         11725.054096         10143.990782

                             ****ORCA TERMINATED NORMALLY****
TOTAL RUN TIME: 0 days 0 hours 0 minutes 19 seconds 628 msec
