                         Program Version 6.0.0  -   RELEASE  -
|  1> ! EnGrad wB97M-D3BJ def2-TZVPPD
|  2> %pal nprocs 8 end%pal nprocs 16 end
|  3> %tddft
|  4>  sf true
|  5>  nroots 2 Iroot 2 end
|  6> *xyz 0 3
|  7> O   0.05421280492301 0.81693982830338 -7.67982569e-05
|  8> C   0.70325031691878 -0.40797224666788 0.00025164691362
|  9> C   -0.72771609645645 -0.49228771296121 -0.00031591732614
| 10> H   1.24705166464227 -0.65381802490738 0.90834214156568
| 11> H   1.24650703020534 -0.65472425815085 -0.90801274609584
| 12> H   -1.26093805554204 -0.66302702444349 -0.92256220889381
| 13> H   -1.26016766469091 -0.66351056117256 0.92237388209338
| 14> *
| 15>
| 16>                          ****END OF INPUT****

CARTESIAN COORDINATES (ANGSTROEM)
---------------------------------
  O      0.054213    0.816940   -0.000077
  C      0.703250   -0.407972    0.000252
  C     -0.727716   -0.492288   -0.000316
  H      1.247052   -0.653818    0.908342
  H      1.246507   -0.654724   -0.908013
  H     -1.260938   -0.663027   -0.922562
  H     -1.260168   -0.663511    0.922374

 Total Charge           Charge          ....    0
 Multiplicity           Mult            ....    3
 Number of Electrons    NEL             ....   24
 Basis Dimension        Dim             ....  182

ORBITAL ENERGIES
----------------
                 SPIN UP ORBITALS
  NO   OCC          E(Eh)            E(eV)
   0   1.0000     -19.476230      -529.9752
   1   1.0000     -10.426939      -283.7314
   2   1.0000     -10.374336      -282.3000
   3   1.0000      -1.301430       -35.4137
   4   1.0000      -0.867013       -23.5926
   5   1.0000      -0.784882       -21.3577
   6   1.0000      -0.692566       -18.8457
   7   1.0000      -0.655125       -17.8269
   8   1.0000      -0.577403       -15.7119
   9   1.0000      -0.511552       -13.9200
  10   1.0000      -0.502860       -13.6835
  11   1.0000      -0.476302       -12.9608
  12   1.0000      -0.141462        -3.8494
  13   0.0000       0.035915         0.9773
  14   0.0000       0.060104         1.6355
  15   0.0000       0.069946         1.9033
  16   0.0000       0.087110         2.3704
  17   0.0000       0.108399         2.9497

                 SPIN DOWN ORBITALS
  NO   OCC          E(Eh)            E(eV)
   0   1.0000     -19.443566      -529.0863
   1   1.0000     -10.427005      -283.7332
   2   1.0000     -10.366672      -282.0915
   3   1.0000      -1.235122       -33.6094
   4   1.0000      -0.833764       -22.6879
   5   1.0000      -0.766711       -20.8633
   6   1.0000      -0.636243       -17.3131
   7   1.0000      -0.623522       -16.9669
   8   1.0000      -0.538986       -14.6666
   9   1.0000      -0.488342       -13.2885
  10   1.0000      -0.447626       -12.1805
  11   0.0000      -0.122107        -3.3227
  12   0.0000       0.032924         0.8959
  13   0.0000       0.056563         1.5391
  14   0.0000       0.064273         1.7490
  15   0.0000       0.065718         1.7883

----------------------------------------------------------------------------------------------------
          SPIN FLIP ABSORPTION SPECTRUM VIA TRANSITION ELECTRIC DIPOLE MOMENTS
----------------------------------------------------------------------------------------------------
     Transition      Energy     Energy  Wavelength fosc(D2)      D2        DX        DY        DZ
                      (eV)      (cm-1)    (nm)                 (au**2)    (au)      (au)      (au)
----------------------------------------------------------------------------------------------------
  1-3A  ->  2-3A    6.537522   52728.7   189.7   0.005048457   0.03152   0.00022   0.00013  -0.17754

Dispersion correction             ... done (  0.0 sec)

MULLIKEN ATOMIC CHARGES AND SPIN DENSITIES
------------------------------------------
   0 O :   -0.220078    0.600898
   1 C :   -0.284521   -0.194870
   2 C :    0.039420   -0.194208
   3 H :    0.246354    0.070866
   4 H :    0.246003    0.070418
   5 H :   -0.013875   -0.176449
   6 H :   -0.013303   -0.176655
Sum of atomic charges       :   -0.0000000

LOEWDIN ATOMIC CHARGES AND SPIN DENSITIES
-----------------------------------------
   0 O :    0.148809    0.413917
   1 C :   -0.067459   -0.033419
   2 C :    0.021357   -0.192446
   3 H :    0.008531   -0.012712
   4 H :    0.008559   -0.012670
   5 H :   -0.059915   -0.081361
   6 H :   -0.059882   -0.081310

  Mayer bond orders larger than 0.100000
B(  0-O ,  1-C ) :   1.0925 B(  0-O ,  2-C ) :   0.8370 B(  1-C ,  2-C ) :   0.8413
B(  1-C ,  3-H ) :   0.9943 B(  1-C ,  4-H ) :   0.9948 B(  2-C ,  3-H ) :  -0.1087
B(  2-C ,  4-H ) :  -0.1080 B(  2-C ,  5-H ) :   1.2300 B(  2-C ,  6-H ) :   1.2298

Dispersion correction           -0.005235407
FINAL SINGLE POINT ENERGY      -153.629887513559

DIPOLE MOMENT
-------------

Method             : TDA/CIS
Type of density    : Electron Density
Level              : Relaxed density
State              :   2
Multiplicity       :   3
Irrep              :   0
Energy             :     0.0000000000000000 Eh
Relativity type    :
Basis              : AO
                                X                 Y                 Z
Electronic contribution:      0.516117649       1.721276151      -0.000199113
Nuclear contribution   :     -0.071713605      -2.425967796       0.000290150
                        -----------------------------------------
Total Dipole Moment    :      0.444404044      -0.704691645       0.000091037
                        -----------------------------------------
Magnitude (a.u.)       :      0.833117805
Magnitude (Debye)      :      2.117617171

Rotational constants in cm-1:             0.858405             0.728811             0.468110
Rotational constants in MHz :         25734.337686         21849.198292         14033.593863

                             ****ORCA TERMINATED NORMALLY****
TOTAL RUN TIME: 0 days 0 hours 0 minutes 20 seconds 296 msec
