                         Program Version 6.0.0  -   RELEASE  -
|  1> ! Engrad def2-TZVPPD wB97M-D3BJ
|  2> %pal nprocs 8 end%pal nprocs 64 end
|  3> %tddft
|  4>  Iroot 1 Nroots 3
|  5> sf true
|  6> end
|  7> *xyz 0 3
|  8> O   0.39285631 1.06583267 0.60540801
|  9> C   0.41327946 -0.28907572 0.5164617
| 10> C   0.41655589 -0.63470852 -1.00200959
| 11> H   -0.47255534 -0.703201 1.06945826
| 12> H   1.21825002 -0.82756804 1.22492378
| 13> H   -0.14702376 -1.47937663 -1.32408124
| 14> H   1.02767343 -0.03959976 -1.63270019
| 15> *
| 16>
| 17>                          ****END OF INPUT****

CARTESIAN COORDINATES (ANGSTROEM)
---------------------------------
  O      0.392856    1.065833    0.605408
  C      0.413279   -0.289076    0.516462
  C      0.416556   -0.634709   -1.002010
  H     -0.472555   -0.703201    1.069458
  H      1.218250   -0.827568    1.224924
  H     -0.147024   -1.479377   -1.324081
  H      1.027673   -0.039600   -1.632700

 Total Charge           Charge          ....    0
 Multiplicity           Mult            ....    3
 Number of Electrons    NEL             ....   24
 Basis Dimension        Dim             ....  182

ORBITAL ENERGIES
----------------
                 SPIN UP ORBITALS
  NO   OCC          E(Eh)            E(eV)
   0   1.0000     -19.386093      -527.5224
   1   1.0000     -10.428311      -283.7688
   2   1.0000     -10.365927      -282.0712
   3   1.0000      -1.169532       -31.8246
   4   1.0000      -0.855632       -23.2829
   5   1.0000      -0.739294       -20.1172
   6   1.0000      -0.600582       -16.3427
   7   1.0000      -0.588021       -16.0009
   8   1.0000      -0.541368       -14.7314
   9   1.0000      -0.528468       -14.3803
  10   1.0000      -0.430668       -11.7191
  11   1.0000      -0.408094       -11.1048
  12   1.0000      -0.321175        -8.7396
  13   0.0000       0.040056         1.0900
  14   0.0000       0.059737         1.6255
  15   0.0000       0.080026         2.1776
  16   0.0000       0.084066         2.2875
  17   0.0000       0.112696         3.0666

                 SPIN DOWN ORBITALS
  NO   OCC          E(Eh)            E(eV)
   0   1.0000     -19.363336      -526.9032
   1   1.0000     -10.430103      -283.8175
   2   1.0000     -10.352737      -281.7123
   3   1.0000      -1.118741       -30.4425
   4   1.0000      -0.822741       -22.3879
   5   1.0000      -0.713467       -19.4144
   6   1.0000      -0.576449       -15.6860
   7   1.0000      -0.539294       -14.6749
   8   1.0000      -0.521433       -14.1889
   9   1.0000      -0.499891       -13.6027
  10   1.0000      -0.377765       -10.2795
  11   0.0000      -0.058297        -1.5863
  12   0.0000       0.003511         0.0955
  13   0.0000       0.038964         1.0603
  14   0.0000       0.059607         1.6220
  15   0.0000       0.079443         2.1618

----------------------------------------------------------------------------------------------------
          SPIN FLIP ABSORPTION SPECTRUM VIA TRANSITION ELECTRIC DIPOLE MOMENTS
----------------------------------------------------------------------------------------------------
     Transition      Energy     Energy  Wavelength fosc(D2)      D2        DX        DY        DZ
                      (eV)      (cm-1)    (nm)                 (au**2)    (au)      (au)      (au)
----------------------------------------------------------------------------------------------------
  1-3A  ->  2-3A    0.286990    2314.7  4320.2   0.000164891   0.02345  -0.00438  -0.00788   0.15287
  1-3A  ->  3-3A    0.880837    7104.4  1407.6   0.013923010   0.64518  -0.04691  -0.69272  -0.40388

Dispersion correction             ... done (  0.2 sec)

MULLIKEN ATOMIC CHARGES AND SPIN DENSITIES
------------------------------------------
   0 O :   -0.461670   -0.615343
   1 C :    0.001836   -0.019236
   2 C :   -0.484320    0.495961
   3 H :    0.195831   -0.038103
   4 H :    0.228577    0.098958
   5 H :    0.244384    0.029791
   6 H :    0.275362    0.047972
Sum of atomic charges       :    0.0000000

LOEWDIN ATOMIC CHARGES AND SPIN DENSITIES
-----------------------------------------
   0 O :   -0.072073   -0.604938
   1 C :   -0.302121    0.021174
   2 C :    0.379627    0.452951
   3 H :    0.025076   -0.039611
   4 H :    0.080633    0.056634
   5 H :   -0.054957    0.053879
   6 H :   -0.056184    0.059913

  Mayer bond orders larger than 0.100000
B(  0-O ,  1-C ) :   0.9837 B(  0-O ,  2-C ) :   0.3999 B(  1-C ,  2-C ) :   0.8607
B(  1-C ,  3-H ) :   0.9589 B(  1-C ,  4-H ) :   0.9078 B(  2-C ,  5-H ) :   0.9408
B(  2-C ,  6-H ) :   0.9233

Dispersion correction           -0.005429324
FINAL SINGLE POINT ENERGY      -153.749814345340

DIPOLE MOMENT
-------------

Method             : TDA/CIS
Type of density    : Electron Density
Level              : Relaxed density
State              :   1
Multiplicity       :   3
Irrep              :   0
Energy             :     0.0000000000000000 Eh
Relativity type    :
Basis              : AO
                                X                 Y                 Z
Electronic contribution:     -0.016391852       1.809407727       0.367364002
Nuclear contribution   :      0.001466446      -3.091956619      -0.884992986
                        -----------------------------------------
Total Dipole Moment    :     -0.014925407      -1.282548891      -0.517628984
                        -----------------------------------------
Magnitude (a.u.)       :      1.383146482
Magnitude (Debye)      :      3.515678962

Rotational constants in cm-1:             1.244939             0.366851             0.304948
Rotational constants in MHz :         37322.340602         10997.906454          9142.113981

                             ****ORCA TERMINATED NORMALLY****
TOTAL RUN TIME: 0 days 0 hours 0 minutes 27 seconds 136 msec
