                         Program Version 6.0.0  -   RELEASE  -
|  1> ! Engrad def2-TZVPPD wB97M-D3BJ
|  2> %pal nprocs 8 end%pal nprocs 64 end
|  3> %tddft
|  4>  Iroot 2 Nroots 3
|  5> sf true
|  6> end
|  7> *xyz 0 3
|  8> O   2.74309794 -0.94691369 -2.2507885
|  9> O   -2.3108056 1.52690719 -1.35715517
| 10> O   -1.34557372 -2.62692346 -1.13319049
| 11> O   -2.26196763 0.98364593 3.08614454
| 12> N   -0.07128819 -1.68593586 0.48231625
| 13> N   -0.29158731 0.89547926 2.11047695
| 14> N   0.49899726 -1.52331032 -1.73015922
| 15> N   -2.20599997 1.16861325 0.89256354
| 16> C   2.10716287 -0.78786796 -0.09004572
| 17> C   -0.1601159 1.28505745 -0.32030045
| 18> C   0.98941901 -0.71703353 0.82891968
| 19> C   0.51374591 0.74029097 0.89701741
| 20> C   3.40826796 -0.22298936 0.30883922
| 21> C   0.45637512 1.82443561 -1.53244309
| 22> C   1.77811515 -1.06629511 -1.4696582
| 23> C   -1.65427009 1.3594723 -0.39937487
| 24> C   -0.40580759 -2.03625003 -0.82192167
| 25> C   -1.60539456 1.03118769 2.10639376
| 26> H   1.33320806 -1.07726689 1.82700366
| 27> H   1.46715818 1.24722805 1.07229154
| 28> H   3.58395301 -0.11790365 1.39506261
| 29> H   4.17575811 -0.85014654 -0.00767752
| 30> H   3.55647237 0.78258303 -0.17975413
| 31> H   -0.30308297 2.52278385 -2.05823275
| 32> H   1.22980342 2.50567034 -1.13663239
| 33> H   0.84751345 1.21199119 -2.33053326
| 34> H   -0.59023497 -2.2446826 1.17199794
| 35> H   0.16755771 0.58195804 2.97944179
| 36> H   0.36520369 -1.64570341 -2.69005899
| 37> H   -3.2144213 1.31462153 0.98039643
| 38> *
| 39>
| 40>                          ****END OF INPUT****

CARTESIAN COORDINATES (ANGSTROEM)
---------------------------------
  O      2.743098   -0.946914   -2.250788
  O     -2.310806    1.526907   -1.357155
  O     -1.345574   -2.626923   -1.133190
  O     -2.261968    0.983646    3.086145
  N     -0.071288   -1.685936    0.482316
  N     -0.291587    0.895479    2.110477
  N      0.498997   -1.523310   -1.730159
  N     -2.206000    1.168613    0.892564
  C      2.107163   -0.787868   -0.090046
  C     -0.160116    1.285057   -0.320300
  C      0.989419   -0.717034    0.828920
  C      0.513746    0.740291    0.897017
  C      3.408268   -0.222989    0.308839
  C      0.456375    1.824436   -1.532443
  C      1.778115   -1.066295   -1.469658
  C     -1.654270    1.359472   -0.399375
  C     -0.405808   -2.036250   -0.821922
  C     -1.605395    1.031188    2.106394
  H      1.333208   -1.077267    1.827004
  H      1.467158    1.247228    1.072292
  H      3.583953   -0.117904    1.395063
  H      4.175758   -0.850147   -0.007678
  H      3.556472    0.782583   -0.179754
  H     -0.303083    2.522784   -2.058233
  H      1.229803    2.505670   -1.136632
  H      0.847513    1.211991   -2.330533
  H     -0.590235   -2.244683    1.171998
  H      0.167558    0.581958    2.979442
  H      0.365204   -1.645703   -2.690059
  H     -3.214421    1.314622    0.980396

 Total Charge           Charge          ....    0
 Multiplicity           Mult            ....    3
 Number of Electrons    NEL             ....  132
 Basis Dimension        Dim             ....  882

ORBITAL ENERGIES
----------------
                 SPIN UP ORBITALS
  NO   OCC          E(Eh)            E(eV)
   0   1.0000     -19.338709      -526.2330
   1   1.0000     -19.337893      -526.2108
   2   1.0000     -19.326795      -525.9088
   3   1.0000     -19.303304      -525.2696
   4   1.0000     -14.566195      -396.3663
   5   1.0000     -14.556944      -396.1146
   6   1.0000     -14.554213      -396.0403
   7   1.0000     -14.550278      -395.9332
   8   1.0000     -10.503080      -285.8033
   9   1.0000     -10.486561      -285.3538
  10   1.0000     -10.484220      -285.2901
  11   1.0000     -10.480513      -285.1892
  12   1.0000     -10.444846      -284.2187
  13   1.0000     -10.440760      -284.1075
  14   1.0000     -10.417975      -283.4875
  15   1.0000     -10.411058      -283.2993
  16   1.0000     -10.376847      -282.3684
  17   1.0000     -10.371404      -282.2202
  18   1.0000      -1.244941       -33.8766
  19   1.0000      -1.231946       -33.5230
  20   1.0000      -1.216477       -33.1020
  21   1.0000      -1.193935       -32.4886
  22   1.0000      -1.120926       -30.5019
  23   1.0000      -1.103737       -30.0342
  24   1.0000      -1.065917       -29.0051
  25   1.0000      -1.052642       -28.6438
  26   1.0000      -0.987907       -26.8823
  27   1.0000      -0.956306       -26.0224
  28   1.0000      -0.892217       -24.2785
  29   1.0000      -0.846972       -23.0473
  30   1.0000      -0.819818       -22.3084
  31   1.0000      -0.799105       -21.7447
  32   1.0000      -0.791585       -21.5401
  33   1.0000      -0.781646       -21.2697
  34   1.0000      -0.701886       -19.0993
  35   1.0000      -0.696937       -18.9646
  36   1.0000      -0.687530       -18.7086
  37   1.0000      -0.675313       -18.3762
  38   1.0000      -0.657345       -17.8873
  39   1.0000      -0.633487       -17.2381
  40   1.0000      -0.614765       -16.7286
  41   1.0000      -0.604639       -16.4531
  42   1.0000      -0.599318       -16.3083
  43   1.0000      -0.592737       -16.1292
  44   1.0000      -0.580672       -15.8009
  45   1.0000      -0.578122       -15.7315
  46   1.0000      -0.572360       -15.5747
  47   1.0000      -0.571049       -15.5390
  48   1.0000      -0.557925       -15.1819
  49   1.0000      -0.554271       -15.0825
  50   1.0000      -0.553827       -15.0704
  51   1.0000      -0.542703       -14.7677
  52   1.0000      -0.532836       -14.4992
  53   1.0000      -0.524045       -14.2600
  54   1.0000      -0.519035       -14.1237
  55   1.0000      -0.503537       -13.7019
  56   1.0000      -0.479987       -13.0611
  57   1.0000      -0.424836       -11.5604
  58   1.0000      -0.419935       -11.4270
  59   1.0000      -0.414592       -11.2816
  60   1.0000      -0.407023       -11.0757
  61   1.0000      -0.397980       -10.8296
  62   1.0000      -0.396172       -10.7804
  63   1.0000      -0.386982       -10.5303
  64   1.0000      -0.381071       -10.3695
  65   1.0000      -0.349167        -9.5013
  66   1.0000      -0.324144        -8.8204
  67   0.0000       0.008527         0.2320
  68   0.0000       0.028378         0.7722
  69   0.0000       0.033990         0.9249
  70   0.0000       0.035362         0.9622
  71   0.0000       0.054313         1.4779

                 SPIN DOWN ORBITALS
  NO   OCC          E(Eh)            E(eV)
   0   1.0000     -19.336081      -526.1615
   1   1.0000     -19.332829      -526.0730
   2   1.0000     -19.326704      -525.9064
   3   1.0000     -19.303127      -525.2648
   4   1.0000     -14.565648      -396.3514
   5   1.0000     -14.556571      -396.1044
   6   1.0000     -14.554135      -396.0382
   7   1.0000     -14.549515      -395.9124
   8   1.0000     -10.503101      -285.8039
   9   1.0000     -10.486603      -285.3550
  10   1.0000     -10.485248      -285.3181
  11   1.0000     -10.481365      -285.2124
  12   1.0000     -10.444526      -284.2100
  13   1.0000     -10.440225      -284.0930
  14   1.0000     -10.406174      -283.1664
  15   1.0000     -10.399911      -282.9960
  16   1.0000     -10.377395      -282.3833
  17   1.0000     -10.372070      -282.2384
  18   1.0000      -1.244571       -33.8665
  19   1.0000      -1.229664       -33.4608
  20   1.0000      -1.214175       -33.0394
  21   1.0000      -1.187023       -32.3005
  22   1.0000      -1.117724       -30.4148
  23   1.0000      -1.101532       -29.9742
  24   1.0000      -1.063865       -28.9492
  25   1.0000      -1.051229       -28.6054
  26   1.0000      -0.975958       -26.5572
  27   1.0000      -0.938438       -25.5362
  28   1.0000      -0.885764       -24.1029
  29   1.0000      -0.841238       -22.8912
  30   1.0000      -0.811932       -22.0938
  31   1.0000      -0.795355       -21.6427
  32   1.0000      -0.789094       -21.4723
  33   1.0000      -0.779594       -21.2138
  34   1.0000      -0.696932       -18.9645
  35   1.0000      -0.689700       -18.7677
  36   1.0000      -0.682851       -18.5813
  37   1.0000      -0.667838       -18.1728
  38   1.0000      -0.645821       -17.5737
  39   1.0000      -0.628276       -17.0962
  40   1.0000      -0.608385       -16.5550
  41   1.0000      -0.601046       -16.3553
  42   1.0000      -0.593725       -16.1561
  43   1.0000      -0.588991       -16.0273
  44   1.0000      -0.573471       -15.6049
  45   1.0000      -0.572938       -15.5904
  46   1.0000      -0.563031       -15.3208
  47   1.0000      -0.560739       -15.2585
  48   1.0000      -0.551423       -15.0050
  49   1.0000      -0.548436       -14.9237
  50   1.0000      -0.547839       -14.9074
  51   1.0000      -0.535588       -14.5741
  52   1.0000      -0.526011       -14.3135
  53   1.0000      -0.516534       -14.0556
  54   1.0000      -0.507565       -13.8115
  55   1.0000      -0.498734       -13.5712
  56   1.0000      -0.476667       -12.9708
  57   1.0000      -0.421159       -11.4603
  58   1.0000      -0.415319       -11.3014
  59   1.0000      -0.402237       -10.9454
  60   1.0000      -0.399884       -10.8814
  61   1.0000      -0.390803       -10.6343
  62   1.0000      -0.388773       -10.5791
  63   1.0000      -0.383221       -10.4280
  64   1.0000      -0.373973       -10.1763
  65   0.0000      -0.062515        -1.7011
  66   0.0000      -0.045489        -1.2378
  67   0.0000       0.008246         0.2244
  68   0.0000       0.027879         0.7586
  69   0.0000       0.033756         0.9185

----------------------------------------------------------------------------------------------------
          SPIN FLIP ABSORPTION SPECTRUM VIA TRANSITION ELECTRIC DIPOLE MOMENTS
----------------------------------------------------------------------------------------------------
     Transition      Energy     Energy  Wavelength fosc(D2)      D2        DX        DY        DZ
                      (eV)      (cm-1)    (nm)                 (au**2)    (au)      (au)      (au)
----------------------------------------------------------------------------------------------------
  1-3A  ->  2-3A    0.088754     715.9  13969.4   0.000025975   0.01195   0.07424  -0.05389  -0.05942
  1-3A  ->  3-3A    2.061908   16630.4   601.3   0.001267567   0.02509  -0.12595   0.01683   0.09458

Dispersion correction             ... done (  0.1 sec)

MULLIKEN ATOMIC CHARGES AND SPIN DENSITIES
------------------------------------------
   0 O :   -0.675478    0.032349
   1 O :   -0.611895   -0.019259
   2 O :   -0.567937    0.000419
   3 O :   -0.657550   -0.000449
   4 N :   -0.208897   -0.002912
   5 N :   -0.268816   -0.001206
   6 N :    0.106737    0.001201
   7 N :   -0.075228   -0.009779
   8 C :    0.647149    0.302361
   9 C :    0.416126    0.460235
  10 C :    0.168464   -0.106365
  11 C :    0.140929   -0.372051
  12 C :   -1.577181    0.000222
  13 C :   -1.221642   -0.035795
  14 C :   -0.037611   -0.095721
  15 C :    0.077033   -0.199104
  16 C :    0.426528    0.001595
  17 C :    0.509128    0.013843
  18 H :    0.655641    0.004060
  19 H :    0.638930   -0.012026
  20 H :    0.334249    0.000259
  21 H :    0.416275    0.005132
  22 H :    0.326503    0.011617
  23 H :    0.322484   -0.005943
  24 H :    0.315166    0.015740
  25 H :    0.220317    0.009210
  26 H :    0.047854   -0.000578
  27 H :    0.102741    0.002127
  28 H :   -0.017467   -0.002402
  29 H :    0.047448    0.003221
Sum of atomic charges       :   -0.0000000

LOEWDIN ATOMIC CHARGES AND SPIN DENSITIES
-----------------------------------------
   0 O :    0.063739    0.028410
   1 O :    0.132451   -0.016121
   2 O :    0.163675    0.000255
   3 O :    0.108885   -0.000399
   4 N :    0.289677   -0.000021
   5 N :    0.277216   -0.000279
   6 N :    0.354352   -0.002008
   7 N :    0.321969   -0.007234
   8 C :   -0.052709    0.091018
   9 C :    0.009259   -0.077804
  10 C :   -0.146004    0.005258
  11 C :   -0.109391   -0.006627
  12 C :    0.185098    0.012344
  13 C :    0.170497   -0.015421
  14 C :   -0.391189    0.007678
  15 C :   -0.416922   -0.016363
  16 C :   -0.528310   -0.000521
  17 C :   -0.587827   -0.000499
  18 H :    0.074294    0.000761
  19 H :    0.045832   -0.001454
  20 H :    0.018740   -0.000041
  21 H :   -0.034795    0.002281
  22 H :    0.044429    0.004593
  23 H :    0.049180   -0.001130
  24 H :    0.011242   -0.002300
  25 H :   -0.012210   -0.003863
  26 H :   -0.007227    0.000093
  27 H :    0.007374    0.000030
  28 H :   -0.043635   -0.000144
  29 H :    0.002308   -0.000493

  Mayer bond orders larger than 0.100000
B(  0-O , 14-C ) :   1.4086 B(  1-O , 15-C ) :   1.5343 B(  2-O , 16-C ) :   1.5997
B(  3-O , 17-C ) :   1.5681 B(  4-N ,  8-C ) :   0.2245 B(  4-N ,  9-C ) :   0.1125
B(  4-N , 10-C ) :   0.2933 B(  4-N , 16-C ) :   1.0820 B(  4-N , 26-H ) :   1.0997
B(  5-N , 10-C ) :   0.1652 B(  5-N , 11-C ) :   0.3392 B(  5-N , 17-C ) :   1.1551
B(  5-N , 27-H ) :   1.0843 B(  6-N ,  8-C ) :  -0.1529 B(  6-N , 10-C ) :   0.1249
B(  6-N , 14-C ) :   1.0554 B(  6-N , 16-C ) :   0.9090 B(  6-N , 28-H ) :   1.1657
B(  7-N , 11-C ) :   0.1236 B(  7-N , 15-C ) :   0.9959 B(  7-N , 17-C ) :   0.9611
B(  7-N , 29-H ) :   1.1056 B(  8-C , 10-C ) :   0.4171 B(  8-C , 11-C ) :   0.3149
B(  8-C , 12-C ) :   0.1524 B(  8-C , 14-C ) :   0.7962 B(  8-C , 18-H ) :  -0.1569
B(  8-C , 20-H ) :  -0.1631 B(  9-C , 10-C ) :   0.1261 B(  9-C , 11-C ) :   0.4095
B(  9-C , 13-C ) :   0.4536 B(  9-C , 15-C ) :   0.4939 B(  9-C , 19-H ) :  -0.2126
B( 10-C , 11-C ) :   0.4618 B( 10-C , 14-C ) :  -0.1909 B( 10-C , 16-C ) :  -0.1286
B( 10-C , 18-H ) :   0.6701 B( 10-C , 19-H ) :  -0.1250 B( 11-C , 13-C ) :  -0.1410
B( 11-C , 17-C ) :  -0.1683 B( 11-C , 18-H ) :  -0.1316 B( 11-C , 19-H ) :   0.6891
B( 12-C , 20-H ) :   1.0663 B( 12-C , 21-H ) :   0.9236 B( 12-C , 22-H ) :   0.8482
B( 13-C , 23-H ) :   0.9034 B( 13-C , 24-H ) :   1.0243 B( 13-C , 25-H ) :   0.9309

Dispersion correction           -0.058374209
FINAL SINGLE POINT ENERGY      -908.758034362612

DIPOLE MOMENT
-------------

Method             : TDA/CIS
Type of density    : Electron Density
Level              : Relaxed density
State              :   2
Multiplicity       :   3
Irrep              :   0
Energy             :     0.0000000000000000 Eh
Relativity type    :
Basis              : AO
                                X                 Y                 Z
Electronic contribution:     -9.848919657      -4.156368312      -0.202412172
Nuclear contribution   :     11.865086920       4.480296511       1.249940129
                        -----------------------------------------
Total Dipole Moment    :      2.016167263       0.323928199       1.047527957
                        -----------------------------------------
Magnitude (a.u.)       :      2.295032621
Magnitude (Debye)      :      5.833509326

Rotational constants in cm-1:             0.021663             0.012102             0.011363
Rotational constants in MHz :           649.429173           362.810116           340.651585

                             ****ORCA TERMINATED NORMALLY****
TOTAL RUN TIME: 0 days 0 hours 4 minutes 51 seconds 341 msec
