                         Program Version 6.0.0  -   RELEASE  -
|  1> ! Engrad def2-TZVPPD wB97M-D3BJ
|  2> %pal nprocs 8 end%pal nprocs 64 end
|  3> %tddft Nroots 2 Iroot 1
|  4> sf true
|  5> end
|  6> *xyz 0 3
|  7> O   2.4155832 0.46677509 -0.94739766
|  8> O   -0.97231762 2.42016531 -2.47905412
|  9> O   1.00770025 -3.71656569 0.06054985
| 10> O   -2.31699448 -1.54505427 -0.96758977
| 11> N   0.93014544 -2.06643926 1.65034274
| 12> N   -1.27260869 -0.5136588 0.75992314
| 13> N   1.31347035 -1.5305666 -0.60723479
| 14> N   -1.36679626 0.42268749 -1.52417711
| 15> C   1.16887419 0.30711849 0.97770494
| 16> C   -1.19645706 2.49148422 -0.08867716
| 17> C   0.87330414 -0.69113814 2.06279015
| 18> C   -0.26097459 0.19984309 1.40911931
| 19> C   1.93407739 1.63038734 1.33709843
| 20> C   -1.50873069 3.86764788 0.45906669
| 21> C   1.64742437 -0.24912398 -0.27550821
| 22> C   -1.10729153 1.81821292 -1.43432281
| 23> C   1.07454611 -2.54581823 0.33375951
| 24> C   -1.6816503 -0.59567555 -0.61974284
| 25> H   1.12701804 -0.58104805 3.11227303
| 26> H   -0.65695641 1.03628035 1.92943406
| 27> H   1.68928078 2.33940395 0.59549446
| 28> H   1.46265705 1.89515674 2.29954715
| 29> H   3.02729004 1.47245838 1.36368076
| 30> H   -1.37682712 3.93126356 1.52060399
| 31> H   -0.90764656 4.67375348 0.03902253
| 32> H   -2.54845248 4.17002153 0.17067919
| 33> H   0.48480259 -2.74606425 2.220399
| 34> H   -1.86644509 -1.16410904 1.20606749
| 35> H   1.73959405 -1.92735434 -1.41279879
| 36> H   -1.76203621 0.25510861 -2.44331283
| 37> *
| 38>
| 39>                          ****END OF INPUT****

CARTESIAN COORDINATES (ANGSTROEM)
---------------------------------
  O      2.415583    0.466775   -0.947398
  O     -0.972318    2.420165   -2.479054
  O      1.007700   -3.716566    0.060550
  O     -2.316994   -1.545054   -0.967590
  N      0.930145   -2.066439    1.650343
  N     -1.272609   -0.513659    0.759923
  N      1.313470   -1.530567   -0.607235
  N     -1.366796    0.422687   -1.524177
  C      1.168874    0.307118    0.977705
  C     -1.196457    2.491484   -0.088677
  C      0.873304   -0.691138    2.062790
  C     -0.260975    0.199843    1.409119
  C      1.934077    1.630387    1.337098
  C     -1.508731    3.867648    0.459067
  C      1.647424   -0.249124   -0.275508
  C     -1.107292    1.818213   -1.434323
  C      1.074546   -2.545818    0.333760
  C     -1.681650   -0.595676   -0.619743
  H      1.127018   -0.581048    3.112273
  H     -0.656956    1.036280    1.929434
  H      1.689281    2.339404    0.595494
  H      1.462657    1.895157    2.299547
  H      3.027290    1.472458    1.363681
  H     -1.376827    3.931264    1.520604
  H     -0.907647    4.673753    0.039023
  H     -2.548452    4.170022    0.170679
  H      0.484803   -2.746064    2.220399
  H     -1.866445   -1.164109    1.206067
  H      1.739594   -1.927354   -1.412799
  H     -1.762036    0.255109   -2.443313

 Total Charge           Charge          ....    0
 Multiplicity           Mult            ....    3
 Number of Electrons    NEL             ....  132
 Basis Dimension        Dim             ....  882

ORBITAL ENERGIES
----------------
                 SPIN UP ORBITALS
  NO   OCC          E(Eh)            E(eV)
   0   1.0000     -19.345131      -526.4078
   1   1.0000     -19.329987      -525.9957
   2   1.0000     -19.327643      -525.9319
   3   1.0000     -19.322127      -525.7818
   4   1.0000     -14.570128      -396.4733
   5   1.0000     -14.561955      -396.2510
   6   1.0000     -14.557864      -396.1396
   7   1.0000     -14.547120      -395.8473
   8   1.0000     -10.511254      -286.0258
   9   1.0000     -10.507088      -285.9124
  10   1.0000     -10.501575      -285.7624
  11   1.0000     -10.487120      -285.3690
  12   1.0000     -10.436750      -283.9984
  13   1.0000     -10.431064      -283.8437
  14   1.0000     -10.426834      -283.7286
  15   1.0000     -10.411972      -283.3242
  16   1.0000     -10.389915      -282.7240
  17   1.0000     -10.366336      -282.0823
  18   1.0000      -1.222639       -33.2697
  19   1.0000      -1.219478       -33.1837
  20   1.0000      -1.207008       -32.8444
  21   1.0000      -1.186522       -32.2869
  22   1.0000      -1.117744       -30.4154
  23   1.0000      -1.082528       -29.4571
  24   1.0000      -1.067483       -29.0477
  25   1.0000      -1.052826       -28.6489
  26   1.0000      -0.996673       -27.1208
  27   1.0000      -0.924554       -25.1584
  28   1.0000      -0.863653       -23.5012
  29   1.0000      -0.826632       -22.4938
  30   1.0000      -0.821984       -22.3673
  31   1.0000      -0.803490       -21.8641
  32   1.0000      -0.781406       -21.2631
  33   1.0000      -0.768760       -20.9190
  34   1.0000      -0.713743       -19.4219
  35   1.0000      -0.696725       -18.9589
  36   1.0000      -0.682825       -18.5806
  37   1.0000      -0.655202       -17.8289
  38   1.0000      -0.633882       -17.2488
  39   1.0000      -0.627194       -17.0668
  40   1.0000      -0.608297       -16.5526
  41   1.0000      -0.604068       -16.4375
  42   1.0000      -0.594104       -16.1664
  43   1.0000      -0.581979       -15.8364
  44   1.0000      -0.574602       -15.6357
  45   1.0000      -0.567203       -15.4344
  46   1.0000      -0.564243       -15.3538
  47   1.0000      -0.562269       -15.3001
  48   1.0000      -0.554875       -15.0989
  49   1.0000      -0.549418       -14.9504
  50   1.0000      -0.547882       -14.9086
  51   1.0000      -0.540490       -14.7075
  52   1.0000      -0.525623       -14.3029
  53   1.0000      -0.514347       -13.9961
  54   1.0000      -0.493144       -13.4191
  55   1.0000      -0.473521       -12.8852
  56   1.0000      -0.448327       -12.1996
  57   1.0000      -0.441634       -12.0175
  58   1.0000      -0.419017       -11.4020
  59   1.0000      -0.407844       -11.0980
  60   1.0000      -0.405404       -11.0316
  61   1.0000      -0.400543       -10.8993
  62   1.0000      -0.393493       -10.7075
  63   1.0000      -0.380085       -10.3426
  64   1.0000      -0.369395       -10.0518
  65   1.0000      -0.347901        -9.4669
  66   1.0000      -0.346098        -9.4178
  67   0.0000       0.014355         0.3906
  68   0.0000       0.028435         0.7738
  69   0.0000       0.036628         0.9967
  70   0.0000       0.038934         1.0594
  71   0.0000       0.043546         1.1850

                 SPIN DOWN ORBITALS
  NO   OCC          E(Eh)            E(eV)
   0   1.0000     -19.339433      -526.2527
   1   1.0000     -19.329987      -525.9957
   2   1.0000     -19.327624      -525.9314
   3   1.0000     -19.322021      -525.7789
   4   1.0000     -14.570115      -396.4730
   5   1.0000     -14.561675      -396.2433
   6   1.0000     -14.557785      -396.1375
   7   1.0000     -14.547040      -395.8451
   8   1.0000     -10.511256      -286.0258
   9   1.0000     -10.507088      -285.9124
  10   1.0000     -10.502224      -285.7800
  11   1.0000     -10.487127      -285.3692
  12   1.0000     -10.436528      -283.9924
  13   1.0000     -10.426555      -283.7210
  14   1.0000     -10.411886      -283.3218
  15   1.0000     -10.405205      -283.1400
  16   1.0000     -10.390274      -282.7337
  17   1.0000     -10.366240      -282.0797
  18   1.0000      -1.221643       -33.2426
  19   1.0000      -1.218163       -33.1479
  20   1.0000      -1.200049       -32.6550
  21   1.0000      -1.186509       -32.2865
  22   1.0000      -1.117503       -30.4088
  23   1.0000      -1.082177       -29.4475
  24   1.0000      -1.066003       -29.0074
  25   1.0000      -1.051958       -28.6252
  26   1.0000      -0.996319       -27.1112
  27   1.0000      -0.896310       -24.3898
  28   1.0000      -0.863337       -23.4926
  29   1.0000      -0.823577       -22.4107
  30   1.0000      -0.809162       -22.0184
  31   1.0000      -0.801047       -21.7976
  32   1.0000      -0.779459       -21.2101
  33   1.0000      -0.762676       -20.7535
  34   1.0000      -0.711297       -19.3554
  35   1.0000      -0.696331       -18.9481
  36   1.0000      -0.675042       -18.3688
  37   1.0000      -0.653594       -17.7852
  38   1.0000      -0.632739       -17.2177
  39   1.0000      -0.616622       -16.7791
  40   1.0000      -0.606426       -16.5017
  41   1.0000      -0.589670       -16.0457
  42   1.0000      -0.588570       -16.0158
  43   1.0000      -0.575268       -15.6538
  44   1.0000      -0.568231       -15.4624
  45   1.0000      -0.563940       -15.3456
  46   1.0000      -0.560761       -15.2591
  47   1.0000      -0.557036       -15.1577
  48   1.0000      -0.548022       -14.9124
  49   1.0000      -0.545335       -14.8393
  50   1.0000      -0.542246       -14.7553
  51   1.0000      -0.530510       -14.4359
  52   1.0000      -0.516750       -14.0615
  53   1.0000      -0.511546       -13.9199
  54   1.0000      -0.492895       -13.4123
  55   1.0000      -0.472148       -12.8478
  56   1.0000      -0.444832       -12.1045
  57   1.0000      -0.427292       -11.6272
  58   1.0000      -0.418767       -11.3952
  59   1.0000      -0.404840       -11.0163
  60   1.0000      -0.396022       -10.7763
  61   1.0000      -0.392009       -10.6671
  62   1.0000      -0.390031       -10.6133
  63   1.0000      -0.377051       -10.2601
  64   1.0000      -0.355281        -9.6677
  65   0.0000      -0.039604        -1.0777
  66   0.0000      -0.022599        -0.6150
  67   0.0000       0.015391         0.4188
  68   0.0000       0.028765         0.7827
  69   0.0000       0.037351         1.0164

----------------------------------------------------------------------------------------------------
          SPIN FLIP ABSORPTION SPECTRUM VIA TRANSITION ELECTRIC DIPOLE MOMENTS
----------------------------------------------------------------------------------------------------
     Transition      Energy     Energy  Wavelength fosc(D2)      D2        DX        DY        DZ
                      (eV)      (cm-1)    (nm)                 (au**2)    (au)      (au)      (au)
----------------------------------------------------------------------------------------------------
  1-3A  ->  2-3A    0.171039    1379.5  7248.9   0.000308779   0.07369   0.19829  -0.07438   0.16981

Dispersion correction             ... done (  0.1 sec)

MULLIKEN ATOMIC CHARGES AND SPIN DENSITIES
------------------------------------------
   0 O :   -0.681847    0.001015
   1 O :   -0.628712   -0.105549
   2 O :   -0.626073    0.000656
   3 O :   -0.633042   -0.005517
   4 N :   -0.131049    0.000128
   5 N :   -0.051442    0.041734
   6 N :    0.098857   -0.000669
   7 N :    0.022451   -0.016751
   8 C :    1.876382    0.071108
   9 C :    0.632754    0.473120
  10 C :   -0.208773    0.016456
  11 C :   -0.882964   -0.104803
  12 C :   -1.738834   -0.070030
  13 C :   -0.940501    0.100321
  14 C :    0.011775    0.013036
  15 C :    0.096649   -0.438771
  16 C :    0.379390    0.000032
  17 C :    0.492085   -0.009262
  18 H :    0.205005   -0.000198
  19 H :    0.574786    0.018069
  20 H :    0.357121   -0.008530
  21 H :    0.374776    0.007435
  22 H :    0.360076   -0.000099
  23 H :    0.256235    0.025856
  24 H :    0.290014    0.007576
  25 H :    0.308529   -0.025386
  26 H :    0.046909   -0.000346
  27 H :    0.012907    0.000677
  28 H :    0.061333    0.000011
  29 H :    0.065204    0.008680
Sum of atomic charges       :    0.0000000

LOEWDIN ATOMIC CHARGES AND SPIN DENSITIES
-----------------------------------------
   0 O :    0.078844   -0.000317
   1 O :    0.080053   -0.073805
   2 O :    0.105090    0.000660
   3 O :    0.102142   -0.004866
   4 N :    0.282600    0.001745
   5 N :    0.277610    0.008967
   6 N :    0.351525   -0.000513
   7 N :    0.302329   -0.012066
   8 C :   -0.236085   -0.001686
   9 C :    0.245959    0.112339
  10 C :   -0.006564    0.002825
  11 C :   -0.099328    0.013021
  12 C :    0.231543   -0.008190
  13 C :    0.130720    0.007684
  14 C :   -0.353323   -0.000337
  15 C :   -0.456096   -0.043790
  16 C :   -0.437618    0.000210
  17 C :   -0.453895    0.001269
  18 H :    0.048605    0.000155
  19 H :    0.003967    0.009504
  20 H :   -0.043574   -0.006339
  21 H :    0.004384   -0.000240
  22 H :    0.019944   -0.000624
  23 H :   -0.035284    0.011185
  24 H :    0.001633    0.009525
  25 H :    0.016555   -0.026481
  26 H :   -0.054441    0.000099
  27 H :   -0.063334    0.000267
  28 H :   -0.024170   -0.000024
  29 H :   -0.019791   -0.000176

  Mayer bond orders larger than 0.100000
B(  0-O , 14-C ) :   1.4665 B(  1-O , 15-C ) :   1.4110 B(  2-O , 16-C ) :   1.5840
B(  3-O , 17-C ) :   1.4703 B(  4-N , 10-C ) :   0.7675 B(  4-N , 11-C ) :  -0.1749
B(  4-N , 16-C ) :   1.0203 B(  4-N , 26-H ) :   1.0895 B(  5-N ,  9-C ) :   0.1108
B(  5-N , 10-C ) :  -0.1437 B(  5-N , 11-C ) :   0.8026 B(  5-N , 17-C ) :   0.9019
B(  5-N , 27-H ) :   1.1178 B(  6-N , 14-C ) :   1.0774 B(  6-N , 16-C ) :   0.9335
B(  6-N , 28-H ) :   1.0544 B(  7-N , 15-C ) :   0.9506 B(  7-N , 17-C ) :   0.9879
B(  7-N , 29-H ) :   1.0785 B(  8-C ,  9-C ) :  -0.1116 B(  8-C , 10-C ) :   0.4441
B(  8-C , 14-C ) :   0.5735 B(  8-C , 20-H ) :  -0.1023 B(  9-C , 11-C ) :   0.1284
B(  9-C , 13-C ) :   0.7214 B(  9-C , 15-C ) :   0.8102 B(  9-C , 19-H ) :  -0.1762
B( 10-C , 11-C ) :   0.8261 B( 10-C , 12-C ) :  -0.1757 B( 10-C , 18-H ) :   1.1708
B( 11-C , 15-C ) :   0.1030 B( 11-C , 19-H ) :   0.8206 B( 12-C , 20-H ) :   0.9738
B( 12-C , 21-H ) :   1.0417 B( 12-C , 22-H ) :   0.8440 B( 13-C , 23-H ) :   0.9993
B( 13-C , 24-H ) :   0.9218 B( 13-C , 25-H ) :   0.9092 B( 14-C , 16-C ) :  -0.1239

Dispersion correction           -0.054346626
FINAL SINGLE POINT ENERGY      -908.666451871416

DIPOLE MOMENT
-------------

Method             : TDA/CIS
Type of density    : Electron Density
Level              : Relaxed density
State              :   1
Multiplicity       :   3
Irrep              :   0
Energy             :     0.0000000000000000 Eh
Relativity type    :
Basis              : AO
                                X                 Y                 Z
Electronic contribution:     -0.632819720     -10.897406653      -7.582241406
Nuclear contribution   :      0.011522276      12.533339627      10.097062828
                        -----------------------------------------
Total Dipole Moment    :     -0.621297444       1.635932974       2.514821422
                        -----------------------------------------
Magnitude (a.u.)       :      3.063758148
Magnitude (Debye)      :      7.787454334

Rotational constants in cm-1:             0.021118             0.012239             0.010571
Rotational constants in MHz :           633.108610           366.909844           316.904644

                             ****ORCA TERMINATED NORMALLY****
TOTAL RUN TIME: 0 days 0 hours 4 minutes 44 seconds 996 msec
