                         Program Version 6.0.0  -   RELEASE  -
|  1> ! Opt wB97M-D3BJ def2-TZVPPD
|  2> %pal nprocs 8 end %pal nprocs 64 end
|  3> %geom
|  4> Constraints
|  5>     {A 2 1 0 63.63636363636364 C }
|  6> end
|  7> MaxIter 500
|  8> end
|  9> *xyz 0 1
| 10> O   -0.0007 0.8141 0.0
| 11> C   0.7509 -0.4065 0.0
| 12> C   -0.7502 -0.4076 0.0
| 13> H   1.2625 -0.6786 0.9136
| 14> H   1.2625 -0.6787 -0.9136
| 15> H   -1.2614 -0.6806 -0.9136
| 16> H   -1.2614 -0.6805 0.9136
| 17> *
| 18>
| 19>                          ****END OF INPUT****
 Total Charge           Charge          ....    0
 Multiplicity           Mult            ....    1
 Number of Electrons    NEL             ....   24
Dispersion correction           -0.005230879
FINAL SINGLE POINT ENERGY      -153.884303315289
Dispersion correction             ... done (  0.1 sec)
Dispersion correction           -0.005231830
FINAL SINGLE POINT ENERGY      -153.886498119549
Dispersion correction             ... done (  0.1 sec)
Dispersion correction           -0.005234059
FINAL SINGLE POINT ENERGY      -153.886822156406
Dispersion correction             ... done (  0.2 sec)
Dispersion correction           -0.005233687
FINAL SINGLE POINT ENERGY      -153.886845562734
Dispersion correction             ... done (  0.1 sec)
Dispersion correction           -0.005233477
FINAL SINGLE POINT ENERGY      -153.886860136087
Dispersion correction             ... done (  0.1 sec)
                    ***********************HURRAY********************

CARTESIAN COORDINATES (ANGSTROEM)
---------------------------------
  O      0.038652    0.806527   -0.000063
  C      0.710359   -0.415992    0.000179
  C     -0.728024   -0.476851   -0.000213
  H      1.251166   -0.654256    0.910757
  H      1.250774   -0.654911   -0.910523
  H     -1.260621   -0.661276   -0.921197
  H     -1.260105   -0.661641    0.921059

 Multiplicity           Mult            ....    1
 Number of Electrons    NEL             ....   24
 Basis Dimension        Dim             ....  182

ORBITAL ENERGIES
----------------

  NO   OCC          E(Eh)            E(eV)
   0   2.0000     -19.350868      -526.5639
   1   2.0000     -10.400979      -283.0250
   2   2.0000     -10.397881      -282.9407
   3   2.0000      -1.200110       -32.6567
   4   2.0000      -0.812555       -22.1107
   5   2.0000      -0.752785       -20.4843
   6   2.0000      -0.630904       -17.1678
   7   2.0000      -0.594518       -16.1776
   8   2.0000      -0.498863       -13.5748
   9   2.0000      -0.490055       -13.3351
  10   2.0000      -0.427705       -11.6384
  11   2.0000      -0.384306       -10.4575
  12   0.0000       0.042253         1.1498
  13   0.0000       0.058659         1.5962
  14   0.0000       0.073945         2.0121
  15   0.0000       0.077762         2.1160
  16   0.0000       0.114350         3.1116

MULLIKEN ATOMIC CHARGES
-----------------------
   0 O :   -0.387407
   1 C :   -0.145747
   2 C :   -0.197163
   3 H :    0.184234
   4 H :    0.184113
   5 H :    0.181042
   6 H :    0.180928
Sum of atomic charges:   -0.0000000

LOEWDIN ATOMIC CHARGES
----------------------
   0 O :   -0.031345
   1 C :   -0.076458
   2 C :    0.059254
   3 H :    0.016675
   4 H :    0.016669
   5 H :    0.007604
   6 H :    0.007602

  Mayer bond orders larger than 0.100000
B(  0-O ,  1-C ) :   0.7962 B(  0-O ,  2-C ) :   0.8516 B(  1-C ,  2-C ) :   0.8204
B(  1-C ,  3-H ) :   1.0269 B(  1-C ,  4-H ) :   1.0271 B(  2-C ,  5-H ) :   1.0060
B(  2-C ,  6-H ) :   1.0061

Dispersion correction           -0.005233665
FINAL SINGLE POINT ENERGY      -153.886860820335

DIPOLE MOMENT
-------------

Method             : SCF
Type of density    : Electron Density
Multiplicity       :   1
Irrep              :   0
Energy             :  -153.8816271556635797 Eh
Relativity type    :
Basis              : AO
                                X                 Y                 Z
Electronic contribution:      0.005245088       1.615151537      -0.000164097
Nuclear contribution   :     -0.050174014      -2.416940034       0.000202283
                        -----------------------------------------
Total Dipole Moment    :     -0.044928927      -0.801788497       0.000038186
                        -----------------------------------------
Magnitude (a.u.)       :      0.803046328
Magnitude (Debye)      :      2.041181549

Rotational constants in cm-1:             0.851999             0.741290             0.471380
Rotational constants in MHz :         25542.273183         22223.322494         14131.628050

                             ****ORCA TERMINATED NORMALLY****
TOTAL RUN TIME: 0 days 0 hours 1 minutes 20 seconds 752 msec
