                         Program Version 6.0.0  -   RELEASE  -
|  1> ! EnGrad wB97M-D3BJ def2-TZVPPD
|  2> %pal nprocs 8 end%pal nprocs 16 end
|  3> %tddft
|  4>  sf true
|  5>  nroots 2 Iroot 1 end
|  6> *xyz 0 3
|  7> O   0.36498480833836 1.02622863683677 -0.00261161821575
|  8> C   0.62444487766264 -0.28699862499848 -0.00051591666446
|  9> C   -0.7418161330548 -0.71882301115741 0.00070886230809
| 10> H   1.17886960085401 -0.63254759749621 0.88382511964484
| 11> H   1.17886016797336 -0.63533220895907 -0.88372388255255
| 12> H   -1.3022511988613 -0.73743330941944 -0.92327118824747
| 13> H   -1.30089212291228 -0.73349388480616 0.92558862372729
| 14> *
| 15>
| 16>                          ****END OF INPUT****

CARTESIAN COORDINATES (ANGSTROEM)
---------------------------------
  O      0.364985    1.026229   -0.002612
  C      0.624445   -0.286999   -0.000516
  C     -0.741816   -0.718823    0.000709
  H      1.178870   -0.632548    0.883825
  H      1.178860   -0.635332   -0.883724
  H     -1.302251   -0.737433   -0.923271
  H     -1.300892   -0.733494    0.925589

 Total Charge           Charge          ....    0
 Multiplicity           Mult            ....    3
 Number of Electrons    NEL             ....   24
 Basis Dimension        Dim             ....  182

ORBITAL ENERGIES
----------------
                 SPIN UP ORBITALS
  NO   OCC          E(Eh)            E(eV)
   0   1.0000     -19.400065      -527.9026
   1   1.0000     -10.406803      -283.1835
   2   1.0000     -10.345814      -281.5239
   3   1.0000      -1.201222       -32.6869
   4   1.0000      -0.871479       -23.7142
   5   1.0000      -0.737360       -20.0646
   6   1.0000      -0.638792       -17.3824
   7   1.0000      -0.599703       -16.3187
   8   1.0000      -0.553522       -15.0621
   9   1.0000      -0.511311       -13.9135
  10   1.0000      -0.444278       -12.0894
  11   1.0000      -0.429346       -11.6831
  12   1.0000      -0.295719        -8.0469
  13   0.0000       0.041179         1.1205
  14   0.0000       0.063537         1.7289
  15   0.0000       0.073413         1.9977
  16   0.0000       0.086531         2.3546
  17   0.0000       0.117364         3.1936

                 SPIN DOWN ORBITALS
  NO   OCC          E(Eh)            E(eV)
   0   1.0000     -19.373274      -527.1736
   1   1.0000     -10.408070      -283.2180
   2   1.0000     -10.333046      -281.1765
   3   1.0000      -1.143459       -31.1151
   4   1.0000      -0.837551       -22.7909
   5   1.0000      -0.714638       -19.4463
   6   1.0000      -0.598323       -16.2812
   7   1.0000      -0.564835       -15.3700
   8   1.0000      -0.531280       -14.4569
   9   1.0000      -0.475899       -12.9499
  10   1.0000      -0.385978       -10.5030
  11   0.0000      -0.069375        -1.8878
  12   0.0000       0.019070         0.5189
  13   0.0000       0.039948         1.0870
  14   0.0000       0.064245         1.7482
  15   0.0000       0.072641         1.9767

----------------------------------------------------------------------------------------------------
          SPIN FLIP ABSORPTION SPECTRUM VIA TRANSITION ELECTRIC DIPOLE MOMENTS
----------------------------------------------------------------------------------------------------
     Transition      Energy     Energy  Wavelength fosc(D2)      D2        DX        DY        DZ
                      (eV)      (cm-1)    (nm)                 (au**2)    (au)      (au)      (au)
----------------------------------------------------------------------------------------------------
  1-3A  ->  2-3A    1.619686   13063.6   765.5   0.000364462   0.00918   0.00023   0.00040   0.09584

Dispersion correction             ... done (  0.0 sec)

MULLIKEN ATOMIC CHARGES AND SPIN DENSITIES
------------------------------------------
   0 O :   -0.533643   -0.268584
   1 C :   -0.130189   -0.050140
   2 C :   -0.291655    0.182769
   3 H :    0.233271    0.037927
   4 H :    0.233323    0.037812
   5 H :    0.244451    0.030047
   6 H :    0.244442    0.030169
Sum of atomic charges       :    0.0000000

LOEWDIN ATOMIC CHARGES AND SPIN DENSITIES
-----------------------------------------
   0 O :   -0.055939   -0.283088
   1 C :   -0.380939    0.009371
   2 C :    0.385851    0.215164
   3 H :    0.028804    0.006643
   4 H :    0.028789    0.006598
   5 H :   -0.003281    0.022651
   6 H :   -0.003285    0.022661

  Mayer bond orders larger than 0.100000
B(  0-O ,  1-C ) :   0.7622 B(  0-O ,  2-C ) :   0.8042 B(  1-C ,  2-C ) :   0.7711
B(  1-C ,  3-H ) :   1.0222 B(  1-C ,  4-H ) :   1.0220 B(  2-C ,  5-H ) :   0.9405
B(  2-C ,  6-H ) :   0.9405

Dispersion correction           -0.005669840
FINAL SINGLE POINT ENERGY      -153.792391471052

DIPOLE MOMENT
-------------

Method             : TDA/CIS
Type of density    : Electron Density
Level              : Relaxed density
State              :   1
Multiplicity       :   3
Irrep              :   0
Energy             :     0.0000000000000000 Eh
Relativity type    :
Basis              : AO
                                X                 Y                 Z
Electronic contribution:      0.026902288       1.229823136      -0.002668167
Nuclear contribution   :     -0.582518801      -2.689174142       0.005397203
                        -----------------------------------------
Total Dipole Moment    :     -0.555616513      -1.459351006       0.002729036
                        -----------------------------------------
Magnitude (a.u.)       :      1.561544913
Magnitude (Debye)      :      3.969131738

Rotational constants in cm-1:             1.136450             0.456914             0.373508
Rotational constants in MHz :         34069.907779         13697.948004         11197.494134

                             ****ORCA TERMINATED NORMALLY****
TOTAL RUN TIME: 0 days 0 hours 0 minutes 16 seconds 708 msec
