                         Program Version 6.0.0  -   RELEASE  -
|  1> ! Engrad def2-TZVPPD wB97M-D3BJ
|  2> %pal nprocs 8 end%pal nprocs 64 end
|  3> %tddft
|  4>  Iroot 1 Nroots 3
|  5> sf true
|  6> end
|  7> *xyz 0 3
|  8> O   1.17519744 -0.80149148 0.24530712
|  9> C   0.57257721 0.40450879 0.37245336
| 10> C   -0.64689865 0.63218299 -0.45390087
| 11> H   1.41494717 1.15028842 0.19269129
| 12> H   0.38833658 0.50438685 1.48261407
| 13> H   -1.70536904 0.64724036 -0.00474722
| 14> H   -0.43165836 0.90284649 -1.45698964
| 15> *
| 16>
| 17>                          ****END OF INPUT****

CARTESIAN COORDINATES (ANGSTROEM)
---------------------------------
  O      1.175197   -0.801491    0.245307
  C      0.572577    0.404509    0.372453
  C     -0.646899    0.632183   -0.453901
  H      1.414947    1.150288    0.192691
  H      0.388337    0.504387    1.482614
  H     -1.705369    0.647240   -0.004747
  H     -0.431658    0.902846   -1.456990

 Total Charge           Charge          ....    0
 Multiplicity           Mult            ....    3
 Number of Electrons    NEL             ....   24
 Basis Dimension        Dim             ....  182

ORBITAL ENERGIES
----------------
                 SPIN UP ORBITALS
  NO   OCC          E(Eh)            E(eV)
   0   1.0000     -19.381837      -527.4066
   1   1.0000     -10.417339      -283.4702
   2   1.0000     -10.375205      -282.3237
   3   1.0000      -1.170673       -31.8556
   4   1.0000      -0.871709       -23.7204
   5   1.0000      -0.728068       -19.8117
   6   1.0000      -0.619203       -16.8494
   7   1.0000      -0.576887       -15.6979
   8   1.0000      -0.550010       -14.9665
   9   1.0000      -0.527416       -14.3517
  10   1.0000      -0.421564       -11.4713
  11   1.0000      -0.406690       -11.0666
  12   1.0000      -0.334674        -9.1069
  13   0.0000       0.040314         1.0970
  14   0.0000       0.060534         1.6472
  15   0.0000       0.074991         2.0406
  16   0.0000       0.088947         2.4204
  17   0.0000       0.114393         3.1128

                 SPIN DOWN ORBITALS
  NO   OCC          E(Eh)            E(eV)
   0   1.0000     -19.357947      -526.7565
   1   1.0000     -10.418775      -283.5093
   2   1.0000     -10.362087      -281.9667
   3   1.0000      -1.118138       -30.4261
   4   1.0000      -0.838051       -22.8045
   5   1.0000      -0.700783       -19.0693
   6   1.0000      -0.583792       -15.8858
   7   1.0000      -0.553216       -15.0538
   8   1.0000      -0.523525       -14.2458
   9   1.0000      -0.488318       -13.2878
  10   1.0000      -0.376831       -10.2541
  11   0.0000      -0.049189        -1.3385
  12   0.0000      -0.008233        -0.2240
  13   0.0000       0.039807         1.0832
  14   0.0000       0.060844         1.6557
  15   0.0000       0.074799         2.0354

----------------------------------------------------------------------------------------------------
          SPIN FLIP ABSORPTION SPECTRUM VIA TRANSITION ELECTRIC DIPOLE MOMENTS
----------------------------------------------------------------------------------------------------
     Transition      Energy     Energy  Wavelength fosc(D2)      D2        DX        DY        DZ
                      (eV)      (cm-1)    (nm)                 (au**2)    (au)      (au)      (au)
----------------------------------------------------------------------------------------------------
  1-3A  ->  2-3A    0.104464     842.6  11868.6   0.000081079   0.03168  -0.16142   0.02366  -0.07116
  1-3A  ->  3-3A    0.719250    5801.1  1723.8   0.000323161   0.01834   0.11208  -0.07585  -0.00500

Dispersion correction             ... done (  0.1 sec)

MULLIKEN ATOMIC CHARGES AND SPIN DENSITIES
------------------------------------------
   0 O :   -0.359216    0.613881
   1 C :   -0.106342    0.042610
   2 C :   -0.203037   -0.641794
   3 H :    0.201570    0.028952
   4 H :    0.194603    0.056247
   5 H :    0.144699   -0.032496
   6 H :    0.127723   -0.067400
Sum of atomic charges       :   -0.0000000

LOEWDIN ATOMIC CHARGES AND SPIN DENSITIES
-----------------------------------------
   0 O :    0.028572    0.577112
   1 C :   -0.315145    0.011508
   2 C :    0.294616   -0.523165
   3 H :    0.050755    0.021675
   4 H :    0.050998    0.045286
   5 H :   -0.015383   -0.058889
   6 H :   -0.094412   -0.073528

  Mayer bond orders larger than 0.100000
B(  0-O ,  1-C ) :   0.9347 B(  0-O ,  2-C ) :   0.1308 B(  1-C ,  2-C ) :   0.8631
B(  1-C ,  3-H ) :   0.9521 B(  1-C ,  4-H ) :   0.9286 B(  2-C ,  5-H ) :   1.0105
B(  2-C ,  6-H ) :   1.0197

Dispersion correction           -0.005447087
FINAL SINGLE POINT ENERGY      -153.746566583034

DIPOLE MOMENT
-------------

Method             : TDA/CIS
Type of density    : Electron Density
Level              : Relaxed density
State              :   1
Multiplicity       :   3
Irrep              :   0
Energy             :     0.0000000000000000 Eh
Relativity type    :
Basis              : AO
                                X                 Y                 Z
Electronic contribution:      1.425733490      -1.976851638       0.203110534
Nuclear contribution   :     -1.798596964       2.750268040      -0.066399905
                        -----------------------------------------
Total Dipole Moment    :     -0.372863475       0.773416401       0.136710629
                        -----------------------------------------
Magnitude (a.u.)       :      0.869419287
Magnitude (Debye)      :      2.209888205

Rotational constants in cm-1:             1.484874             0.335084             0.306835
Rotational constants in MHz :         44515.392503         10045.572388          9198.681070

                             ****ORCA TERMINATED NORMALLY****
TOTAL RUN TIME: 0 days 0 hours 0 minutes 26 seconds 995 msec
