                         Program Version 6.0.0  -   RELEASE  -
|  1> ! Opt wB97M-D3BJ def2-TZVPPD
|  2> %pal nprocs 8 end %pal nprocs 64 end
|  3> %geom
|  4> Constraints
|  5>     {A 2 1 0 104.23728813559322 C }
|  6> end
|  7> MaxIter 200
|  8> end
|  9> *xyz 0 1
| 10> O   1.1024209015682858 0.9831762125619837 0.0
| 11> C   0.7509 -0.4065 0.0
| 12> C   -0.7502 -0.4076 0.0
| 13> H   1.2625 -0.6786 0.9136
| 14> H   1.2625 -0.6787 -0.9136
| 15> H   -1.2614 -0.6806 -0.9136
| 16> H   -1.2614 -0.6805 0.9136
| 17> *
| 18>
| 19>                          ****END OF INPUT****
 Total Charge           Charge          ....    0
 Multiplicity           Mult            ....    1
 Number of Electrons    NEL             ....   24
Dispersion correction           -0.005479971
FINAL SINGLE POINT ENERGY      -153.743389241414
Dispersion correction             ... done (  0.1 sec)
Dispersion correction           -0.005556082
FINAL SINGLE POINT ENERGY      -153.763325690937
Dispersion correction             ... done (  0.1 sec)
Dispersion correction           -0.005611612
FINAL SINGLE POINT ENERGY      -153.774805867427
Dispersion correction             ... done (  0.1 sec)
FINAL SINGLE POINT ENERGY      -153.784144732075
FINAL SINGLE POINT ENERGY      -153.786627376851
FINAL SINGLE POINT ENERGY      -153.786742485919
FINAL SINGLE POINT ENERGY      -153.786751588915
Dispersion correction             ... done (  0.1 sec)
Dispersion correction           -0.005629781
FINAL SINGLE POINT ENERGY      -153.786753723437
Dispersion correction             ... done (  0.1 sec)
Dispersion correction           -0.005629689
FINAL SINGLE POINT ENERGY      -153.786754475307
Dispersion correction             ... done (  0.1 sec)
                    ***********************HURRAY********************

CARTESIAN COORDINATES (ANGSTROEM)
---------------------------------
  O      0.855204    1.011972    0.000137
  C      0.778625   -0.325511   -0.000123
  C     -0.639654   -0.600177   -0.000025
  H      1.259035   -0.783490    0.879397
  H      1.259080   -0.783077   -0.879826
  H     -1.203965   -0.535386   -0.921961
  H     -1.203004   -0.533654    0.922400

 Multiplicity           Mult            ....    1
 Number of Electrons    NEL             ....   24
 Basis Dimension        Dim             ....  182

ORBITAL ENERGIES
----------------

  NO   OCC          E(Eh)            E(eV)
   0   2.0000     -19.325621      -525.8769
   1   2.0000     -10.451517      -284.4002
   2   2.0000     -10.397267      -282.9240
   3   2.0000      -1.121894       -30.5283
   4   2.0000      -0.888026       -24.1644
   5   2.0000      -0.733752       -19.9664
   6   2.0000      -0.625248       -17.0139
   7   2.0000      -0.571926       -15.5629
   8   2.0000      -0.517360       -14.0781
   9   2.0000      -0.512869       -13.9559
  10   2.0000      -0.363205        -9.8833
  11   2.0000      -0.350273        -9.5314
  12   0.0000      -0.070659        -1.9227
  13   0.0000       0.034993         0.9522
  14   0.0000       0.061337         1.6691
  15   0.0000       0.076129         2.0716
  16   0.0000       0.098728         2.6865

MULLIKEN ATOMIC CHARGES
-----------------------
   0 O :   -0.514045
   1 C :   -0.123439
   2 C :   -0.213125
   3 H :    0.209503
   4 H :    0.209601
   5 H :    0.215608
   6 H :    0.215897
Sum of atomic charges:    0.0000000

LOEWDIN ATOMIC CHARGES
----------------------
   0 O :   -0.021266
   1 C :   -0.413061
   2 C :    0.408751
   3 H :    0.021084
   4 H :    0.021093
   5 H :   -0.008290
   6 H :   -0.008312

  Mayer bond orders larger than 0.100000
B(  0-O ,  1-C ) :   0.7680 B(  0-O ,  2-C ) :   0.8621 B(  1-C ,  2-C ) :   0.7932
B(  1-C ,  3-H ) :   1.0410 B(  1-C ,  4-H ) :   1.0409 B(  2-C ,  5-H ) :   0.9691
B(  2-C ,  6-H ) :   0.9691

Dispersion correction           -0.005629882
FINAL SINGLE POINT ENERGY      -153.786754752092

DIPOLE MOMENT
-------------

Method             : SCF
Type of density    : Electron Density
Multiplicity       :   1
Irrep              :   0
Energy             :  -153.7811248698601219 Eh
Relativity type    :
Basis              : AO
                                X                 Y                 Z
Electronic contribution:      0.340544534       1.378089497      -0.000302530
Nuclear contribution   :     -1.205555236      -2.664267955      -0.000024074
                        -----------------------------------------
Total Dipole Moment    :     -0.865010703      -1.286178458      -0.000326604
                        -----------------------------------------
Magnitude (a.u.)       :      1.549999564
Magnitude (Debye)      :      3.939785792

Rotational constants in cm-1:             1.247126             0.408370             0.349388
Rotational constants in MHz :         37387.910397         12242.613809         10474.393902

                             ****ORCA TERMINATED NORMALLY****
TOTAL RUN TIME: 0 days 0 hours 2 minutes 13 seconds 685 msec
