                         Program Version 6.0.0  -   RELEASE  -
|  1> ! EnGrad wB97M-D3BJ def2-TZVPPD
|  2> %pal nprocs 8 end%pal nprocs 16 end
|  3> %tddft
|  4>  sf true
|  5>  nroots 2 Iroot 1 end
|  6> *xyz 0 3
|  7> O   0.81198176513408 1.3790169160365 0.00127279779231
|  8> C   0.52542270408007 0.23359646586763 0.20853949544047
|  9> C   -0.46255630565741 -0.80151475475388 -0.23728834311168
| 10> H   1.17115733628111 -0.27305370997301 0.97074434008789
| 11> H   0.11668633566871 -1.64375095253876 -0.61313545145728
| 12> H   -1.17789308928276 -0.47264455267883 -0.98812865262159
| 13> H   -0.9825987462238 -1.14004941195966 0.65799581386988
| 14> *
| 15>
| 16>                          ****END OF INPUT****

CARTESIAN COORDINATES (ANGSTROEM)
---------------------------------
  O      0.811982    1.379017    0.001273
  C      0.525423    0.233596    0.208539
  C     -0.462556   -0.801515   -0.237288
  H      1.171157   -0.273054    0.970744
  H      0.116686   -1.643751   -0.613135
  H     -1.177893   -0.472645   -0.988129
  H     -0.982599   -1.140049    0.657996

 Total Charge           Charge          ....    0
 Multiplicity           Mult            ....    3
 Number of Electrons    NEL             ....   24
 Basis Dimension        Dim             ....  182

ORBITAL ENERGIES
----------------
                 SPIN UP ORBITALS
  NO   OCC          E(Eh)            E(eV)
   0   1.0000     -19.404926      -528.0349
   1   1.0000     -10.381215      -282.4872
   2   1.0000     -10.371571      -282.2248
   3   1.0000      -1.241724       -33.7890
   4   1.0000      -0.889802       -24.2127
   5   1.0000      -0.715064       -19.4579
   6   1.0000      -0.628164       -17.0932
   7   1.0000      -0.589447       -16.0397
   8   1.0000      -0.580169       -15.7872
   9   1.0000      -0.517904       -14.0929
  10   1.0000      -0.517226       -14.0744
  11   1.0000      -0.422176       -11.4880
  12   1.0000      -0.216801        -5.8995
  13   0.0000       0.037358         1.0166
  14   0.0000       0.059671         1.6237
  15   0.0000       0.077459         2.1078
  16   0.0000       0.087327         2.3763
  17   0.0000       0.105929         2.8825

                 SPIN DOWN ORBITALS
  NO   OCC          E(Eh)            E(eV)
   0   1.0000     -19.377986      -527.3018
   1   1.0000     -10.370954      -282.2080
   2   1.0000     -10.369665      -282.1729
   3   1.0000      -1.186159       -32.2770
   4   1.0000      -0.870809       -23.6959
   5   1.0000      -0.668991       -18.2042
   6   1.0000      -0.584868       -15.9151
   7   1.0000      -0.542271       -14.7559
   8   1.0000      -0.535533       -14.5726
   9   1.0000      -0.497154       -13.5283
  10   1.0000      -0.471338       -12.8258
  11   0.0000      -0.080985        -2.2037
  12   0.0000       0.038590         1.0501
  13   0.0000       0.059336         1.6146
  14   0.0000       0.077000         2.0953
  15   0.0000       0.084945         2.3115

----------------------------------------------------------------------------------------------------
          SPIN FLIP ABSORPTION SPECTRUM VIA TRANSITION ELECTRIC DIPOLE MOMENTS
----------------------------------------------------------------------------------------------------
     Transition      Energy     Energy  Wavelength fosc(D2)      D2        DX        DY        DZ
                      (eV)      (cm-1)    (nm)                 (au**2)    (au)      (au)      (au)
----------------------------------------------------------------------------------------------------
  1-3A  ->  2-3A    4.603652   37131.0   269.3   0.000374848   0.00332   0.03612  -0.01672  -0.04170

Dispersion correction             ... done (  0.0 sec)

MULLIKEN ATOMIC CHARGES AND SPIN DENSITIES
------------------------------------------
   0 O :   -0.502726    0.053468
   1 C :    0.211551   -0.168763
   2 C :   -0.698328    0.040338
   3 H :    0.262879    0.074424
   4 H :    0.246302   -0.002470
   5 H :    0.235136    0.005402
   6 H :    0.245185   -0.002399
Sum of atomic charges       :    0.0000000

LOEWDIN ATOMIC CHARGES AND SPIN DENSITIES
-----------------------------------------
   0 O :    0.053405    0.020691
   1 C :   -0.241486   -0.015022
   2 C :    0.179969   -0.002053
   3 H :    0.026803   -0.002805
   4 H :   -0.005863   -0.001234
   5 H :   -0.007085    0.001645
   6 H :   -0.005743   -0.001222

  Mayer bond orders larger than 0.100000
B(  0-O ,  1-C ) :   1.7929 B(  1-C ,  2-C ) :   0.7459 B(  1-C ,  3-H ) :   0.9511
B(  2-C ,  4-H ) :   0.9844 B(  2-C ,  5-H ) :   0.9696 B(  2-C ,  6-H ) :   0.9844

Dispersion correction           -0.005501736
FINAL SINGLE POINT ENERGY      -153.916154098293

DIPOLE MOMENT
-------------

Method             : TDA/CIS
Type of density    : Electron Density
Level              : Relaxed density
State              :   1
Multiplicity       :   3
Irrep              :   0
Energy             :     0.0000000000000000 Eh
Relativity type    :
Basis              : AO
                                X                 Y                 Z
Electronic contribution:      1.453526984       3.053110318       0.047062399
Nuclear contribution   :     -1.907044052      -4.290125849       0.051216988
                        -----------------------------------------
Total Dipole Moment    :     -0.453517069      -1.237015530       0.098279387
                        -----------------------------------------
Magnitude (a.u.)       :      1.321190369
Magnitude (Debye)      :      3.358199038

Rotational constants in cm-1:             2.398194             0.306814             0.286349
Rotational constants in MHz :         71896.052412          9198.045662          8584.523193

                             ****ORCA TERMINATED NORMALLY****
TOTAL RUN TIME: 0 days 0 hours 0 minutes 16 seconds 573 msec
