                         Program Version 6.0.0  -   RELEASE  -
|  1> ! Opt wB97M-D3BJ def2-TZVPPD
|  2> %pal nprocs 8 end %pal nprocs 64 end
|  3> %geom
|  4> Constraints
|  5>     {A 2 1 0 77.27272727272728 C }
|  6> end
|  7> MaxIter 500
|  8> end
|  9> *xyz 0 1
| 10> O   -0.0007 0.8141 0.0
| 11> C   0.7509 -0.4065 0.0
| 12> C   -0.7502 -0.4076 0.0
| 13> H   1.2625 -0.6786 0.9136
| 14> H   1.2625 -0.6787 -0.9136
| 15> H   -1.2614 -0.6806 -0.9136
| 16> H   -1.2614 -0.6805 0.9136
| 17> *
| 18>
| 19>                          ****END OF INPUT****
 Total Charge           Charge          ....    0
 Multiplicity           Mult            ....    1
 Number of Electrons    NEL             ....   24
Dispersion correction           -0.005307713
FINAL SINGLE POINT ENERGY      -153.848899231336
Dispersion correction             ... done (  0.1 sec)
Dispersion correction           -0.005277857
FINAL SINGLE POINT ENERGY      -153.855951515431
Dispersion correction             ... done (  0.1 sec)
Dispersion correction           -0.005271611
FINAL SINGLE POINT ENERGY      -153.858351487863
Dispersion correction             ... done (  0.2 sec)
FINAL SINGLE POINT ENERGY      -153.858767196587
FINAL SINGLE POINT ENERGY      -153.858893114524
FINAL SINGLE POINT ENERGY      -153.858925317642
Dispersion correction             ... done (  0.1 sec)
Dispersion correction           -0.005281018
FINAL SINGLE POINT ENERGY      -153.858931570320
Dispersion correction             ... done (  0.1 sec)
Dispersion correction           -0.005281371
FINAL SINGLE POINT ENERGY      -153.858933491943
Dispersion correction             ... done (  0.1 sec)
                    ***********************HURRAY********************

CARTESIAN COORDINATES (ANGSTROEM)
---------------------------------
  O      0.158863    0.891745   -0.000533
  C      0.667269   -0.362808   -0.000035
  C     -0.730278   -0.592490    0.000076
  H      1.222472   -0.649135    0.896421
  H      1.222333   -0.649359   -0.896506
  H     -1.269429   -0.679217   -0.927884
  H     -1.269031   -0.677136    0.928460

 Multiplicity           Mult            ....    1
 Number of Electrons    NEL             ....   24
 Basis Dimension        Dim             ....  182

ORBITAL ENERGIES
----------------

  NO   OCC          E(Eh)            E(eV)
   0   2.0000     -19.344989      -526.4039
   1   2.0000     -10.414242      -283.3859
   2   2.0000     -10.396568      -282.9050
   3   2.0000      -1.168589       -31.7989
   4   2.0000      -0.843240       -22.9457
   5   2.0000      -0.740221       -20.1424
   6   2.0000      -0.627653       -17.0793
   7   2.0000      -0.587721       -15.9927
   8   2.0000      -0.504371       -13.7246
   9   2.0000      -0.498668       -13.5695
  10   2.0000      -0.409681       -11.1480
  11   2.0000      -0.373919       -10.1748
  12   0.0000       0.032924         0.8959
  13   0.0000       0.048197         1.3115
  14   0.0000       0.061055         1.6614
  15   0.0000       0.076885         2.0921
  16   0.0000       0.103683         2.8214

MULLIKEN ATOMIC CHARGES
-----------------------
   0 O :   -0.432480
   1 C :   -0.098523
   2 C :   -0.287003
   3 H :    0.205598
   4 H :    0.205599
   5 H :    0.203318
   6 H :    0.203492
Sum of atomic charges:    0.0000000

LOEWDIN ATOMIC CHARGES
----------------------
   0 O :   -0.025137
   1 C :   -0.246973
   2 C :    0.227014
   3 H :    0.024266
   4 H :    0.024268
   5 H :   -0.001711
   6 H :   -0.001728

  Mayer bond orders larger than 0.100000
B(  0-O ,  1-C ) :   0.6974 B(  0-O ,  2-C ) :   0.9250 B(  1-C ,  2-C ) :   0.7824
B(  1-C ,  3-H ) :   1.0500 B(  1-C ,  4-H ) :   1.0499 B(  2-C ,  5-H ) :   0.9756
B(  2-C ,  6-H ) :   0.9756

Dispersion correction           -0.005281409
FINAL SINGLE POINT ENERGY      -153.858934196140

DIPOLE MOMENT
-------------

Method             : SCF
Type of density    : Electron Density
Multiplicity       :   1
Irrep              :   0
Energy             :  -153.8536527872456645 Eh
Relativity type    :
Basis              : AO
                                X                 Y                 Z
Electronic contribution:      0.024572186       1.509418252      -0.000728729
Nuclear contribution   :     -0.230085764      -2.487521722       0.001098868
                        -----------------------------------------
Total Dipole Moment    :     -0.205513578      -0.978103470       0.000370139
                        -----------------------------------------
Magnitude (a.u.)       :      0.999461038
Magnitude (Debye)      :      2.540428067

Rotational constants in cm-1:             0.942021             0.613725             0.436172
Rotational constants in MHz :         28241.081732         18399.007053         13076.113125

                             ****ORCA TERMINATED NORMALLY****
TOTAL RUN TIME: 0 days 0 hours 2 minutes 2 seconds 386 msec
