                         Program Version 6.0.0  -   RELEASE  -
|  1> ! Opt wB97M-D3BJ def2-TZVPPD
|  2> %pal nprocs 8 end %pal nprocs 64 end
|  3> %geom
|  4> Constraints
|  5>     {A 2 1 0 80.0 C }
|  6> end
|  7> MaxIter 500
|  8> end
|  9> *xyz 0 1
| 10> O   -0.0007 0.8141 0.0
| 11> C   0.7509 -0.4065 0.0
| 12> C   -0.7502 -0.4076 0.0
| 13> H   1.2625 -0.6786 0.9136
| 14> H   1.2625 -0.6787 -0.9136
| 15> H   -1.2614 -0.6806 -0.9136
| 16> H   -1.2614 -0.6805 0.9136
| 17> *
| 18>
| 19>                          ****END OF INPUT****
 Total Charge           Charge          ....    0
 Multiplicity           Mult            ....    1
 Number of Electrons    NEL             ....   24
Dispersion correction           -0.005341628
FINAL SINGLE POINT ENERGY      -153.838756947945
Dispersion correction             ... done (  0.2 sec)
Dispersion correction           -0.005324584
FINAL SINGLE POINT ENERGY      -153.847914261820
Dispersion correction             ... done (  0.1 sec)
Dispersion correction           -0.005330750
FINAL SINGLE POINT ENERGY      -153.851067586396
Dispersion correction             ... done (  0.1 sec)
FINAL SINGLE POINT ENERGY      -153.851705764012
FINAL SINGLE POINT ENERGY      -153.851878937376
FINAL SINGLE POINT ENERGY      -153.851930008357
Dispersion correction             ... done (  0.1 sec)
Dispersion correction           -0.005340988
FINAL SINGLE POINT ENERGY      -153.851941511262
Dispersion correction             ... done (  0.1 sec)
Dispersion correction           -0.005341611
FINAL SINGLE POINT ENERGY      -153.851945560898
Dispersion correction             ... done (  0.2 sec)
                    ***********************HURRAY********************

CARTESIAN COORDINATES (ANGSTROEM)
---------------------------------
  O      0.184818    0.910222   -0.000692
  C      0.660507   -0.352852   -0.000044
  C     -0.731506   -0.614290    0.000054
  H      1.216912   -0.647420    0.894348
  H      1.216772   -0.647785   -0.894416
  H     -1.273013   -0.684512   -0.928139
  H     -1.272290   -0.681764    0.928888

 Multiplicity           Mult            ....    1
 Number of Electrons    NEL             ....   24
 Basis Dimension        Dim             ....  182

ORBITAL ENERGIES
----------------

  NO   OCC          E(Eh)            E(eV)
   0   2.0000     -19.343418      -526.3612
   1   2.0000     -10.417746      -283.4813
   2   2.0000     -10.396545      -282.9044
   3   2.0000      -1.162808       -31.6416
   4   2.0000      -0.849009       -23.1027
   5   2.0000      -0.738579       -20.0977
   6   2.0000      -0.627101       -17.0643
   7   2.0000      -0.585977       -15.9453
   8   2.0000      -0.507092       -13.7987
   9   2.0000      -0.500775       -13.6268
  10   2.0000      -0.404100       -10.9961
  11   2.0000      -0.371477       -10.1084
  12   0.0000       0.024063         0.6548
  13   0.0000       0.044726         1.2171
  14   0.0000       0.060763         1.6534
  15   0.0000       0.076775         2.0892
  16   0.0000       0.101504         2.7621

MULLIKEN ATOMIC CHARGES
-----------------------
   0 O :   -0.444523
   1 C :   -0.091950
   2 C :   -0.299523
   3 H :    0.209517
   4 H :    0.209491
   5 H :    0.208367
   6 H :    0.208621
Sum of atomic charges:    0.0000000

LOEWDIN ATOMIC CHARGES
----------------------
   0 O :   -0.023186
   1 C :   -0.273744
   2 C :    0.253831
   3 H :    0.024671
   4 H :    0.024674
   5 H :   -0.003112
   6 H :   -0.003135

  Mayer bond orders larger than 0.100000
B(  0-O ,  1-C ) :   0.6833 B(  0-O ,  2-C ) :   0.9359 B(  1-C ,  2-C ) :   0.7753
B(  1-C ,  3-H ) :   1.0512 B(  1-C ,  4-H ) :   1.0510 B(  2-C ,  5-H ) :   0.9709
B(  2-C ,  6-H ) :   0.9709

Dispersion correction           -0.005341960
FINAL SINGLE POINT ENERGY      -153.851947508303

DIPOLE MOMENT
-------------

Method             : SCF
Type of density    : Electron Density
Multiplicity       :   1
Irrep              :   0
Energy             :  -153.8466055481075898 Eh
Relativity type    :
Basis              : AO
                                X                 Y                 Z
Electronic contribution:      0.030475168       1.488834430      -0.001023044
Nuclear contribution   :     -0.272312132      -2.506013113       0.001507352
                        -----------------------------------------
Total Dipole Moment    :     -0.241836965      -1.017178683       0.000484308
                        -----------------------------------------
Magnitude (a.u.)       :      1.045532316
Magnitude (Debye)      :      2.657531950

Rotational constants in cm-1:             0.965180             0.587841             0.427407
Rotational constants in MHz :         28935.355671         17623.015795         12813.350066

                             ****ORCA TERMINATED NORMALLY****
TOTAL RUN TIME: 0 days 0 hours 2 minutes 3 seconds 367 msec
