                         Program Version 6.0.0  -   RELEASE  -
|  1> ! Engrad def2-TZVPPD wB97M-D3BJ
|  2> %pal nprocs 8 end%pal nprocs 64 end
|  3> %tddft Nroots 2 Iroot 1
|  4> sf true
|  5> end
|  6> *xyz 0 3
|  7> O   2.93566334 1.25264588 -0.48900982
|  8> O   -0.52792682 0.42688911 -1.87901524
|  9> O   1.40537721 -2.83694797 -1.77105731
| 10> O   -3.13217662 -1.37083649 1.36715996
| 11> N   0.74076053 -1.99618445 0.23504341
| 12> N   -2.33168007 0.74199073 1.65801533
| 13> N   2.1985655 -0.81032236 -1.08696879
| 14> N   -1.93085163 -0.38888668 -0.30259174
| 15> C   1.44733406 0.16162349 0.98685473
| 16> C   -0.9055086 1.76762067 0.04688617
| 17> C   0.75324919 -1.00602427 1.17608058
| 18> C   -1.5813013 1.8063296 1.19888671
| 19> C   1.55752653 1.2094798 2.03640495
| 20> C   -0.09776976 2.90869146 -0.48585109
| 21> C   2.24242108 0.28076763 -0.22119334
| 22> C   -1.06824894 0.58944961 -0.80781249
| 23> C   1.44557118 -1.94900501 -0.95355483
| 24> C   -2.51738803 -0.42073646 0.94214533
| 25> H   0.1754532 -1.18847808 2.05489626
| 26> H   -1.54008128 2.65601372 1.85661328
| 27> H   1.36830153 2.19139061 1.61364719
| 28> H   0.86411061 1.02077742 2.85524941
| 29> H   2.577758 1.23271691 2.42902131
| 30> H   -0.49133152 3.23031278 -1.43996047
| 31> H   -0.11182747 3.74692431 0.2011532
| 32> H   0.93804943 2.62318872 -0.65537896
| 33> H   0.18996978 -2.83650964 0.37897145
| 34> H   -2.7815549 0.77772917 2.54404122
| 35> H   2.68451423 -0.70269921 -1.95961393
| 36> H   -2.04575886 -1.22156304 -0.86837282
| 37> *
| 38>
| 39>                          ****END OF INPUT****

CARTESIAN COORDINATES (ANGSTROEM)
---------------------------------
  O      2.935663    1.252646   -0.489010
  O     -0.527927    0.426889   -1.879015
  O      1.405377   -2.836948   -1.771057
  O     -3.132177   -1.370836    1.367160
  N      0.740761   -1.996184    0.235043
  N     -2.331680    0.741991    1.658015
  N      2.198565   -0.810322   -1.086969
  N     -1.930852   -0.388887   -0.302592
  C      1.447334    0.161623    0.986855
  C     -0.905509    1.767621    0.046886
  C      0.753249   -1.006024    1.176081
  C     -1.581301    1.806330    1.198887
  C      1.557527    1.209480    2.036405
  C     -0.097770    2.908691   -0.485851
  C      2.242421    0.280768   -0.221193
  C     -1.068249    0.589450   -0.807812
  C      1.445571   -1.949005   -0.953555
  C     -2.517388   -0.420736    0.942145
  H      0.175453   -1.188478    2.054896
  H     -1.540081    2.656014    1.856613
  H      1.368302    2.191391    1.613647
  H      0.864111    1.020777    2.855249
  H      2.577758    1.232717    2.429021
  H     -0.491332    3.230313   -1.439960
  H     -0.111827    3.746924    0.201153
  H      0.938049    2.623189   -0.655379
  H      0.189970   -2.836510    0.378971
  H     -2.781555    0.777729    2.544041
  H      2.684514   -0.702699   -1.959614
  H     -2.045759   -1.221563   -0.868373

 Total Charge           Charge          ....    0
 Multiplicity           Mult            ....    3
 Number of Electrons    NEL             ....  132
 Basis Dimension        Dim             ....  882

ORBITAL ENERGIES
----------------
                 SPIN UP ORBITALS
  NO   OCC          E(Eh)            E(eV)
   0   1.0000     -19.329403      -525.9798
   1   1.0000     -19.327267      -525.9217
   2   1.0000     -19.326246      -525.8939
   3   1.0000     -19.317881      -525.6663
   4   1.0000     -14.589867      -397.0105
   5   1.0000     -14.585876      -396.9019
   6   1.0000     -14.572314      -396.5328
   7   1.0000     -14.546543      -395.8316
   8   1.0000     -10.515568      -286.1432
   9   1.0000     -10.504462      -285.8409
  10   1.0000     -10.482324      -285.2385
  11   1.0000     -10.456617      -284.5390
  12   1.0000     -10.435503      -283.9645
  13   1.0000     -10.407727      -283.2086
  14   1.0000     -10.395342      -282.8716
  15   1.0000     -10.383705      -282.5550
  16   1.0000     -10.369328      -282.1638
  17   1.0000     -10.351866      -281.6886
  18   1.0000      -1.229610       -33.4594
  19   1.0000      -1.221225       -33.2312
  20   1.0000      -1.197857       -32.5953
  21   1.0000      -1.183536       -32.2057
  22   1.0000      -1.125856       -30.6361
  23   1.0000      -1.120867       -30.5003
  24   1.0000      -1.072004       -29.1707
  25   1.0000      -1.057767       -28.7833
  26   1.0000      -0.972440       -26.4614
  27   1.0000      -0.958808       -26.0905
  28   1.0000      -0.855858       -23.2891
  29   1.0000      -0.849849       -23.1256
  30   1.0000      -0.813807       -22.1448
  31   1.0000      -0.810203       -22.0468
  32   1.0000      -0.797175       -21.6922
  33   1.0000      -0.785411       -21.3721
  34   1.0000      -0.698591       -19.0096
  35   1.0000      -0.697294       -18.9743
  36   1.0000      -0.694632       -18.9019
  37   1.0000      -0.689674       -18.7670
  38   1.0000      -0.644730       -17.5440
  39   1.0000      -0.638049       -17.3622
  40   1.0000      -0.630742       -17.1634
  41   1.0000      -0.605864       -16.4864
  42   1.0000      -0.601027       -16.3548
  43   1.0000      -0.591020       -16.0825
  44   1.0000      -0.575100       -15.6493
  45   1.0000      -0.569395       -15.4940
  46   1.0000      -0.565235       -15.3808
  47   1.0000      -0.554846       -15.0981
  48   1.0000      -0.551055       -14.9950
  49   1.0000      -0.541039       -14.7224
  50   1.0000      -0.530396       -14.4328
  51   1.0000      -0.526005       -14.3133
  52   1.0000      -0.520856       -14.1732
  53   1.0000      -0.516639       -14.0585
  54   1.0000      -0.509727       -13.8704
  55   1.0000      -0.501396       -13.6437
  56   1.0000      -0.488645       -13.2967
  57   1.0000      -0.480318       -13.0701
  58   1.0000      -0.422342       -11.4925
  59   1.0000      -0.415143       -11.2966
  60   1.0000      -0.408671       -11.1205
  61   1.0000      -0.396444       -10.7878
  62   1.0000      -0.390897       -10.6368
  63   1.0000      -0.385471       -10.4892
  64   1.0000      -0.382563       -10.4101
  65   1.0000      -0.347853        -9.4656
  66   1.0000      -0.212578        -5.7845
  67   0.0000       0.010622         0.2891
  68   0.0000       0.018398         0.5006
  69   0.0000       0.028439         0.7739
  70   0.0000       0.037667         1.0250
  71   0.0000       0.041528         1.1300

                 SPIN DOWN ORBITALS
  NO   OCC          E(Eh)            E(eV)
   0   1.0000     -19.329351      -525.9784
   1   1.0000     -19.327328      -525.9233
   2   1.0000     -19.324296      -525.8408
   3   1.0000     -19.311616      -525.4958
   4   1.0000     -14.585667      -396.8962
   5   1.0000     -14.584808      -396.8728
   6   1.0000     -14.572272      -396.5317
   7   1.0000     -14.545686      -395.8082
   8   1.0000     -10.515563      -286.1430
   9   1.0000     -10.504874      -285.8521
  10   1.0000     -10.482287      -285.2375
  11   1.0000     -10.456384      -284.5327
  12   1.0000     -10.435009      -283.9510
  13   1.0000     -10.398186      -282.9490
  14   1.0000     -10.385031      -282.5911
  15   1.0000     -10.383801      -282.5576
  16   1.0000     -10.369809      -282.1768
  17   1.0000     -10.351847      -281.6881
  18   1.0000      -1.229426       -33.4544
  19   1.0000      -1.216934       -33.1145
  20   1.0000      -1.197861       -32.5955
  21   1.0000      -1.174280       -31.9538
  22   1.0000      -1.125445       -30.6249
  23   1.0000      -1.110047       -30.2059
  24   1.0000      -1.071783       -29.1647
  25   1.0000      -1.052296       -28.6344
  26   1.0000      -0.962364       -26.1873
  27   1.0000      -0.945603       -25.7312
  28   1.0000      -0.849649       -23.1201
  29   1.0000      -0.844248       -22.9731
  30   1.0000      -0.813161       -22.1272
  31   1.0000      -0.799304       -21.7502
  32   1.0000      -0.796558       -21.6754
  33   1.0000      -0.779036       -21.1986
  34   1.0000      -0.698236       -19.0000
  35   1.0000      -0.695589       -18.9279
  36   1.0000      -0.685013       -18.6402
  37   1.0000      -0.681134       -18.5346
  38   1.0000      -0.644320       -17.5328
  39   1.0000      -0.629345       -17.1254
  40   1.0000      -0.622710       -16.9448
  41   1.0000      -0.601400       -16.3649
  42   1.0000      -0.593855       -16.1596
  43   1.0000      -0.582573       -15.8526
  44   1.0000      -0.569814       -15.5054
  45   1.0000      -0.562596       -15.3090
  46   1.0000      -0.559145       -15.2151
  47   1.0000      -0.553695       -15.0668
  48   1.0000      -0.544311       -14.8115
  49   1.0000      -0.536475       -14.5982
  50   1.0000      -0.522279       -14.2119
  51   1.0000      -0.519603       -14.1391
  52   1.0000      -0.514402       -13.9976
  53   1.0000      -0.507642       -13.8136
  54   1.0000      -0.501780       -13.6541
  55   1.0000      -0.496297       -13.5049
  56   1.0000      -0.478643       -13.0245
  57   1.0000      -0.445421       -12.1205
  58   1.0000      -0.422045       -11.4844
  59   1.0000      -0.410802       -11.1785
  60   1.0000      -0.403938       -10.9917
  61   1.0000      -0.390710       -10.6318
  62   1.0000      -0.376684       -10.2501
  63   1.0000      -0.374292       -10.1850
  64   1.0000      -0.349473        -9.5097
  65   0.0000      -0.100944        -2.7468
  66   0.0000       0.010272         0.2795
  67   0.0000       0.020881         0.5682
  68   0.0000       0.026748         0.7278
  69   0.0000       0.034596         0.9414

----------------------------------------------------------------------------------------------------
          SPIN FLIP ABSORPTION SPECTRUM VIA TRANSITION ELECTRIC DIPOLE MOMENTS
----------------------------------------------------------------------------------------------------
     Transition      Energy     Energy  Wavelength fosc(D2)      D2        DX        DY        DZ
                      (eV)      (cm-1)    (nm)                 (au**2)    (au)      (au)      (au)
----------------------------------------------------------------------------------------------------
  1-3A  ->  2-3A    3.937186   31755.6   314.9   0.001317487   0.01366  -0.05293  -0.08084   0.06573

Dispersion correction             ... done (  0.1 sec)

MULLIKEN ATOMIC CHARGES AND SPIN DENSITIES
------------------------------------------
   0 O :   -0.707993    0.031944
   1 O :   -0.657954   -0.000614
   2 O :   -0.651157    0.008136
   3 O :   -0.662870    0.000151
   4 N :   -0.039888    0.052553
   5 N :   -0.003567   -0.000196
   6 N :    0.005498    0.000830
   7 N :   -0.026204   -0.004607
   8 C :    1.110439    0.427412
   9 C :    0.440311   -0.008554
  10 C :   -0.366231   -0.359697
  11 C :    0.201846   -0.018400
  12 C :   -1.510272   -0.008699
  13 C :   -1.459720    0.018452
  14 C :    0.280510   -0.216958
  15 C :    0.538927    0.016960
  16 C :    0.531220    0.019904
  17 C :    0.476381   -0.002756
  18 H :    0.306620    0.034561
  19 H :    0.190390   -0.001903
  20 H :    0.227330    0.000023
  21 H :    0.310517    0.008966
  22 H :    0.421475    0.008084
  23 H :    0.381754    0.000731
  24 H :    0.328470    0.001398
  25 H :    0.205227   -0.006806
  26 H :    0.048593   -0.001300
  27 H :    0.001562   -0.000224
  28 H :    0.027335    0.002695
  29 H :    0.051451   -0.002091
Sum of atomic charges       :    0.0000000

LOEWDIN ATOMIC CHARGES AND SPIN DENSITIES
-----------------------------------------
   0 O :    0.065844    0.028700
   1 O :    0.107311    0.000545
   2 O :    0.095328    0.006777
   3 O :    0.079190    0.000054
   4 N :    0.286771    0.023270
   5 N :    0.288323    0.000330
   6 N :    0.344230   -0.000797
   7 N :    0.330639   -0.001025
   8 C :   -0.138558   -0.032879
   9 C :   -0.149505   -0.000484
  10 C :    0.068299   -0.029961
  11 C :    0.049788   -0.001047
  12 C :    0.170712   -0.003215
  13 C :    0.187864    0.000182
  14 C :   -0.406802    0.009845
  15 C :   -0.398310   -0.000552
  16 C :   -0.473847    0.000556
  17 C :   -0.493134   -0.000224
  18 H :    0.028371   -0.002339
  19 H :    0.036022   -0.000050
  20 H :   -0.019552   -0.000134
  21 H :   -0.002847    0.000295
  22 H :    0.010077   -0.000276
  23 H :    0.000335    0.000027
  24 H :   -0.003896    0.000007
  25 H :   -0.021750    0.000161
  26 H :   -0.001261    0.002122
  27 H :   -0.032877    0.000026
  28 H :   -0.005566    0.000159
  29 H :   -0.001199   -0.000073

  Mayer bond orders larger than 0.100000
B(  0-O , 14-C ) :   1.3806 B(  1-O , 15-C ) :   1.4215 B(  2-O , 16-C ) :   1.5608
B(  3-O , 17-C ) :   1.5554 B(  4-N , 10-C ) :   0.9547 B(  4-N , 16-C ) :   0.9951
B(  4-N , 26-H ) :   1.1338 B(  5-N , 11-C ) :   0.9710 B(  5-N , 17-C ) :   1.0358
B(  5-N , 27-H ) :   1.1559 B(  6-N , 14-C ) :   1.0466 B(  6-N , 16-C ) :   0.9918
B(  6-N , 28-H ) :   1.1014 B(  7-N , 15-C ) :   1.0270 B(  7-N , 17-C ) :   0.9577
B(  7-N , 29-H ) :   1.0931 B(  8-C , 10-C ) :   0.9492 B(  8-C , 12-C ) :   0.2607
B(  8-C , 14-C ) :   0.5784 B(  8-C , 15-C ) :  -0.1026 B(  8-C , 18-H ) :  -0.1213
B(  8-C , 20-H ) :  -0.1053 B(  9-C , 11-C ) :   1.0260 B(  9-C , 13-C ) :   0.4098
B(  9-C , 15-C ) :   0.8067 B(  9-C , 24-H ) :  -0.1099 B(  9-C , 25-H ) :  -0.1052
B( 10-C , 12-C ) :  -0.1347 B( 10-C , 18-H ) :   1.0722 B( 11-C , 13-C ) :  -0.2556
B( 11-C , 19-H ) :   1.0669 B( 12-C , 20-H ) :   1.0487 B( 12-C , 21-H ) :   1.0387
B( 12-C , 22-H ) :   0.8167 B( 13-C , 23-H ) :   0.8610 B( 13-C , 24-H ) :   1.0739
B( 13-C , 25-H ) :   0.9800

Dispersion correction           -0.058892869
FINAL SINGLE POINT ENERGY      -908.920369503329

DIPOLE MOMENT
-------------

Method             : TDA/CIS
Type of density    : Electron Density
Level              : Relaxed density
State              :   1
Multiplicity       :   3
Irrep              :   0
Energy             :     0.0000000000000000 Eh
Relativity type    :
Basis              : AO
                                X                 Y                 Z
Electronic contribution:     -2.220625881      -9.881544632      -5.396528624
Nuclear contribution   :      1.289097847      10.719111626       7.567298101
                        -----------------------------------------
Total Dipole Moment    :     -0.931528034       0.837566994       2.170769477
                        -----------------------------------------
Magnitude (a.u.)       :      2.506292694
Magnitude (Debye)      :      6.370489758

Rotational constants in cm-1:             0.019767             0.013933             0.011156
Rotational constants in MHz :           592.601112           417.686903           334.453487

                             ****ORCA TERMINATED NORMALLY****
TOTAL RUN TIME: 0 days 0 hours 5 minutes 22 seconds 567 msec
