                         Program Version 6.0.0  -   RELEASE  -
|  1> ! Engrad def2-TZVPPD wB97M-D3BJ
|  2> %pal nprocs 8 end%pal nprocs 64 end
|  3>  %tddft nroots 2 Iroot 1
|  4> sf true
|  5> end
|  6> *xyz 0 3
|  7> O   3.43874003245525 0.67045564299823 -0.18265848272724
|  8> O   -0.77144726389179 0.86160969627161 -2.52856447284361
|  9> O   0.71541468778718 -2.82234277763708 -1.17433642436403
| 10> O   -3.57703035369704 -1.07593261979327 0.42504332739258
| 11> N   0.21968726628326 -1.57668810113861 0.65146642794561
| 12> N   -2.01272975057627 0.35804280882918 1.26304901200763
| 13> N   2.08516214819129 -1.0886981974883 -0.64706720714268
| 14> N   -1.97125802875964 -0.29984688178165 -0.9824901419767
| 15> C   1.5303626676591 0.39713234023085 1.17657263074453
| 16> C   -0.52418881678496 1.43599015518106 -0.23395658767707
| 17> C   0.33904988437573 -0.39338197681596 1.45413931122714
| 18> C   -0.57953839711395 0.74622779037861 1.13984435343987
| 19> C   1.99103897942439 1.46489598398171 2.0913481626825
| 20> C   -0.41483084239848 2.90367344376768 -0.32965504608503
| 21> C   2.43554272686112 0.03613062306719 0.0793741830208
| 22> C   -1.0440083707312 0.66128529978515 -1.36601193504826
| 23> C   0.97355525849061 -1.89355047220881 -0.44475784769595
| 24> C   -2.59314889586292 -0.38842315198957 0.26658970919752
| 25> H   0.25346600336166 -0.65621153890997 2.51293819093483
| 26> H   -0.42284356875786 1.5156339304286 1.8893175752831
| 27> H   1.7673307261 2.45934270466593 1.68912293725735
| 28> H   1.52707716638535 1.38510823930196 3.07232403243493
| 29> H   3.07449643953731 1.42358727566229 2.18156829149745
| 30> H   -1.29835430592515 3.38850028183659 0.10130420102064
| 31> H   0.44800481790614 3.27345140480455 0.23061904991942
| 32> H   -0.32842909477207 3.20869935895823 -1.36839052540841
| 33> H   -0.60801386113996 -2.13862405437344 0.74667026540255
| 34> H   -2.44779139765716 0.21269124216491 2.15964354415058
| 35> H   2.64554060619577 -1.30919646900504 -1.45354092507657
| 36> H   -2.39825646294574 -0.84456198117265 -1.71490560951348
| 37> *
| 38>
| 39>                          ****END OF INPUT****

CARTESIAN COORDINATES (ANGSTROEM)
---------------------------------
  O      3.438740    0.670456   -0.182658
  O     -0.771447    0.861610   -2.528564
  O      0.715415   -2.822343   -1.174336
  O     -3.577030   -1.075933    0.425043
  N      0.219687   -1.576688    0.651466
  N     -2.012730    0.358043    1.263049
  N      2.085162   -1.088698   -0.647067
  N     -1.971258   -0.299847   -0.982490
  C      1.530363    0.397132    1.176573
  C     -0.524189    1.435990   -0.233957
  C      0.339050   -0.393382    1.454139
  C     -0.579538    0.746228    1.139844
  C      1.991039    1.464896    2.091348
  C     -0.414831    2.903673   -0.329655
  C      2.435543    0.036131    0.079374
  C     -1.044008    0.661285   -1.366012
  C      0.973555   -1.893550   -0.444758
  C     -2.593149   -0.388423    0.266590
  H      0.253466   -0.656212    2.512938
  H     -0.422844    1.515634    1.889318
  H      1.767331    2.459343    1.689123
  H      1.527077    1.385108    3.072324
  H      3.074496    1.423587    2.181568
  H     -1.298354    3.388500    0.101304
  H      0.448005    3.273451    0.230619
  H     -0.328429    3.208699   -1.368391
  H     -0.608014   -2.138624    0.746670
  H     -2.447791    0.212691    2.159644
  H      2.645541   -1.309196   -1.453541
  H     -2.398256   -0.844562   -1.714906

 Total Charge           Charge          ....    0
 Multiplicity           Mult            ....    3
 Number of Electrons    NEL             ....  132
 Basis Dimension        Dim             ....  882

ORBITAL ENERGIES
----------------
                 SPIN UP ORBITALS
  NO   OCC          E(Eh)            E(eV)
   0   1.0000     -19.335008      -526.1323
   1   1.0000     -19.330854      -526.0193
   2   1.0000     -19.323760      -525.8263
   3   1.0000     -19.317429      -525.6540
   4   1.0000     -14.563232      -396.2857
   5   1.0000     -14.562614      -396.2689
   6   1.0000     -14.561744      -396.2452
   7   1.0000     -14.561081      -396.2272
   8   1.0000     -10.507086      -285.9124
   9   1.0000     -10.505048      -285.8569
  10   1.0000     -10.482304      -285.2380
  11   1.0000     -10.480702      -285.1944
  12   1.0000     -10.447999      -284.3045
  13   1.0000     -10.442104      -284.1441
  14   1.0000     -10.419084      -283.5177
  15   1.0000     -10.415759      -283.4272
  16   1.0000     -10.378983      -282.4265
  17   1.0000     -10.375931      -282.3434
  18   1.0000      -1.222689       -33.2711
  19   1.0000      -1.218319       -33.1522
  20   1.0000      -1.199581       -32.6423
  21   1.0000      -1.196164       -32.5493
  22   1.0000      -1.123950       -30.5842
  23   1.0000      -1.098309       -29.8865
  24   1.0000      -1.067613       -29.0512
  25   1.0000      -1.057938       -28.7880
  26   1.0000      -1.001161       -27.2430
  27   1.0000      -0.953776       -25.9536
  28   1.0000      -0.897378       -24.4189
  29   1.0000      -0.842262       -22.9191
  30   1.0000      -0.830629       -22.6026
  31   1.0000      -0.802040       -21.8246
  32   1.0000      -0.787137       -21.4191
  33   1.0000      -0.783956       -21.3325
  34   1.0000      -0.708987       -19.2925
  35   1.0000      -0.698421       -19.0050
  36   1.0000      -0.695444       -18.9240
  37   1.0000      -0.677798       -18.4438
  38   1.0000      -0.660159       -17.9638
  39   1.0000      -0.637620       -17.3505
  40   1.0000      -0.625131       -17.0107
  41   1.0000      -0.600887       -16.3510
  42   1.0000      -0.595536       -16.2054
  43   1.0000      -0.589007       -16.0277
  44   1.0000      -0.583391       -15.8749
  45   1.0000      -0.576009       -15.6740
  46   1.0000      -0.566816       -15.4239
  47   1.0000      -0.565149       -15.3785
  48   1.0000      -0.557983       -15.1835
  49   1.0000      -0.554719       -15.0947
  50   1.0000      -0.549258       -14.9461
  51   1.0000      -0.546653       -14.8752
  52   1.0000      -0.536559       -14.6005
  53   1.0000      -0.524383       -14.2692
  54   1.0000      -0.514509       -14.0005
  55   1.0000      -0.511479       -13.9181
  56   1.0000      -0.496048       -13.4982
  57   1.0000      -0.424711       -11.5570
  58   1.0000      -0.421462       -11.4686
  59   1.0000      -0.411637       -11.2012
  60   1.0000      -0.404546       -11.0083
  61   1.0000      -0.399926       -10.8826
  62   1.0000      -0.393591       -10.7102
  63   1.0000      -0.390659       -10.6304
  64   1.0000      -0.383390       -10.4326
  65   1.0000      -0.350551        -9.5390
  66   1.0000      -0.318653        -8.6710
  67   0.0000       0.007051         0.1919
  68   0.0000       0.027955         0.7607
  69   0.0000       0.032870         0.8944
  70   0.0000       0.035733         0.9723
  71   0.0000       0.054386         1.4799

                 SPIN DOWN ORBITALS
  NO   OCC          E(Eh)            E(eV)
   0   1.0000     -19.331590      -526.0393
   1   1.0000     -19.327149      -525.9185
   2   1.0000     -19.323418      -525.8169
   3   1.0000     -19.317448      -525.6545
   4   1.0000     -14.561852      -396.2481
   5   1.0000     -14.561836      -396.2477
   6   1.0000     -14.561463      -396.2375
   7   1.0000     -14.561018      -396.2254
   8   1.0000     -10.507103      -285.9128
   9   1.0000     -10.505099      -285.8583
  10   1.0000     -10.483252      -285.2638
  11   1.0000     -10.481464      -285.2151
  12   1.0000     -10.447280      -284.2849
  13   1.0000     -10.442271      -284.1486
  14   1.0000     -10.406654      -283.1795
  15   1.0000     -10.404159      -283.1116
  16   1.0000     -10.379585      -282.4429
  17   1.0000     -10.376546      -282.3602
  18   1.0000      -1.220927       -33.2231
  19   1.0000      -1.216726       -33.1088
  20   1.0000      -1.195384       -32.5281
  21   1.0000      -1.191933       -32.4342
  22   1.0000      -1.120562       -30.4920
  23   1.0000      -1.095874       -29.8202
  24   1.0000      -1.065594       -28.9963
  25   1.0000      -1.056104       -28.7381
  26   1.0000      -0.989052       -26.9135
  27   1.0000      -0.936572       -25.4854
  28   1.0000      -0.890840       -24.2410
  29   1.0000      -0.836651       -22.7664
  30   1.0000      -0.821663       -22.3586
  31   1.0000      -0.797147       -21.6915
  32   1.0000      -0.785450       -21.3732
  33   1.0000      -0.781992       -21.2791
  34   1.0000      -0.703989       -19.1565
  35   1.0000      -0.690266       -18.7831
  36   1.0000      -0.687739       -18.7143
  37   1.0000      -0.668525       -18.1915
  38   1.0000      -0.650060       -17.6890
  39   1.0000      -0.633991       -17.2518
  40   1.0000      -0.620632       -16.8882
  41   1.0000      -0.596048       -16.2193
  42   1.0000      -0.589197       -16.0329
  43   1.0000      -0.583852       -15.8874
  44   1.0000      -0.576405       -15.6848
  45   1.0000      -0.566167       -15.4062
  46   1.0000      -0.563211       -15.3258
  47   1.0000      -0.562101       -15.2955
  48   1.0000      -0.551585       -15.0094
  49   1.0000      -0.545556       -14.8453
  50   1.0000      -0.541638       -14.7387
  51   1.0000      -0.537908       -14.6372
  52   1.0000      -0.531065       -14.4510
  53   1.0000      -0.515593       -14.0300
  54   1.0000      -0.509097       -13.8532
  55   1.0000      -0.503950       -13.7132
  56   1.0000      -0.489312       -13.3149
  57   1.0000      -0.419486       -11.4148
  58   1.0000      -0.418223       -11.3804
  59   1.0000      -0.407079       -11.0772
  60   1.0000      -0.393961       -10.7202
  61   1.0000      -0.390177       -10.6173
  62   1.0000      -0.388526       -10.5723
  63   1.0000      -0.385674       -10.4947
  64   1.0000      -0.375796       -10.2259
  65   0.0000      -0.067057        -1.8247
  66   0.0000      -0.031448        -0.8557
  67   0.0000       0.006468         0.1760
  68   0.0000       0.027902         0.7593
  69   0.0000       0.032671         0.8890

----------------------------------------------------------------------------------------------------
          SPIN FLIP ABSORPTION SPECTRUM VIA TRANSITION ELECTRIC DIPOLE MOMENTS
----------------------------------------------------------------------------------------------------
     Transition      Energy     Energy  Wavelength fosc(D2)      D2        DX        DY        DZ
                      (eV)      (cm-1)    (nm)                 (au**2)    (au)      (au)      (au)
----------------------------------------------------------------------------------------------------
  1-3A  ->  2-3A    0.355755    2869.4  3485.1   0.000029865   0.00343   0.00070  -0.04307   0.03964

Dispersion correction             ... done (  0.1 sec)

MULLIKEN ATOMIC CHARGES AND SPIN DENSITIES
------------------------------------------
   0 O :   -0.695839   -0.048130
   1 O :   -0.645349    0.039192
   2 O :   -0.663138   -0.000015
   3 O :   -0.641333    0.000289
   4 N :   -0.200835    0.010705
   5 N :   -0.354100    0.000202
   6 N :   -0.021729   -0.004803
   7 N :    0.070250    0.007033
   8 C :    0.884792    0.567982
   9 C :    0.520190    0.375699
  10 C :    0.179104   -0.579734
  11 C :    0.436476    0.021444
  12 C :   -1.507524    0.094252
  13 C :   -1.499680    0.026518
  14 C :    0.067925   -0.479839
  15 C :   -0.051844   -0.176459
  16 C :    0.533559    0.055160
  17 C :    0.352982    0.012875
  18 H :    0.349113   -0.018757
  19 H :    0.682528    0.046675
  20 H :    0.266111   -0.000545
  21 H :    0.357494    0.002224
  22 H :    0.398301    0.000440
  23 H :    0.358482    0.014772
  24 H :    0.248823    0.030329
  25 H :    0.378825   -0.007115
  26 H :    0.032780    0.002168
  27 H :    0.103792    0.002470
  28 H :    0.028726    0.004037
  29 H :    0.031117    0.000931
Sum of atomic charges       :   -0.0000000

LOEWDIN ATOMIC CHARGES AND SPIN DENSITIES
-----------------------------------------
   0 O :    0.086392   -0.040897
   1 O :    0.110757    0.032259
   2 O :    0.092724   -0.000038
   3 O :    0.087328    0.000251
   4 N :    0.302042    0.000195
   5 N :    0.292977    0.003224
   6 N :    0.331414   -0.010446
   7 N :    0.324857    0.004431
   8 C :   -0.029655   -0.135727
   9 C :    0.010898    0.170454
  10 C :   -0.146837   -0.017177
  11 C :   -0.143450    0.000661
  12 C :    0.191451   -0.021968
  13 C :    0.195194    0.023817
  14 C :   -0.398790   -0.027639
  15 C :   -0.404774    0.020534
  16 C :   -0.481064   -0.000100
  17 C :   -0.492867    0.000165
  18 H :    0.072995   -0.003882
  19 H :    0.041027   -0.000336
  20 H :    0.002750   -0.006844
  21 H :    0.007669   -0.000665
  22 H :    0.012125   -0.003558
  23 H :    0.018053    0.008949
  24 H :   -0.010309    0.003984
  25 H :    0.004590    0.000235
  26 H :   -0.027612    0.000053
  27 H :   -0.033687    0.000455
  28 H :   -0.008904   -0.000895
  29 H :   -0.007297    0.000508

  Mayer bond orders larger than 0.100000
B(  0-O , 12-C ) :   0.1153 B(  0-O , 14-C ) :   1.2641 B(  1-O , 15-C ) :   1.4504
B(  2-O , 16-C ) :   1.5181 B(  3-O , 17-C ) :   1.5901 B(  4-N ,  8-C ) :   0.1565
B(  4-N ,  9-C ) :   0.1128 B(  4-N , 10-C ) :   0.5036 B(  4-N , 16-C ) :   1.0280
B(  4-N , 26-H ) :   1.0967 B(  5-N ,  9-C ) :   0.2333 B(  5-N , 10-C ) :   0.1645
B(  5-N , 11-C ) :  -0.1737 B(  5-N , 17-C ) :   1.2307 B(  5-N , 27-H ) :   1.0270
B(  6-N , 14-C ) :   0.9882 B(  6-N , 16-C ) :   0.9236 B(  6-N , 28-H ) :   1.1139
B(  7-N , 10-C ) :  -0.1316 B(  7-N , 11-C ) :   0.1412 B(  7-N , 15-C ) :   0.9709
B(  7-N , 17-C ) :   0.9761 B(  7-N , 29-H ) :   1.0989 B(  8-C ,  9-C ) :   0.3620
B(  8-C , 10-C ) :   0.4406 B(  8-C , 11-C ) :   0.3492 B(  8-C , 12-C ) :   0.3840
B(  8-C , 14-C ) :   0.1350 B(  8-C , 18-H ) :  -0.2423 B(  8-C , 21-H ) :  -0.1834
B(  9-C , 10-C ) :   0.1901 B(  9-C , 11-C ) :   0.5272 B(  9-C , 13-C ) :   0.2202
B(  9-C , 14-C ) :   0.1182 B(  9-C , 15-C ) :   0.5725 B(  9-C , 24-H ) :  -0.1009
B(  9-C , 25-H ) :  -0.1038 B( 10-C , 11-C ) :   0.4264 B( 10-C , 12-C ) :  -0.4516
B( 10-C , 14-C ) :   0.4696 B( 10-C , 18-H ) :   1.1100 B( 10-C , 19-H ) :  -0.1834
B( 11-C , 12-C ) :   0.2497 B( 11-C , 13-C ) :  -0.1411 B( 11-C , 14-C ) :  -0.1170
B( 11-C , 15-C ) :  -0.1809 B( 11-C , 17-C ) :  -0.2165 B( 11-C , 18-H ) :  -0.1561
B( 11-C , 19-H ) :   0.7029 B( 12-C , 20-H ) :   0.8320 B( 12-C , 21-H ) :   1.1127
B( 12-C , 22-H ) :   0.8798 B( 13-C , 23-H ) :   0.8654 B( 13-C , 24-H ) :   1.0660
B( 13-C , 25-H ) :   0.9415 B( 14-C , 16-C ) :  -0.1226

Dispersion correction           -0.059331132
FINAL SINGLE POINT ENERGY      -908.792654208241

DIPOLE MOMENT
-------------

Method             : TDA/CIS
Type of density    : Electron Density
Level              : Relaxed density
State              :   1
Multiplicity       :   3
Irrep              :   0
Energy             :     0.0000000000000000 Eh
Relativity type    :
Basis              : AO
                                X                 Y                 Z
Electronic contribution:     -2.112573365      -9.831755466      -6.639319041
Nuclear contribution   :      2.018808729      11.252159646       9.160255508
                        -----------------------------------------
Total Dipole Moment    :     -0.093764635       1.420404180       2.520936467
                        -----------------------------------------
Magnitude (a.u.)       :      2.895075217
Magnitude (Debye)      :      7.358696396

Rotational constants in cm-1:             0.020260             0.013826             0.012120
Rotational constants in MHz :           607.365821           414.478438           363.351009

                             ****ORCA TERMINATED NORMALLY****
TOTAL RUN TIME: 0 days 0 hours 4 minutes 43 seconds 633 msec
