                         Program Version 6.0.0  -   RELEASE  -
|  1> ! Engrad def2-TZVPPD wB97M-D3BJ
|  2> %pal nprocs 8 end%pal nprocs 64 end
|  3> %tddft
|  4>  Iroot 1 Nroots 3
|  5> sf true
|  6> end
|  7> *xyz 0 3
|  8> O   3.28522949 1.14466589 -0.18176431
|  9> O   -0.98638085 0.63696914 -2.7155676
| 10> O   1.03279898 -2.73409089 -0.92827562
| 11> O   -3.78969651 -1.28814164 0.24644304
| 12> N   0.3988097 -1.48508871 0.88642007
| 13> N   -2.18223939 0.10333694 1.02068912
| 14> N   2.06392345 -0.79174982 -0.56330001
| 15> N   -2.21223947 -0.47649974 -1.22921316
| 16> C   1.62645951 0.59532288 1.39887252
| 17> C   -0.62567259 1.16345445 -0.47227895
| 18> C   0.36364315 -0.19234851 1.54658027
| 19> C   -0.86048516 0.70094942 0.94935106
| 20> C   2.00867964 1.44874222 2.45905975
| 21> C   0.30045994 2.26709306 -0.80646868
| 22> C   2.39318775 0.40656758 0.18034254
| 23> C   -1.23732475 0.44529318 -1.54332129
| 24> C   1.10355896 -1.78581359 -0.28423576
| 25> C   -2.74730036 -0.70366699 -0.02149286
| 26> H   0.07338804 -0.29125909 2.59307754
| 27> H   -0.83770385 1.68440221 1.40354624
| 28> H   2.13110331 1.00370832 3.42579785
| 29> H   2.92025567 2.07879377 2.34814649
| 30> H   1.19213732 2.22504468 2.6262559
| 31> H   -0.26975979 3.15264457 -1.11778996
| 32> H   0.85483982 2.62560672 -0.02575009
| 33> H   0.86194057 1.85815038 -1.54191983
| 34> H   -0.33033539 -2.09276492 1.09897198
| 35> H   -2.54043804 -0.13132214 1.89169101
| 36> H   2.85544617 -1.15861065 -1.13515799
| 37> H   -2.65055494 -0.93938235 -1.99259577
| 38> *
| 39>
| 40>                          ****END OF INPUT****

CARTESIAN COORDINATES (ANGSTROEM)
---------------------------------
  O      3.285229    1.144666   -0.181764
  O     -0.986381    0.636969   -2.715568
  O      1.032799   -2.734091   -0.928276
  O     -3.789697   -1.288142    0.246443
  N      0.398810   -1.485089    0.886420
  N     -2.182239    0.103337    1.020689
  N      2.063923   -0.791750   -0.563300
  N     -2.212239   -0.476500   -1.229213
  C      1.626460    0.595323    1.398873
  C     -0.625673    1.163454   -0.472279
  C      0.363643   -0.192349    1.546580
  C     -0.860485    0.700949    0.949351
  C      2.008680    1.448742    2.459060
  C      0.300460    2.267093   -0.806469
  C      2.393188    0.406568    0.180343
  C     -1.237325    0.445293   -1.543321
  C      1.103559   -1.785814   -0.284236
  C     -2.747300   -0.703667   -0.021493
  H      0.073388   -0.291259    2.593078
  H     -0.837704    1.684402    1.403546
  H      2.131103    1.003708    3.425798
  H      2.920256    2.078794    2.348146
  H      1.192137    2.225045    2.626256
  H     -0.269760    3.152645   -1.117790
  H      0.854840    2.625607   -0.025750
  H      0.861941    1.858150   -1.541920
  H     -0.330335   -2.092765    1.098972
  H     -2.540438   -0.131322    1.891691
  H      2.855446   -1.158611   -1.135158
  H     -2.650555   -0.939382   -1.992596

 Total Charge           Charge          ....    0
 Multiplicity           Mult            ....    3
 Number of Electrons    NEL             ....  132
 Basis Dimension        Dim             ....  882

ORBITAL ENERGIES
----------------
                 SPIN UP ORBITALS
  NO   OCC          E(Eh)            E(eV)
   0   1.0000     -19.341152      -526.2995
   1   1.0000     -19.330958      -526.0221
   2   1.0000     -19.329859      -525.9922
   3   1.0000     -19.321541      -525.7659
   4   1.0000     -14.566248      -396.3678
   5   1.0000     -14.556704      -396.1081
   6   1.0000     -14.555994      -396.0887
   7   1.0000     -14.552078      -395.9822
   8   1.0000     -10.507838      -285.9328
   9   1.0000     -10.503415      -285.8124
  10   1.0000     -10.488015      -285.3934
  11   1.0000     -10.475236      -285.0457
  12   1.0000     -10.448347      -284.3140
  13   1.0000     -10.439036      -284.0606
  14   1.0000     -10.419165      -283.5199
  15   1.0000     -10.413430      -283.3638
  16   1.0000     -10.382409      -282.5197
  17   1.0000     -10.352848      -281.7153
  18   1.0000      -1.244927       -33.8762
  19   1.0000      -1.220440       -33.2098
  20   1.0000      -1.206075       -32.8190
  21   1.0000      -1.194688       -32.5091
  22   1.0000      -1.115261       -30.3478
  23   1.0000      -1.099368       -29.9153
  24   1.0000      -1.065309       -28.9885
  25   1.0000      -1.043204       -28.3870
  26   1.0000      -0.989128       -26.9155
  27   1.0000      -0.962415       -26.1886
  28   1.0000      -0.885648       -24.0997
  29   1.0000      -0.849585       -23.1184
  30   1.0000      -0.829604       -22.5747
  31   1.0000      -0.802333       -21.8326
  32   1.0000      -0.792828       -21.5740
  33   1.0000      -0.775136       -21.0925
  34   1.0000      -0.705872       -19.2078
  35   1.0000      -0.695983       -18.9387
  36   1.0000      -0.686345       -18.6764
  37   1.0000      -0.671135       -18.2625
  38   1.0000      -0.654213       -17.8020
  39   1.0000      -0.632176       -17.2024
  40   1.0000      -0.617598       -16.8057
  41   1.0000      -0.606483       -16.5032
  42   1.0000      -0.598046       -16.2737
  43   1.0000      -0.590412       -16.0659
  44   1.0000      -0.583265       -15.8714
  45   1.0000      -0.580146       -15.7866
  46   1.0000      -0.574608       -15.6359
  47   1.0000      -0.571445       -15.5498
  48   1.0000      -0.559194       -15.2165
  49   1.0000      -0.556770       -15.1505
  50   1.0000      -0.551894       -15.0178
  51   1.0000      -0.550312       -14.9747
  52   1.0000      -0.539033       -14.6678
  53   1.0000      -0.525866       -14.3095
  54   1.0000      -0.514485       -13.9998
  55   1.0000      -0.502979       -13.6867
  56   1.0000      -0.487542       -13.2667
  57   1.0000      -0.431214       -11.7339
  58   1.0000      -0.416095       -11.3225
  59   1.0000      -0.412049       -11.2124
  60   1.0000      -0.408705       -11.1214
  61   1.0000      -0.402146       -10.9429
  62   1.0000      -0.396866       -10.7993
  63   1.0000      -0.392482       -10.6800
  64   1.0000      -0.383478       -10.4350
  65   1.0000      -0.344824        -9.3831
  66   1.0000      -0.322332        -8.7711
  67   0.0000       0.009502         0.2586
  68   0.0000       0.030182         0.8213
  69   0.0000       0.032786         0.8921
  70   0.0000       0.035587         0.9684
  71   0.0000       0.052886         1.4391

                 SPIN DOWN ORBITALS
  NO   OCC          E(Eh)            E(eV)
   0   1.0000     -19.337092      -526.1890
   1   1.0000     -19.329792      -525.9904
   2   1.0000     -19.326091      -525.8897
   3   1.0000     -19.321347      -525.7606
   4   1.0000     -14.565851      -396.3570
   5   1.0000     -14.555882      -396.0857
   6   1.0000     -14.555781      -396.0829
   7   1.0000     -14.551719      -395.9724
   8   1.0000     -10.507886      -285.9341
   9   1.0000     -10.503458      -285.8136
  10   1.0000     -10.488989      -285.4199
  11   1.0000     -10.476171      -285.0711
  12   1.0000     -10.448040      -284.3056
  13   1.0000     -10.438477      -284.0454
  14   1.0000     -10.408002      -283.2161
  15   1.0000     -10.402362      -283.0627
  16   1.0000     -10.383108      -282.5387
  17   1.0000     -10.353148      -281.7235
  18   1.0000      -1.244610       -33.8676
  19   1.0000      -1.217309       -33.1247
  20   1.0000      -1.199924       -32.6516
  21   1.0000      -1.190545       -32.3964
  22   1.0000      -1.112573       -30.2746
  23   1.0000      -1.097032       -29.8518
  24   1.0000      -1.063361       -28.9355
  25   1.0000      -1.041489       -28.3404
  26   1.0000      -0.975205       -26.5367
  27   1.0000      -0.946094       -25.7445
  28   1.0000      -0.881168       -23.9778
  29   1.0000      -0.843199       -22.9446
  30   1.0000      -0.820081       -22.3155
  31   1.0000      -0.796980       -21.6869
  32   1.0000      -0.791291       -21.5321
  33   1.0000      -0.773533       -21.0489
  34   1.0000      -0.699979       -19.0474
  35   1.0000      -0.690731       -18.7958
  36   1.0000      -0.680922       -18.5288
  37   1.0000      -0.665513       -18.1095
  38   1.0000      -0.641076       -17.4446
  39   1.0000      -0.627268       -17.0688
  40   1.0000      -0.614391       -16.7184
  41   1.0000      -0.602169       -16.3859
  42   1.0000      -0.589812       -16.0496
  43   1.0000      -0.586458       -15.9583
  44   1.0000      -0.577389       -15.7116
  45   1.0000      -0.572397       -15.5757
  46   1.0000      -0.566178       -15.4065
  47   1.0000      -0.560552       -15.2534
  48   1.0000      -0.555665       -15.1204
  49   1.0000      -0.550324       -14.9751
  50   1.0000      -0.546069       -14.8593
  51   1.0000      -0.541880       -14.7453
  52   1.0000      -0.528630       -14.3848
  53   1.0000      -0.515151       -14.0180
  54   1.0000      -0.504783       -13.7358
  55   1.0000      -0.497858       -13.5474
  56   1.0000      -0.480651       -13.0792
  57   1.0000      -0.428703       -11.6656
  58   1.0000      -0.412350       -11.2206
  59   1.0000      -0.405731       -11.0405
  60   1.0000      -0.397123       -10.8063
  61   1.0000      -0.392268       -10.6741
  62   1.0000      -0.388960       -10.5841
  63   1.0000      -0.387485       -10.5440
  64   1.0000      -0.371756       -10.1160
  65   0.0000      -0.063026        -1.7150
  66   0.0000      -0.050376        -1.3708
  67   0.0000       0.008936         0.2432
  68   0.0000       0.029702         0.8082
  69   0.0000       0.032807         0.8927

----------------------------------------------------------------------------------------------------
          SPIN FLIP ABSORPTION SPECTRUM VIA TRANSITION ELECTRIC DIPOLE MOMENTS
----------------------------------------------------------------------------------------------------
     Transition      Energy     Energy  Wavelength fosc(D2)      D2        DX        DY        DZ
                      (eV)      (cm-1)    (nm)                 (au**2)    (au)      (au)      (au)
----------------------------------------------------------------------------------------------------
  1-3A  ->  2-3A    0.051448     415.0  24098.8   0.000016296   0.01293   0.10817   0.01717   0.03056
  1-3A  ->  3-3A    2.233545   18014.8   555.1   0.000233387   0.00427   0.00606   0.01070  -0.06414

Dispersion correction             ... done (  0.1 sec)

MULLIKEN ATOMIC CHARGES AND SPIN DENSITIES
------------------------------------------
   0 O :   -0.654689   -0.018702
   1 O :   -0.679723    0.027380
   2 O :   -0.560252   -0.000548
   3 O :   -0.655442   -0.000210
   4 N :   -0.183899   -0.005956
   5 N :   -0.303963   -0.000703
   6 N :   -0.002822   -0.003012
   7 N :    0.064250    0.003343
   8 C :    0.530349    0.283108
   9 C :    0.611165    0.384076
  10 C :    0.323781   -0.157779
  11 C :    0.320148   -0.154304
  12 C :   -1.438965   -0.029894
  13 C :   -1.760099    0.002615
  14 C :    0.134433   -0.220619
  15 C :    0.131817   -0.175149
  16 C :    0.388517    0.013739
  17 C :    0.397614    0.008401
  18 H :    0.456223   -0.005694
  19 H :    0.535822    0.009811
  20 H :    0.367399    0.006596
  21 H :    0.288628   -0.005208
  22 H :    0.333183    0.012350
  23 H :    0.433941    0.012173
  24 H :    0.326376   -0.000172
  25 H :    0.460202    0.012056
  26 H :   -0.035531   -0.000016
  27 H :    0.044260    0.001314
  28 H :    0.113789   -0.000834
  29 H :    0.013490    0.001838
Sum of atomic charges       :    0.0000000

LOEWDIN ATOMIC CHARGES AND SPIN DENSITIES
-----------------------------------------
   0 O :    0.087899   -0.019232
   1 O :    0.105142    0.024147
   2 O :    0.163313   -0.000560
   3 O :    0.071203   -0.000288
   4 N :    0.308112   -0.001673
   5 N :    0.299040   -0.001476
   6 N :    0.319452   -0.004411
   7 N :    0.336777    0.000806
   8 C :   -0.083174   -0.065398
   9 C :    0.002238    0.082546
  10 C :   -0.070010   -0.005921
  11 C :   -0.080655    0.000443
  12 C :    0.152012   -0.013379
  13 C :    0.243346    0.010311
  14 C :   -0.405062   -0.014883
  15 C :   -0.413552    0.010811
  16 C :   -0.522650   -0.000284
  17 C :   -0.449523   -0.000467
  18 H :    0.054880   -0.000569
  19 H :    0.034572    0.001024
  20 H :   -0.006369   -0.002428
  21 H :    0.030505    0.000086
  22 H :    0.041732   -0.004570
  23 H :    0.045641    0.004052
  24 H :   -0.049241   -0.000439
  25 H :   -0.049825    0.002199
  26 H :   -0.078762   -0.000171
  27 H :   -0.087527   -0.000172
  28 H :    0.013492   -0.000213
  29 H :   -0.013005    0.000109

  Mayer bond orders larger than 0.100000
B(  0-O , 14-C ) :   1.4427 B(  1-O , 15-C ) :   1.2648 B(  2-O , 16-C ) :   1.5996
B(  3-O , 17-C ) :   1.5868 B(  4-N ,  8-C ) :   0.1830 B(  4-N , 10-C ) :   0.4523
B(  4-N , 16-C ) :   0.9605 B(  4-N , 26-H ) :   1.1786 B(  5-N ,  9-C ) :   0.3709
B(  5-N , 17-C ) :   1.1471 B(  5-N , 19-H ) :  -0.2133 B(  5-N , 27-H ) :   1.0594
B(  6-N ,  8-C ) :  -0.1617 B(  6-N , 10-C ) :   0.1491 B(  6-N , 14-C ) :   1.0658
B(  6-N , 16-C ) :   0.9379 B(  6-N , 28-H ) :   1.0282 B(  7-N ,  9-C ) :  -0.1099
B(  7-N , 15-C ) :   1.0515 B(  7-N , 17-C ) :   1.0100 B(  7-N , 29-H ) :   1.1266
B(  8-C , 10-C ) :   0.5337 B(  8-C , 11-C ) :   0.2262 B(  8-C , 12-C ) :   0.3853
B(  8-C , 14-C ) :   0.6195 B(  8-C , 18-H ) :  -0.1026 B(  9-C , 10-C ) :   0.1316
B(  9-C , 11-C ) :   0.4635 B(  9-C , 15-C ) :   0.7953 B(  9-C , 19-H ) :  -0.1574
B(  9-C , 24-H ) :  -0.1915 B( 10-C , 11-C ) :   0.4458 B( 10-C , 12-C ) :  -0.1623
B( 10-C , 14-C ) :  -0.1376 B( 10-C , 16-C ) :  -0.1073 B( 10-C , 18-H ) :   0.8313
B( 10-C , 19-H ) :  -0.1052 B( 11-C , 17-C ) :  -0.2427 B( 11-C , 19-H ) :   0.9713
B( 12-C , 20-H ) :   0.9668 B( 12-C , 21-H ) :   1.0225 B( 12-C , 22-H ) :   0.8195
B( 13-C , 15-C ) :   0.1066 B( 13-C , 23-H ) :   0.7680 B( 13-C , 24-H ) :   1.0986
B( 13-C , 25-H ) :   0.7776

Dispersion correction           -0.059132974
FINAL SINGLE POINT ENERGY      -908.762764168524

DIPOLE MOMENT
-------------

Method             : TDA/CIS
Type of density    : Electron Density
Level              : Relaxed density
State              :   1
Multiplicity       :   3
Irrep              :   0
Energy             :     0.0000000000000000 Eh
Relativity type    :
Basis              : AO
                                X                 Y                 Z
Electronic contribution:     -3.732151674      -8.770394132      -6.693993216
Nuclear contribution   :      4.076796799       9.828062803       9.159002024
                        -----------------------------------------
Total Dipole Moment    :      0.344645125       1.057668671       2.465008809
                        -----------------------------------------
Magnitude (a.u.)       :      2.704387492
Magnitude (Debye)      :      6.874006718

Rotational constants in cm-1:             0.021741             0.012184             0.011924
Rotational constants in MHz :           651.774626           365.255224           357.476800

                             ****ORCA TERMINATED NORMALLY****
TOTAL RUN TIME: 0 days 0 hours 5 minutes 27 seconds 153 msec
