                         Program Version 6.0.0  -   RELEASE  -
|  1> ! Opt wB97M-D3BJ def2-TZVPPD
|  2> %pal nprocs 8 end %pal nprocs 64 end
|  3> %geom
|  4> Constraints
|  5>     {A 2 1 0 128.64406779661016 C }
|  6> end
|  7> MaxIter 200
|  8> end
|  9> *xyz 0 1
| 10> O   1.6452383016564487 0.713734762087956 0.0
| 11> C   0.7509 -0.4065 0.0
| 12> C   -0.7502 -0.4076 0.0
| 13> H   1.2625 -0.6786 0.9136
| 14> H   1.2625 -0.6787 -0.9136
| 15> H   -1.2614 -0.6806 -0.9136
| 16> H   -1.2614 -0.6805 0.9136
| 17> *
| 18>
| 19>                          ****END OF INPUT****
 Total Charge           Charge          ....    0
 Multiplicity           Mult            ....    1
 Number of Electrons    NEL             ....   24
Dispersion correction           -0.005350502
FINAL SINGLE POINT ENERGY      -153.693445138267
Dispersion correction             ... done (  0.1 sec)
Dispersion correction           -0.005423333
FINAL SINGLE POINT ENERGY      -153.711112808420
Dispersion correction             ... done (  0.1 sec)
Dispersion correction           -0.005487949
FINAL SINGLE POINT ENERGY      -153.719970113486
Dispersion correction             ... done (  0.1 sec)
FINAL SINGLE POINT ENERGY      -153.726998574432
FINAL SINGLE POINT ENERGY      -153.735546374816
FINAL SINGLE POINT ENERGY      -153.748501448527
FINAL SINGLE POINT ENERGY      -153.768276140419
FINAL SINGLE POINT ENERGY      -153.797820175330
FINAL SINGLE POINT ENERGY      -153.836668126304
FINAL SINGLE POINT ENERGY      -153.819880422952
FINAL SINGLE POINT ENERGY      -153.930559103160
FINAL SINGLE POINT ENERGY      -153.930647411919
FINAL SINGLE POINT ENERGY      -153.930720172029
FINAL SINGLE POINT ENERGY      -153.930893524521
FINAL SINGLE POINT ENERGY      -153.931051400375
FINAL SINGLE POINT ENERGY      -153.931186453098
FINAL SINGLE POINT ENERGY      -153.931230517149
Dispersion correction             ... done (  0.1 sec)
Dispersion correction           -0.005526471
FINAL SINGLE POINT ENERGY      -153.931234910826
Dispersion correction             ... done (  0.1 sec)
Dispersion correction           -0.005526603
FINAL SINGLE POINT ENERGY      -153.931236024617
Dispersion correction             ... done (  0.1 sec)
                    ***********************HURRAY********************

CARTESIAN COORDINATES (ANGSTROEM)
---------------------------------
  O      1.413415    1.037356   -0.084942
  C      0.937026   -0.009291    0.259664
  C     -0.313547   -0.673342   -0.228057
  H      1.459153   -0.598534    1.042473
  H     -0.055544   -1.658507   -0.617701
  H     -0.813668   -0.086114   -0.992961
  H     -0.978698   -0.830332    0.621524

 Multiplicity           Mult            ....    1
 Number of Electrons    NEL             ....   24
 Basis Dimension        Dim             ....  182

ORBITAL ENERGIES
----------------

  NO   OCC          E(Eh)            E(eV)
   0   2.0000     -19.340228      -526.2744
   1   2.0000     -10.443279      -284.1761
   2   2.0000     -10.359354      -281.8924
   3   2.0000      -1.188834       -32.3498
   4   2.0000      -0.887436       -24.1484
   5   2.0000      -0.700826       -19.0704
   6   2.0000      -0.597802       -16.2670
   7   2.0000      -0.562375       -15.3030
   8   2.0000      -0.556157       -15.1338
   9   2.0000      -0.508945       -13.8491
  10   2.0000      -0.477509       -12.9937
  11   2.0000      -0.367816       -10.0088
  12   0.0000       0.036858         1.0030
  13   0.0000       0.055704         1.5158
  14   0.0000       0.059229         1.6117
  15   0.0000       0.082819         2.2536
  16   0.0000       0.085954         2.3389

MULLIKEN ATOMIC CHARGES
-----------------------
   0 O :   -0.475014
   1 C :    0.233846
   2 C :   -0.695982
   3 H :    0.236260
   4 H :    0.229614
   5 H :    0.241624
   6 H :    0.229653
Sum of atomic charges:    0.0000000

LOEWDIN ATOMIC CHARGES
----------------------
   0 O :    0.072027
   1 C :   -0.236381
   2 C :    0.169977
   3 H :    0.022727
   4 H :   -0.009914
   5 H :   -0.008493
   6 H :   -0.009942

  Mayer bond orders larger than 0.100000
B(  0-O ,  1-C ) :   1.7701 B(  1-C ,  2-C ) :   0.7520 B(  1-C ,  3-H ) :   0.9904
B(  2-C ,  4-H ) :   0.9923 B(  2-C ,  5-H ) :   0.9574 B(  2-C ,  6-H ) :   0.9920

Dispersion correction           -0.005526630
FINAL SINGLE POINT ENERGY      -153.931236103540

DIPOLE MOMENT
-------------

Method             : SCF
Type of density    : Electron Density
Multiplicity       :   1
Irrep              :   0
Energy             :  -153.9257094736339013 Eh
Relativity type    :
Basis              : AO
                                X                 Y                 Z
Electronic contribution:      2.287904524       2.442177915       0.072052625
Nuclear contribution   :     -2.884670131      -3.406549984       0.127941293
                        -----------------------------------------
Total Dipole Moment    :     -0.596765607      -0.964372070       0.199993918
                        -----------------------------------------
Magnitude (a.u.)       :      1.151581628
Magnitude (Debye)      :      2.927087878

Rotational constants in cm-1:             2.031525             0.330770             0.300147
Rotational constants in MHz :         60903.589987          9916.223768          8998.188095

                             ****ORCA TERMINATED NORMALLY****
TOTAL RUN TIME: 0 days 0 hours 6 minutes 46 seconds 16 msec
