                         Program Version 6.0.0  -   RELEASE  -
|  1> ! Engrad def2-TZVPPD wB97M-D3BJ
|  2> %pal nprocs 8 end%pal nprocs 64 end
|  3> %tddft
|  4>  Iroot 1 Nroots 3
|  5> sf true
|  6> end
|  7> *xyz 0 3
|  8> O   -0.51385765 -0.20296086 0.72292317
|  9> C   0.42883969 0.59741466 0.12620176
| 10> C   1.40710729 -0.20082191 -0.70541538
| 11> H   0.87666614 1.04240476 0.97184366
| 12> H   0.00276161 1.31969921 -0.5118226
| 13> H   1.90922036 -1.01130871 -0.12586325
| 14> H   1.47022545 -0.12344641 -1.76614248
| 15> *
| 16>
| 17>                          ****END OF INPUT****

CARTESIAN COORDINATES (ANGSTROEM)
---------------------------------
  O     -0.513858   -0.202961    0.722923
  C      0.428840    0.597415    0.126202
  C      1.407107   -0.200822   -0.705415
  H      0.876666    1.042405    0.971844
  H      0.002762    1.319699   -0.511823
  H      1.909220   -1.011309   -0.125863
  H      1.470225   -0.123446   -1.766142

 Total Charge           Charge          ....    0
 Multiplicity           Mult            ....    3
 Number of Electrons    NEL             ....   24
 Basis Dimension        Dim             ....  182

ORBITAL ENERGIES
----------------
                 SPIN UP ORBITALS
  NO   OCC          E(Eh)            E(eV)
   0   1.0000     -19.389750      -527.6219
   1   1.0000     -10.403790      -283.1015
   2   1.0000     -10.370861      -282.2055
   3   1.0000      -1.170679       -31.8558
   4   1.0000      -0.873288       -23.7634
   5   1.0000      -0.739887       -20.1334
   6   1.0000      -0.630108       -17.1461
   7   1.0000      -0.584258       -15.8985
   8   1.0000      -0.551916       -15.0184
   9   1.0000      -0.513890       -13.9837
  10   1.0000      -0.446141       -12.1401
  11   1.0000      -0.411767       -11.2047
  12   1.0000      -0.329780        -8.9738
  13   0.0000       0.041473         1.1285
  14   0.0000       0.062058         1.6887
  15   0.0000       0.076703         2.0872
  16   0.0000       0.088564         2.4099
  17   0.0000       0.113092         3.0774

                 SPIN DOWN ORBITALS
  NO   OCC          E(Eh)            E(eV)
   0   1.0000     -19.364970      -526.9476
   1   1.0000     -10.404946      -283.1330
   2   1.0000     -10.357467      -281.8410
   3   1.0000      -1.114982       -30.3402
   4   1.0000      -0.839981       -22.8570
   5   1.0000      -0.711907       -19.3720
   6   1.0000      -0.602903       -16.4058
   7   1.0000      -0.545010       -14.8305
   8   1.0000      -0.524085       -14.2611
   9   1.0000      -0.495742       -13.4898
  10   1.0000      -0.381459       -10.3800
  11   0.0000      -0.051770        -1.4087
  12   0.0000      -0.003995        -0.1087
  13   0.0000       0.040582         1.1043
  14   0.0000       0.062515         1.7011
  15   0.0000       0.077056         2.0968

----------------------------------------------------------------------------------------------------
          SPIN FLIP ABSORPTION SPECTRUM VIA TRANSITION ELECTRIC DIPOLE MOMENTS
----------------------------------------------------------------------------------------------------
     Transition      Energy     Energy  Wavelength fosc(D2)      D2        DX        DY        DZ
                      (eV)      (cm-1)    (nm)                 (au**2)    (au)      (au)      (au)
----------------------------------------------------------------------------------------------------
  1-3A  ->  2-3A    0.155893    1257.4  7953.2   0.000139498   0.03652   0.09699   0.00643  -0.16455
  1-3A  ->  3-3A    1.084298    8745.5  1143.5   0.000598507   0.02253   0.07206   0.12420  -0.04373

Dispersion correction             ... done (  0.2 sec)

MULLIKEN ATOMIC CHARGES AND SPIN DENSITIES
------------------------------------------
   0 O :   -0.424259   -0.433537
   1 C :   -0.091763   -0.057463
   2 C :   -0.426907    0.442191
   3 H :    0.240717    0.063166
   4 H :    0.234589   -0.057275
   5 H :    0.243551    0.013710
   6 H :    0.224072    0.029208
Sum of atomic charges       :   -0.0000000

LOEWDIN ATOMIC CHARGES AND SPIN DENSITIES
-----------------------------------------
   0 O :   -0.010707   -0.428005
   1 C :   -0.269776   -0.008838
   2 C :    0.368431    0.383355
   3 H :   -0.009086    0.015324
   4 H :   -0.013215   -0.046060
   5 H :   -0.012605    0.038112
   6 H :   -0.053042    0.046112

  Mayer bond orders larger than 0.100000
B(  0-O ,  1-C ) :   0.8589 B(  0-O ,  2-C ) :   0.3878 B(  1-C ,  2-C ) :   0.7281
B(  1-C ,  3-H ) :   1.0250 B(  1-C ,  4-H ) :   0.9694 B(  2-C ,  5-H ) :   0.9669
B(  2-C ,  6-H ) :   0.9559

Dispersion correction           -0.005541691
FINAL SINGLE POINT ENERGY      -153.752144691699

DIPOLE MOMENT
-------------

Method             : TDA/CIS
Type of density    : Electron Density
Level              : Relaxed density
State              :   1
Multiplicity       :   3
Irrep              :   0
Energy             :     0.0000000000000000 Eh
Relativity type    :
Basis              : AO
                                X                 Y                 Z
Electronic contribution:     -1.429084794      -0.520825992       0.920506519
Nuclear contribution   :      2.438037036       0.912985990      -1.603496950
                        -----------------------------------------
Total Dipole Moment    :      1.008952242       0.392159998      -0.682990431
                        -----------------------------------------
Magnitude (a.u.)       :      1.279941412
Magnitude (Debye)      :      3.253352522

Rotational constants in cm-1:             1.412069             0.350418             0.309914
Rotational constants in MHz :         42332.764832         10505.268140          9290.986856

                             ****ORCA TERMINATED NORMALLY****
TOTAL RUN TIME: 0 days 0 hours 0 minutes 27 seconds 83 msec
