                         Program Version 6.0.0  -   RELEASE  -
|  1> ! opt def2-TZVPPD wB97M-D3BJ
|  2> %pal nprocs 24 end%geom Constraints
|  3> {B 9 8 2.8000000000000003 C}
|  4> {A 8 9 11 79.71428571428571 C}
|  5>  end
|  6>  end
|  7> *xyz 0 1
|  8> O   2.98579685529314 0.88758230159078 -0.86184571092411
|  9> O   -0.03983205397054 0.68929041702508 -2.10362336723772
| 10> O   0.93431434349854 -3.13274393337945 -0.68767288184107
| 11> O   -3.75829998830163 -0.84727300865116 -0.0472717177755
| 12> N   0.21184538946282 -1.54604804365365 0.7617588924445
| 13> N   -2.13631993928911 0.03188773433438 1.27350571071531
| 14> N   2.02598672506387 -1.14318467211666 -0.64531219127023
| 15> N   -1.91814233924584 0.03137116037665 -1.04498946748291
| 16> C   1.18097737274226 0.71693507080484 0.70173889017321
| 17> C   -0.20686880480777 1.27024627933494 0.21345042231937
| 18> C   0.41441080275909 -0.34173258966541 1.52336266615173
| 19> C   -0.82922175114212 0.58960593673968 1.44434972027296
| 20> C   1.92822011286806 1.69488653817281 1.5963734975385
| 21> C   -0.37809776891576 2.77134929626422 0.04819649358288
| 22> C   2.1403947470937 0.1972384729179 -0.35038567829864
| 23> C   -0.67361678962426 0.6214190571346 -1.0793014500539
| 24> C   1.04142578622994 -2.02697492875068 -0.21027082435993
| 25> C   -2.68467002550422 -0.30396816036989 0.07167054343891
| 26> H   0.80817443950001 -0.54572267081061 2.51895215321335
| 27> H   -0.83785272399001 1.27240685039143 2.28901317073582
| 28> H   2.31167340578204 2.52284411740894 1.00913016264629
| 29> H   1.28982602448342 2.08257620823614 2.38710022492991
| 30> H   2.77390820759972 1.19140411795486 2.06045858523949
| 31> H   -1.41857211141493 3.00964947214868 -0.16882755561625
| 32> H   -0.09065531563179 3.29799318042223 0.95389844358819
| 33> H   0.23426221611057 3.12492645074476 -0.77764887675592
| 34> H   -0.46772570547622 -2.21560145172536 1.0787081584806
| 35> H   -2.71769301149571 -0.17090724573546 2.06627440900372
| 36> H   2.60065167263658 -1.49057255715425 -1.3966820077142
| 37> H   -2.27169977231386 -0.32388339999036 -1.91951041514436
| 38> *
| 39>
| 40>                          ****END OF INPUT****
 Total Charge           Charge          ....    0
 Multiplicity           Mult            ....    1
 Number of Electrons    NEL             ....  132
Dispersion correction           -0.053555788
FINAL SINGLE POINT ENERGY      -908.702053510575
Dispersion correction             ... done (  0.0 sec)
Dispersion correction           -0.054289988
FINAL SINGLE POINT ENERGY      -908.726651470723
Dispersion correction             ... done (  0.0 sec)
Dispersion correction           -0.055231938
FINAL SINGLE POINT ENERGY      -908.742007512838
Dispersion correction             ... done (  0.1 sec)
FINAL SINGLE POINT ENERGY      -908.753097267214
FINAL SINGLE POINT ENERGY      -908.757808390282
FINAL SINGLE POINT ENERGY      -908.762638495946
FINAL SINGLE POINT ENERGY      -908.766512542441
FINAL SINGLE POINT ENERGY      -908.768752652035
FINAL SINGLE POINT ENERGY      -908.771930221823
FINAL SINGLE POINT ENERGY      -908.773908102375
FINAL SINGLE POINT ENERGY      -908.780061953832
FINAL SINGLE POINT ENERGY      -908.780219536327
FINAL SINGLE POINT ENERGY      -908.780289609091
FINAL SINGLE POINT ENERGY      -908.780345237251
FINAL SINGLE POINT ENERGY      -908.780356931240
FINAL SINGLE POINT ENERGY      -908.780363990070
FINAL SINGLE POINT ENERGY      -908.780367786760
Dispersion correction             ... done (  0.0 sec)
Dispersion correction           -0.058857741
FINAL SINGLE POINT ENERGY      -908.780369541454
Dispersion correction             ... done (  0.0 sec)
Dispersion correction           -0.058864596
FINAL SINGLE POINT ENERGY      -908.780370786884
Dispersion correction             ... done (  0.1 sec)
                    ***********************HURRAY********************

CARTESIAN COORDINATES (ANGSTROEM)
---------------------------------
  O      2.586608   -0.094568   -1.398208
  O     -0.712478    2.335894   -2.044050
  O      0.435589   -3.273086    0.846588
  O     -2.303402   -1.848507   -1.342861
  N      0.534427   -1.224295    1.838928
  N     -1.944124   -0.537863    0.475605
  N      1.060922   -1.476056   -0.416968
  N     -1.393671    0.205689   -1.662938
  C      1.620802    0.585656    0.653152
  C     -0.932381    1.644575    0.205996
  C      0.360871    0.166385    1.595946
  C     -1.261164    0.543267    1.110630
  C      2.608650    1.564793    1.130111
  C     -0.730476    3.008059    0.732335
  C      1.823076   -0.289149   -0.471852
  C     -0.984228    1.460103   -1.248882
  C      0.656718   -2.089508    0.762440
  C     -1.901376   -0.813893   -0.868609
  H      0.474114    0.709320    2.531420
  H     -1.786269    0.861731    2.007635
  H      3.430207    1.643305    0.423822
  H      2.158273    2.553929    1.261296
  H      3.005939    1.271436    2.107984
  H     -1.703097    3.466110    0.944433
  H     -0.176710    2.997766    1.671977
  H     -0.219753    3.624682    0.000051
  H      0.163590   -1.668359    2.662845
  H     -2.222179   -1.328752    1.030255
  H      1.214118   -2.117365   -1.179517
  H     -1.409995    0.033701   -2.654965

 Multiplicity           Mult            ....    1
 Number of Electrons    NEL             ....  132
 Basis Dimension        Dim             ....  882

ORBITAL ENERGIES
----------------

  NO   OCC          E(Eh)            E(eV)
   0   2.0000     -19.331363      -526.0331
   1   2.0000     -19.324176      -525.8376
   2   2.0000     -19.320516      -525.7380
   3   2.0000     -19.319299      -525.7049
   4   2.0000     -14.564482      -396.3197
   5   2.0000     -14.564355      -396.3162
   6   2.0000     -14.563866      -396.3029
   7   2.0000     -14.552720      -395.9996
   8   2.0000     -10.506944      -285.9085
   9   2.0000     -10.503721      -285.8208
  10   2.0000     -10.487230      -285.3720
  11   2.0000     -10.470601      -284.9195
  12   2.0000     -10.452206      -284.4190
  13   2.0000     -10.447907      -284.3020
  14   2.0000     -10.444306      -284.2040
  15   2.0000     -10.413402      -283.3631
  16   2.0000     -10.382899      -282.5331
  17   2.0000     -10.369772      -282.1758
  18   2.0000      -1.222070       -33.2542
  19   2.0000      -1.216470       -33.1018
  20   2.0000      -1.197101       -32.5748
  21   2.0000      -1.184644       -32.2358
  22   2.0000      -1.116686       -30.3866
  23   2.0000      -1.099276       -29.9128
  24   2.0000      -1.065954       -29.0061
  25   2.0000      -1.052773       -28.6474
  26   2.0000      -0.979926       -26.6651
  27   2.0000      -0.936187       -25.4749
  28   2.0000      -0.878757       -23.9122
  29   2.0000      -0.837875       -22.7997
  30   2.0000      -0.823995       -22.4220
  31   2.0000      -0.801052       -21.7977
  32   2.0000      -0.788714       -21.4620
  33   2.0000      -0.772975       -21.0337
  34   2.0000      -0.700174       -19.0527
  35   2.0000      -0.692581       -18.8461
  36   2.0000      -0.686022       -18.6676
  37   2.0000      -0.651870       -17.7383
  38   2.0000      -0.647221       -17.6118
  39   2.0000      -0.642736       -17.4897
  40   2.0000      -0.616776       -16.7833
  41   2.0000      -0.601558       -16.3692
  42   2.0000      -0.585557       -15.9338
  43   2.0000      -0.581173       -15.8145
  44   2.0000      -0.574104       -15.6222
  45   2.0000      -0.566978       -15.4283
  46   2.0000      -0.564531       -15.3617
  47   2.0000      -0.560085       -15.2407
  48   2.0000      -0.554749       -15.0955
  49   2.0000      -0.546955       -14.8834
  50   2.0000      -0.540513       -14.7081
  51   2.0000      -0.535275       -14.5656
  52   2.0000      -0.533312       -14.5122
  53   2.0000      -0.523931       -14.2569
  54   2.0000      -0.510029       -13.8786
  55   2.0000      -0.501835       -13.6556
  56   2.0000      -0.482486       -13.1291
  57   2.0000      -0.419539       -11.4162
  58   2.0000      -0.418870       -11.3980
  59   2.0000      -0.410685       -11.1753
  60   2.0000      -0.402286       -10.9468
  61   2.0000      -0.391820       -10.6620
  62   2.0000      -0.389216       -10.5911
  63   2.0000      -0.379999       -10.3403
  64   2.0000      -0.370410       -10.0794
  65   2.0000      -0.287294        -7.8177
  66   0.0000      -0.094696        -2.5768
  67   0.0000       0.004581         0.1246
  68   0.0000       0.028212         0.7677
  69   0.0000       0.029591         0.8052
  70   0.0000       0.038831         1.0567

MULLIKEN ATOMIC CHARGES
-----------------------
   0 O :   -0.682535
   1 O :   -0.673614
   2 O :   -0.629574
   3 O :   -0.642359
   4 N :   -0.316478
   5 N :   -0.243989
   6 N :    0.067403
   7 N :    0.042278
   8 C :    0.436196
   9 C :    0.502074
  10 C :    0.388842
  11 C :    0.097475
  12 C :   -1.399702
  13 C :   -1.483200
  14 C :    0.067835
  15 C :    0.503372
  16 C :    0.264259
  17 C :    0.444925
  18 H :    0.573405
  19 H :    0.497082
  20 H :    0.369761
  21 H :    0.225676
  22 H :    0.326869
  23 H :    0.403823
  24 H :    0.334449
  25 H :    0.298374
  26 H :    0.106126
  27 H :    0.056832
  28 H :    0.050429
  29 H :    0.013968
Sum of atomic charges:   -0.0000000

LOEWDIN ATOMIC CHARGES
----------------------
   0 O :    0.091815
   1 O :    0.100500
   2 O :    0.102226
   3 O :    0.099669
   4 N :    0.260084
   5 N :    0.275845
   6 N :    0.318226
   7 N :    0.333374
   8 C :   -0.011846
   9 C :   -0.022107
  10 C :   -0.053566
  11 C :   -0.077628
  12 C :    0.170626
  13 C :    0.186840
  14 C :   -0.427200
  15 C :   -0.397595
  16 C :   -0.485117
  17 C :   -0.489830
  18 H :    0.028349
  19 H :    0.046719
  20 H :    0.000530
  21 H :   -0.007986
  22 H :    0.008750
  23 H :    0.021235
  24 H :   -0.003408
  25 H :    0.004373
  26 H :   -0.028824
  27 H :   -0.025820
  28 H :   -0.011618
  29 H :   -0.006614

  Mayer bond orders larger than 0.100000
B(  0-O , 14-C ) :   1.3930 B(  1-O , 15-C ) :   1.2862 B(  2-O , 16-C ) :   1.5319
B(  3-O , 17-C ) :   1.5448 B(  4-N ,  8-C ) :   0.3521 B(  4-N , 16-C ) :   1.1865
B(  4-N , 26-H ) :   1.0109 B(  5-N ,  9-C ) :   0.2746 B(  5-N , 11-C ) :   0.3579
B(  5-N , 17-C ) :   1.0507 B(  5-N , 27-H ) :   1.0925 B(  6-N , 10-C ) :   0.1106
B(  6-N , 14-C ) :   0.9885 B(  6-N , 16-C ) :   0.9911 B(  6-N , 28-H ) :   1.0597
B(  7-N , 11-C ) :   0.1035 B(  7-N , 15-C ) :   1.0359 B(  7-N , 17-C ) :   0.9190
B(  7-N , 29-H ) :   1.1178 B(  8-C ,  9-C ) :   0.5338 B(  8-C , 12-C ) :   0.3633
B(  8-C , 14-C ) :   0.9142 B(  8-C , 15-C ) :   0.1545 B(  8-C , 16-C ) :   0.1073
B(  9-C , 10-C ) :   0.1209 B(  9-C , 11-C ) :   0.3313 B(  9-C , 13-C ) :   0.4553
B(  9-C , 14-C ) :   0.1040 B(  9-C , 15-C ) :   0.7266 B(  9-C , 17-C ) :   0.1016
B(  9-C , 19-H ) :  -0.1629 B(  9-C , 24-H ) :  -0.1225 B(  9-C , 25-H ) :  -0.1459
B( 10-C , 11-C ) :   0.7096 B( 10-C , 12-C ) :  -0.1000 B( 10-C , 14-C ) :  -0.2685
B( 10-C , 16-C ) :  -0.2669 B( 10-C , 18-H ) :   0.7606 B( 11-C , 13-C ) :  -0.1366
B( 11-C , 17-C ) :  -0.1652 B( 11-C , 19-H ) :   0.8362 B( 12-C , 20-H ) :   0.8909
B( 12-C , 21-H ) :   1.0634 B( 12-C , 22-H ) :   0.9039 B( 13-C , 23-H ) :   0.7613
B( 13-C , 24-H ) :   0.9627 B( 13-C , 25-H ) :   1.0833

Dispersion correction           -0.058863854
FINAL SINGLE POINT ENERGY      -908.780371437933

DIPOLE MOMENT
-------------

Method             : SCF
Type of density    : Electron Density
Multiplicity       :   1
Irrep              :   0
Energy             :  -908.7215075843976138 Eh
Relativity type    :
Basis              : AO
                                X                 Y                 Z
Electronic contribution:     -3.617927382      -9.961898184      -7.554634791
Nuclear contribution   :      3.017056660      11.557498062      10.332886394
                        -----------------------------------------
Total Dipole Moment    :     -0.600870722       1.595599878       2.778251603
                        -----------------------------------------
Magnitude (a.u.)       :      3.259703448
Magnitude (Debye)      :      8.285507703

Rotational constants in cm-1:             0.017776             0.016270             0.012571
Rotational constants in MHz :           532.923422           487.774697           376.874709

                             ****ORCA TERMINATED NORMALLY****
TOTAL RUN TIME: 0 days 2 hours 30 minutes 19 seconds 6 msec
