                         Program Version 6.0.0  -   RELEASE  -
|  1> ! Engrad def2-TZVPPD wB97M-D3BJ
|  2> %pal nprocs 8 end%pal nprocs 64 end
|  3>  %tddft nroots 2 Iroot 1
|  4> sf true
|  5> end
|  6> *xyz 0 3
|  7> O   4.0797237711536 0.02098116105016 0.71696875643131
|  8> O   -1.82691111067472 1.1367261573637 -2.50697135453247
|  9> O   1.25776279290574 -2.77148972885504 -1.46481385757343
| 10> O   -3.7145865638974 -0.92463132394373 0.97496382240202
| 11> N   0.33761061702212 -1.1977040335347 -0.11127761299755
| 12> N   -1.91693961157711 0.41107647644394 1.39257611948947
| 13> N   2.63864858296519 -1.43654057922463 -0.25240247799522
| 14> N   -2.43663370062642 -0.22436189319187 -0.78101721399602
| 15> C   1.78131870974867 0.28117331114562 1.18860276330912
| 16> C   -0.84146795167021 1.51627286054077 -0.38795020639954
| 17> C   0.43071406580251 -0.31357717957701 1.02327739408613
| 18> C   -0.56596011161548 0.81810200240726 0.95073058553585
| 19> C   2.04465706802632 1.36426039536459 2.1543126225278
| 20> C   -0.67128026571495 2.97417436540972 -0.49885950552475
| 21> C   2.92903266023483 -0.34866666023129 0.55537736787467
| 22> C   -1.69618041628036 0.82566722221661 -1.34159521036167
| 23> C   1.38612160577161 -1.87521093206287 -0.6630469073632
| 24> C   -2.76220468355267 -0.29482884016057 0.57808132534892
| 25> H   0.22111596608425 -0.88560441177167 1.94928265498756
| 26> H   -0.2584121948115 1.58555322991269 1.65111922786011
| 27> H   1.80427064724355 2.35095046385536 1.73684811921443
| 28> H   1.44192756846477 1.25457944537078 3.05931714653858
| 29> H   3.09988577615917 1.37437451816808 2.40876274262673
| 30> H   -1.43377067641735 3.49496895111376 0.09785264521856
| 31> H   0.29806924061668 3.29816969911682 -0.11572256187997
| 32> H   -0.79436982576827 3.28865107138517 -1.53153076714386
| 33> H   -0.56045478939594 -1.58209433389266 -0.34712174228184
| 34> H   -2.12639643392716 0.3093833101726 2.37090929372325
| 35> H   3.41970965356361 -1.88003827179983 -0.70874211127948
| 36> H   -3.11240038983309 -0.6553164527918 -1.39333105784548
| 37> *
| 38>
| 39>                          ****END OF INPUT****

CARTESIAN COORDINATES (ANGSTROEM)
---------------------------------
  O      4.079724    0.020981    0.716969
  O     -1.826911    1.136726   -2.506971
  O      1.257763   -2.771490   -1.464814
  O     -3.714587   -0.924631    0.974964
  N      0.337611   -1.197704   -0.111278
  N     -1.916940    0.411076    1.392576
  N      2.638649   -1.436541   -0.252402
  N     -2.436634   -0.224362   -0.781017
  C      1.781319    0.281173    1.188603
  C     -0.841468    1.516273   -0.387950
  C      0.430714   -0.313577    1.023277
  C     -0.565960    0.818102    0.950731
  C      2.044657    1.364260    2.154313
  C     -0.671280    2.974174   -0.498860
  C      2.929033   -0.348667    0.555377
  C     -1.696180    0.825667   -1.341595
  C      1.386122   -1.875211   -0.663047
  C     -2.762205   -0.294829    0.578081
  H      0.221116   -0.885604    1.949283
  H     -0.258412    1.585553    1.651119
  H      1.804271    2.350950    1.736848
  H      1.441928    1.254579    3.059317
  H      3.099886    1.374375    2.408763
  H     -1.433771    3.494969    0.097853
  H      0.298069    3.298170   -0.115723
  H     -0.794370    3.288651   -1.531531
  H     -0.560455   -1.582094   -0.347122
  H     -2.126396    0.309383    2.370909
  H      3.419710   -1.880038   -0.708742
  H     -3.112400   -0.655316   -1.393331

 Total Charge           Charge          ....    0
 Multiplicity           Mult            ....    3
 Number of Electrons    NEL             ....  132
 Basis Dimension        Dim             ....  882

ORBITAL ENERGIES
----------------
                 SPIN UP ORBITALS
  NO   OCC          E(Eh)            E(eV)
   0   1.0000     -19.342200      -526.3280
   1   1.0000     -19.334638      -526.1222
   2   1.0000     -19.327811      -525.9365
   3   1.0000     -19.316642      -525.6325
   4   1.0000     -14.567392      -396.3989
   5   1.0000     -14.566328      -396.3699
   6   1.0000     -14.562717      -396.2717
   7   1.0000     -14.557234      -396.1225
   8   1.0000     -10.510927      -286.0169
   9   1.0000     -10.503596      -285.8174
  10   1.0000     -10.486710      -285.3579
  11   1.0000     -10.482843      -285.2527
  12   1.0000     -10.447860      -284.3007
  13   1.0000     -10.445808      -284.2449
  14   1.0000     -10.423007      -283.6245
  15   1.0000     -10.421479      -283.5828
  16   1.0000     -10.380815      -282.4763
  17   1.0000     -10.377866      -282.3961
  18   1.0000      -1.226756       -33.3817
  19   1.0000      -1.218851       -33.1666
  20   1.0000      -1.204449       -32.7747
  21   1.0000      -1.196851       -32.5680
  22   1.0000      -1.123450       -30.5706
  23   1.0000      -1.101600       -29.9761
  24   1.0000      -1.068800       -29.0835
  25   1.0000      -1.060247       -28.8508
  26   1.0000      -0.988382       -26.8952
  27   1.0000      -0.962969       -26.2037
  28   1.0000      -0.898566       -24.4512
  29   1.0000      -0.849175       -23.1072
  30   1.0000      -0.832200       -22.6453
  31   1.0000      -0.802360       -21.8333
  32   1.0000      -0.788029       -21.4434
  33   1.0000      -0.783907       -21.3312
  34   1.0000      -0.704989       -19.1837
  35   1.0000      -0.699975       -19.0473
  36   1.0000      -0.693509       -18.8713
  37   1.0000      -0.685049       -18.6411
  38   1.0000      -0.653232       -17.7753
  39   1.0000      -0.638621       -17.3778
  40   1.0000      -0.625798       -17.0288
  41   1.0000      -0.608237       -16.5510
  42   1.0000      -0.601424       -16.3656
  43   1.0000      -0.590719       -16.0743
  44   1.0000      -0.580864       -15.8061
  45   1.0000      -0.574541       -15.6341
  46   1.0000      -0.571316       -15.5463
  47   1.0000      -0.567052       -15.4303
  48   1.0000      -0.564094       -15.3498
  49   1.0000      -0.559976       -15.2377
  50   1.0000      -0.556135       -15.1332
  51   1.0000      -0.546841       -14.8803
  52   1.0000      -0.531642       -14.4667
  53   1.0000      -0.528957       -14.3937
  54   1.0000      -0.520945       -14.1756
  55   1.0000      -0.509863       -13.8741
  56   1.0000      -0.499855       -13.6018
  57   1.0000      -0.430338       -11.7101
  58   1.0000      -0.424386       -11.5481
  59   1.0000      -0.410168       -11.1612
  60   1.0000      -0.407534       -11.0896
  61   1.0000      -0.401661       -10.9297
  62   1.0000      -0.397363       -10.8128
  63   1.0000      -0.391732       -10.6596
  64   1.0000      -0.386322       -10.5124
  65   1.0000      -0.345692        -9.4067
  66   1.0000      -0.341771        -9.3001
  67   0.0000       0.008653         0.2355
  68   0.0000       0.029227         0.7953
  69   0.0000       0.030059         0.8179
  70   0.0000       0.033136         0.9017
  71   0.0000       0.051702         1.4069

                 SPIN DOWN ORBITALS
  NO   OCC          E(Eh)            E(eV)
   0   1.0000     -19.338050      -526.2151
   1   1.0000     -19.330562      -526.0113
   2   1.0000     -19.327555      -525.9295
   3   1.0000     -19.316616      -525.6318
   4   1.0000     -14.567256      -396.3952
   5   1.0000     -14.565437      -396.3457
   6   1.0000     -14.562014      -396.2525
   7   1.0000     -14.557102      -396.1189
   8   1.0000     -10.510940      -286.0172
   9   1.0000     -10.503650      -285.8188
  10   1.0000     -10.487745      -285.3861
  11   1.0000     -10.483854      -285.2802
  12   1.0000     -10.447789      -284.2988
  13   1.0000     -10.446135      -284.2538
  14   1.0000     -10.410974      -283.2970
  15   1.0000     -10.410096      -283.2731
  16   1.0000     -10.381435      -282.4932
  17   1.0000     -10.378449      -282.4120
  18   1.0000      -1.224958       -33.3328
  19   1.0000      -1.216963       -33.1153
  20   1.0000      -1.199603       -32.6429
  21   1.0000      -1.192481       -32.4491
  22   1.0000      -1.120728       -30.4966
  23   1.0000      -1.099431       -29.9170
  24   1.0000      -1.067089       -29.0370
  25   1.0000      -1.058672       -28.8079
  26   1.0000      -0.976648       -26.5759
  27   1.0000      -0.945587       -25.7307
  28   1.0000      -0.892969       -24.2989
  29   1.0000      -0.843533       -22.9537
  30   1.0000      -0.823425       -22.4065
  31   1.0000      -0.798133       -21.7183
  32   1.0000      -0.786356       -21.3978
  33   1.0000      -0.782016       -21.2797
  34   1.0000      -0.700971       -19.0744
  35   1.0000      -0.693023       -18.8581
  36   1.0000      -0.686388       -18.6776
  37   1.0000      -0.677360       -18.4319
  38   1.0000      -0.643572       -17.5125
  39   1.0000      -0.631452       -17.1827
  40   1.0000      -0.623228       -16.9589
  41   1.0000      -0.602401       -16.3922
  42   1.0000      -0.595593       -16.2069
  43   1.0000      -0.585010       -15.9189
  44   1.0000      -0.573762       -15.6129
  45   1.0000      -0.570028       -15.5113
  46   1.0000      -0.563198       -15.3254
  47   1.0000      -0.562442       -15.3048
  48   1.0000      -0.555553       -15.1174
  49   1.0000      -0.551906       -15.0181
  50   1.0000      -0.548457       -14.9243
  51   1.0000      -0.538898       -14.6642
  52   1.0000      -0.525612       -14.3026
  53   1.0000      -0.518486       -14.1087
  54   1.0000      -0.514440       -13.9986
  55   1.0000      -0.503351       -13.6969
  56   1.0000      -0.493997       -13.4423
  57   1.0000      -0.426712       -11.6114
  58   1.0000      -0.419936       -11.4270
  59   1.0000      -0.402195       -10.9443
  60   1.0000      -0.397034       -10.8038
  61   1.0000      -0.393554       -10.7091
  62   1.0000      -0.392034       -10.6678
  63   1.0000      -0.387176       -10.5356
  64   1.0000      -0.382797       -10.4164
  65   0.0000      -0.061163        -1.6643
  66   0.0000      -0.053380        -1.4525
  67   0.0000       0.008218         0.2236
  68   0.0000       0.028837         0.7847
  69   0.0000       0.029751         0.8096

----------------------------------------------------------------------------------------------------
          SPIN FLIP ABSORPTION SPECTRUM VIA TRANSITION ELECTRIC DIPOLE MOMENTS
----------------------------------------------------------------------------------------------------
     Transition      Energy     Energy  Wavelength fosc(D2)      D2        DX        DY        DZ
                      (eV)      (cm-1)    (nm)                 (au**2)    (au)      (au)      (au)
----------------------------------------------------------------------------------------------------
  1-3A  ->  2-3A    0.082491     665.3  15030.1   0.000000019   0.00001   0.00281   0.00116   0.00048

Dispersion correction             ... done (  0.1 sec)

MULLIKEN ATOMIC CHARGES AND SPIN DENSITIES
------------------------------------------
   0 O :   -0.675704   -0.153986
   1 O :   -0.635779    0.147652
   2 O :   -0.657373   -0.001552
   3 O :   -0.648344    0.007597
   4 N :   -0.091768    0.000922
   5 N :   -0.278349    0.031323
   6 N :   -0.043343   -0.026915
   7 N :   -0.043806    0.008455
   8 C :    1.340673    0.223202
   9 C :    0.159060    0.452244
  10 C :    0.137807   -0.348004
  11 C :    0.498482   -0.012871
  12 C :   -1.752713    0.088785
  13 C :   -1.467734    0.043084
  14 C :   -0.121498   -0.611741
  15 C :    0.311421    0.119588
  16 C :    0.449512    0.029775
  17 C :    0.402336   -0.004408
  18 H :    0.277834   -0.075764
  19 H :    0.576536    0.036553
  20 H :    0.363411   -0.014533
  21 H :    0.392754    0.008680
  22 H :    0.304648   -0.014089
  23 H :    0.336769    0.030985
  24 H :    0.254346    0.002153
  25 H :    0.375951    0.013205
  26 H :    0.046351    0.011629
  27 H :    0.068079    0.001118
  28 H :    0.057540    0.007389
  29 H :    0.062900   -0.000477
Sum of atomic charges       :    0.0000000

LOEWDIN ATOMIC CHARGES AND SPIN DENSITIES
-----------------------------------------
   0 O :    0.073106   -0.135010
   1 O :    0.111687    0.133162
   2 O :    0.092623   -0.000734
   3 O :    0.092354    0.007516
   4 N :    0.297951    0.004868
   5 N :    0.287058    0.028115
   6 N :    0.325727   -0.029058
   7 N :    0.305860    0.006105
   8 C :    0.014508   -0.485380
   9 C :   -0.002926    0.533508
  10 C :   -0.135783   -0.065365
  11 C :   -0.107892    0.029932
  12 C :    0.181204   -0.076306
  13 C :    0.189180    0.083978
  14 C :   -0.410893   -0.090386
  15 C :   -0.399471    0.076690
  16 C :   -0.470422   -0.000713
  17 C :   -0.490464    0.001363
  18 H :    0.082737   -0.028203
  19 H :    0.021600   -0.001322
  20 H :    0.010511   -0.025590
  21 H :    0.012219   -0.012210
  22 H :    0.001139   -0.001859
  23 H :    0.020496    0.031320
  24 H :   -0.004874    0.011260
  25 H :    0.000008    0.002616
  26 H :   -0.043962    0.000520
  27 H :   -0.030259    0.002970
  28 H :   -0.011048   -0.002521
  29 H :   -0.011974    0.000734

  Mayer bond orders larger than 0.100000
B(  0-O ,  8-C ) :   0.1345 B(  0-O , 14-C ) :   1.2751 B(  1-O , 15-C ) :   1.5202
B(  2-O , 16-C ) :   1.5894 B(  3-O , 17-C ) :   1.5654 B(  4-N , 10-C ) :   0.4567
B(  4-N , 11-C ) :   0.1063 B(  4-N , 16-C ) :   1.0965 B(  4-N , 26-H ) :   1.1341
B(  5-N ,  9-C ) :   0.2346 B(  5-N , 10-C ) :   0.1391 B(  5-N , 17-C ) :   1.1982
B(  5-N , 27-H ) :   1.0574 B(  6-N , 14-C ) :   0.9733 B(  6-N , 16-C ) :   0.9296
B(  6-N , 28-H ) :   1.1220 B(  7-N , 15-C ) :   0.9728 B(  7-N , 17-C ) :   0.9824
B(  7-N , 29-H ) :   1.0582 B(  8-C , 10-C ) :   0.4954 B(  8-C , 11-C ) :   0.1538
B(  8-C , 12-C ) :  -0.1752 B(  8-C , 14-C ) :   0.2902 B(  8-C , 21-H ) :  -0.1121
B(  8-C , 22-H ) :  -0.1202 B(  9-C , 10-C ) :   0.2398 B(  9-C , 13-C ) :   0.3735
B(  9-C , 15-C ) :   0.8634 B( 10-C , 11-C ) :   0.6177 B( 10-C , 12-C ) :  -0.1509
B( 10-C , 14-C ) :   0.3981 B( 10-C , 18-H ) :   1.0105 B( 11-C , 12-C ) :   0.1276
B( 11-C , 13-C ) :  -0.1481 B( 11-C , 15-C ) :  -0.1306 B( 11-C , 17-C ) :  -0.1614
B( 11-C , 19-H ) :   0.7391 B( 12-C , 14-C ) :  -0.1573 B( 12-C , 20-H ) :   0.8697
B( 12-C , 21-H ) :   0.9303 B( 12-C , 22-H ) :   1.0970 B( 13-C , 15-C ) :  -0.1230
B( 13-C , 23-H ) :   0.8747 B( 13-C , 24-H ) :   1.0612 B( 13-C , 25-H ) :   0.9418
B( 18-H , 19-H ) :   0.1183

Dispersion correction           -0.056528319
FINAL SINGLE POINT ENERGY      -908.797899042028

DIPOLE MOMENT
-------------

Method             : TDA/CIS
Type of density    : Electron Density
Level              : Relaxed density
State              :   1
Multiplicity       :   3
Irrep              :   0
Energy             :     0.0000000000000000 Eh
Relativity type    :
Basis              : AO
                                X                 Y                 Z
Electronic contribution:     -1.827829845      -9.730253720      -5.726876169
Nuclear contribution   :      1.689713052      11.317412657       7.723996051
                        -----------------------------------------
Total Dipole Moment    :     -0.138116793       1.587158937       1.997119882
                        -----------------------------------------
Magnitude (a.u.)       :      2.554728472
Magnitude (Debye)      :      6.493603719

Rotational constants in cm-1:             0.021059             0.010799             0.009686
Rotational constants in MHz :           631.324079           323.738396           290.374007

                             ****ORCA TERMINATED NORMALLY****
TOTAL RUN TIME: 0 days 0 hours 4 minutes 21 seconds 16 msec
