                         Program Version 6.0.0  -   RELEASE  -
|  1> ! Opt wB97M-D3BJ def2-TZVPPD
|  2> %pal nprocs 8 end %pal nprocs 64 end
|  3> %geom
|  4> Constraints
|  5>     {A 2 1 0 64.54545454545455 C }
|  6> end
|  7> MaxIter 500
|  8> end
|  9> *xyz 0 1
| 10> O   -0.0007 0.8141 0.0
| 11> C   0.7509 -0.4065 0.0
| 12> C   -0.7502 -0.4076 0.0
| 13> H   1.2625 -0.6786 0.9136
| 14> H   1.2625 -0.6787 -0.9136
| 15> H   -1.2614 -0.6806 -0.9136
| 16> H   -1.2614 -0.6805 0.9136
| 17> *
| 18>
| 19>                          ****END OF INPUT****
 Total Charge           Charge          ....    0
 Multiplicity           Mult            ....    1
 Number of Electrons    NEL             ....   24
Dispersion correction           -0.005235131
FINAL SINGLE POINT ENERGY      -153.882991671503
Dispersion correction             ... done (  0.2 sec)
Dispersion correction           -0.005233681
FINAL SINGLE POINT ENERGY      -153.885286364963
Dispersion correction             ... done (  0.1 sec)
Dispersion correction           -0.005234903
FINAL SINGLE POINT ENERGY      -153.885658144772
Dispersion correction             ... done (  0.2 sec)
Dispersion correction           -0.005234511
FINAL SINGLE POINT ENERGY      -153.885690476578
Dispersion correction             ... done (  0.1 sec)
Dispersion correction           -0.005234363
FINAL SINGLE POINT ENERGY      -153.885710309198
Dispersion correction             ... done (  0.2 sec)
                    ***********************HURRAY********************

CARTESIAN COORDINATES (ANGSTROEM)
---------------------------------
  O      0.046433    0.811681   -0.000070
  C      0.706725   -0.411928    0.000212
  C     -0.727839   -0.484548   -0.000259
  H      1.249066   -0.654050    0.909525
  H      1.248603   -0.654838   -0.909245
  H     -1.260711   -0.662139   -0.921897
  H     -1.260077   -0.662578    0.921735

 Multiplicity           Mult            ....    1
 Number of Electrons    NEL             ....   24
 Basis Dimension        Dim             ....  182

ORBITAL ENERGIES
----------------

  NO   OCC          E(Eh)            E(eV)
   0   2.0000     -19.350581      -526.5561
   1   2.0000     -10.401518      -283.0397
   2   2.0000     -10.397669      -282.9350
   3   2.0000      -1.198027       -32.6000
   4   2.0000      -0.814518       -22.1642
   5   2.0000      -0.751787       -20.4572
   6   2.0000      -0.630686       -17.1618
   7   2.0000      -0.594232       -16.1699
   8   2.0000      -0.498110       -13.5543
   9   2.0000      -0.490257       -13.3406
  10   2.0000      -0.427848       -11.6423
  11   2.0000      -0.383842       -10.4449
  12   0.0000       0.042110         1.1459
  13   0.0000       0.058622         1.5952
  14   0.0000       0.073408         1.9975
  15   0.0000       0.077705         2.1145
  16   0.0000       0.114293         3.1101

MULLIKEN ATOMIC CHARGES
-----------------------
   0 O :   -0.389124
   1 C :   -0.141807
   2 C :   -0.202773
   3 H :    0.185341
   4 H :    0.185194
   5 H :    0.181658
   6 H :    0.181512
Sum of atomic charges:    0.0000000

LOEWDIN ATOMIC CHARGES
----------------------
   0 O :   -0.031189
   1 C :   -0.089805
   2 C :    0.071961
   3 H :    0.017593
   4 H :    0.017586
   5 H :    0.006929
   6 H :    0.006926

  Mayer bond orders larger than 0.100000
B(  0-O ,  1-C ) :   0.7897 B(  0-O ,  2-C ) :   0.8566 B(  1-C ,  2-C ) :   0.8195
B(  1-C ,  3-H ) :   1.0289 B(  1-C ,  4-H ) :   1.0292 B(  2-C ,  5-H ) :   1.0039
B(  2-C ,  6-H ) :   1.0041

Dispersion correction           -0.005234615
FINAL SINGLE POINT ENERGY      -153.885711229628

DIPOLE MOMENT
-------------

Method             : SCF
Type of density    : Electron Density
Multiplicity       :   1
Irrep              :   0
Energy             :  -153.8804766146460281 Eh
Relativity type    :
Basis              : AO
                                X                 Y                 Z
Electronic contribution:      0.006286252       1.609012127      -0.000202198
Nuclear contribution   :     -0.060854389      -2.421482469       0.000244457
                        -----------------------------------------
Total Dipole Moment    :     -0.054568136      -0.812470343       0.000042259
                        -----------------------------------------
Magnitude (a.u.)       :      0.814300768
Magnitude (Debye)      :      2.069788063

Rotational constants in cm-1:             0.854659             0.735611             0.469829
Rotational constants in MHz :         25622.025203         22053.050019         14085.116667

                             ****ORCA TERMINATED NORMALLY****
TOTAL RUN TIME: 0 days 0 hours 1 minutes 21 seconds 815 msec
