                         Program Version 6.0.0  -   RELEASE  -
|  1> ! Engrad def2-TZVPPD wB97M-D3BJ
|  2> %pal nprocs 8 end%pal nprocs 32 end
|  3>  %tddft nroots 2 Iroot 2
|  4> sf true
|  5> end
|  6> *xyz 0 3
|  7> O   3.20149390163523 0.39450539383193 -0.91175415198872
|  8> O   -0.64097058891592 1.53668143966143 -2.30829234309948
|  9> O   0.40733453997685 -3.07848132558318 -0.35481651739891
| 10> O   -3.00795171450673 -1.776031838786 -0.41694590871293
| 11> N   0.33777207222316 -1.43668520734294 1.20982088084484
| 12> N   -2.15832572541317 -0.18115891256964 0.96605680821472
| 13> N   1.55058753835391 -1.15944436434856 -0.7646981831043
| 14> N   -1.48897038193992 -0.29278555051526 -1.25184792733303
| 15> C   1.77080962544883 0.50369668360109 0.95027506215489
| 16> C   -0.86375436957965 1.61942056120342 0.04792661608481
| 17> C   0.38001484940996 -0.04195557733256 1.55775441387612
| 18> C   -1.08116938831844 0.72032631243111 1.23717769415743
| 19> C   2.48817479546413 1.57103839241379 1.65053932387552
| 20> C   -0.69246938130618 3.06840820471994 0.19259225489722
| 21> C   2.24689096856984 -0.04822591329193 -0.29695351111129
| 22> C   -0.96747207828181 1.00037143753672 -1.26834729850081
| 23> C   0.73030530120846 -1.96930417987882 0.00194603866193
| 24> C   -2.27638251246394 -0.83482528906532 -0.23637976172081
| 25> H   0.48837131010528 0.01253015659447 2.64362508174603
| 26> H   -1.32832081943447 1.3148111587093 2.1127431157226
| 27> H   3.46446552550465 1.73704939396765 1.2062067918798
| 28> H   1.92536185891938 2.51790047337179 1.59981395163967
| 29> H   2.58712820001124 1.34388916362718 2.71581171676374
| 30> H   -1.5698263402251 3.51077205308221 0.67687068718715
| 31> H   0.15466133945527 3.29705793856277 0.85493521937467
| 32> H   -0.53048179982317 3.53737754874736 -0.77216506505459
| 33> H   -0.28299470813278 -2.05118859860283 1.70812976311153
| 34> H   -2.69871691494367 -0.5793766099347 1.71288753047491
| 35> H   1.90009019975644 -1.58015353860616 -1.60992993414393
| 36> H   -1.59305530275774 -0.74121940620426 -2.14838234849879
| 37> *
| 38>
| 39>                          ****END OF INPUT****

CARTESIAN COORDINATES (ANGSTROEM)
---------------------------------
  O      3.201494    0.394505   -0.911754
  O     -0.640971    1.536681   -2.308292
  O      0.407335   -3.078481   -0.354817
  O     -3.007952   -1.776032   -0.416946
  N      0.337772   -1.436685    1.209821
  N     -2.158326   -0.181159    0.966057
  N      1.550588   -1.159444   -0.764698
  N     -1.488970   -0.292786   -1.251848
  C      1.770810    0.503697    0.950275
  C     -0.863754    1.619421    0.047927
  C      0.380015   -0.041956    1.557754
  C     -1.081169    0.720326    1.237178
  C      2.488175    1.571038    1.650539
  C     -0.692469    3.068408    0.192592
  C      2.246891   -0.048226   -0.296954
  C     -0.967472    1.000371   -1.268347
  C      0.730305   -1.969304    0.001946
  C     -2.276383   -0.834825   -0.236380
  H      0.488371    0.012530    2.643625
  H     -1.328321    1.314811    2.112743
  H      3.464466    1.737049    1.206207
  H      1.925362    2.517900    1.599814
  H      2.587128    1.343889    2.715812
  H     -1.569826    3.510772    0.676871
  H      0.154661    3.297058    0.854935
  H     -0.530482    3.537378   -0.772165
  H     -0.282995   -2.051189    1.708130
  H     -2.698717   -0.579377    1.712888
  H      1.900090   -1.580154   -1.609930
  H     -1.593055   -0.741219   -2.148382

 Total Charge           Charge          ....    0
 Multiplicity           Mult            ....    3
 Number of Electrons    NEL             ....  132
 Basis Dimension        Dim             ....  882

ORBITAL ENERGIES
----------------
                 SPIN UP ORBITALS
  NO   OCC          E(Eh)            E(eV)
   0   1.0000     -19.332869      -526.0741
   1   1.0000     -19.332113      -526.0535
   2   1.0000     -19.319046      -525.6980
   3   1.0000     -19.314299      -525.5688
   4   1.0000     -14.564167      -396.3111
   5   1.0000     -14.558508      -396.1571
   6   1.0000     -14.557701      -396.1352
   7   1.0000     -14.556200      -396.0943
   8   1.0000     -10.503456      -285.8136
   9   1.0000     -10.499653      -285.7101
  10   1.0000     -10.478720      -285.1405
  11   1.0000     -10.477815      -285.1158
  12   1.0000     -10.450847      -284.3820
  13   1.0000     -10.447224      -284.2834
  14   1.0000     -10.425449      -283.6909
  15   1.0000     -10.412418      -283.3363
  16   1.0000     -10.374736      -282.3109
  17   1.0000     -10.373398      -282.2745
  18   1.0000      -1.220037       -33.1989
  19   1.0000      -1.214552       -33.0496
  20   1.0000      -1.196076       -32.5469
  21   1.0000      -1.193841       -32.4861
  22   1.0000      -1.115998       -30.3679
  23   1.0000      -1.095252       -29.8033
  24   1.0000      -1.064282       -28.9606
  25   1.0000      -1.054165       -28.6853
  26   1.0000      -0.972493       -26.4629
  27   1.0000      -0.951469       -25.8908
  28   1.0000      -0.882265       -24.0076
  29   1.0000      -0.837638       -22.7933
  30   1.0000      -0.827994       -22.5309
  31   1.0000      -0.803977       -21.8773
  32   1.0000      -0.784044       -21.3349
  33   1.0000      -0.775142       -21.0927
  34   1.0000      -0.697706       -18.9855
  35   1.0000      -0.691941       -18.8287
  36   1.0000      -0.683102       -18.5881
  37   1.0000      -0.659442       -17.9443
  38   1.0000      -0.650101       -17.6902
  39   1.0000      -0.645721       -17.5710
  40   1.0000      -0.616529       -16.7766
  41   1.0000      -0.602706       -16.4005
  42   1.0000      -0.590015       -16.0551
  43   1.0000      -0.583903       -15.8888
  44   1.0000      -0.580912       -15.8074
  45   1.0000      -0.570128       -15.5140
  46   1.0000      -0.563642       -15.3375
  47   1.0000      -0.557984       -15.1835
  48   1.0000      -0.557168       -15.1613
  49   1.0000      -0.550035       -14.9672
  50   1.0000      -0.544658       -14.8209
  51   1.0000      -0.541322       -14.7301
  52   1.0000      -0.534854       -14.5541
  53   1.0000      -0.525590       -14.3020
  54   1.0000      -0.514138       -13.9904
  55   1.0000      -0.506145       -13.7729
  56   1.0000      -0.485598       -13.2138
  57   1.0000      -0.420796       -11.4504
  58   1.0000      -0.416724       -11.3396
  59   1.0000      -0.408523       -11.1165
  60   1.0000      -0.406294       -11.0558
  61   1.0000      -0.394983       -10.7480
  62   1.0000      -0.391896       -10.6640
  63   1.0000      -0.387870       -10.5545
  64   1.0000      -0.380532       -10.3548
  65   1.0000      -0.340845        -9.2749
  66   1.0000      -0.325698        -8.8627
  67   0.0000       0.006416         0.1746
  68   0.0000       0.028683         0.7805
  69   0.0000       0.031683         0.8621
  70   0.0000       0.039504         1.0750
  71   0.0000       0.056052         1.5253

                 SPIN DOWN ORBITALS
  NO   OCC          E(Eh)            E(eV)
   0   1.0000     -19.328067      -525.9434
   1   1.0000     -19.327694      -525.9333
   2   1.0000     -19.318844      -525.6925
   3   1.0000     -19.314071      -525.5626
   4   1.0000     -14.563677      -396.2978
   5   1.0000     -14.558147      -396.1473
   6   1.0000     -14.557352      -396.1257
   7   1.0000     -14.555795      -396.0833
   8   1.0000     -10.503480      -285.8142
   9   1.0000     -10.499674      -285.7107
  10   1.0000     -10.479815      -285.1703
  11   1.0000     -10.478812      -285.1430
  12   1.0000     -10.450507      -284.3728
  13   1.0000     -10.447233      -284.2837
  14   1.0000     -10.413890      -283.3763
  15   1.0000     -10.400943      -283.0240
  16   1.0000     -10.375336      -282.3272
  17   1.0000     -10.373986      -282.2905
  18   1.0000      -1.218407       -33.1545
  19   1.0000      -1.212473       -32.9931
  20   1.0000      -1.190754       -32.4021
  21   1.0000      -1.188556       -32.3422
  22   1.0000      -1.113746       -30.3066
  23   1.0000      -1.093058       -29.7436
  24   1.0000      -1.062592       -28.9146
  25   1.0000      -1.052726       -28.6461
  26   1.0000      -0.957833       -26.0640
  27   1.0000      -0.934728       -25.4353
  28   1.0000      -0.878373       -23.9017
  29   1.0000      -0.832535       -22.6544
  30   1.0000      -0.819068       -22.2880
  31   1.0000      -0.798677       -21.7331
  32   1.0000      -0.782798       -21.3010
  33   1.0000      -0.773592       -21.0505
  34   1.0000      -0.691665       -18.8212
  35   1.0000      -0.685637       -18.6571
  36   1.0000      -0.677815       -18.4443
  37   1.0000      -0.652786       -17.7632
  38   1.0000      -0.642890       -17.4939
  39   1.0000      -0.639057       -17.3896
  40   1.0000      -0.614177       -16.7126
  41   1.0000      -0.597953       -16.2711
  42   1.0000      -0.583118       -15.8674
  43   1.0000      -0.574773       -15.6404
  44   1.0000      -0.569605       -15.4997
  45   1.0000      -0.564613       -15.3639
  46   1.0000      -0.559036       -15.2121
  47   1.0000      -0.554233       -15.0814
  48   1.0000      -0.549828       -14.9616
  49   1.0000      -0.540422       -14.7056
  50   1.0000      -0.538188       -14.6448
  51   1.0000      -0.533407       -14.5147
  52   1.0000      -0.528666       -14.3857
  53   1.0000      -0.514636       -14.0039
  54   1.0000      -0.502497       -13.6736
  55   1.0000      -0.501387       -13.6434
  56   1.0000      -0.479752       -13.0547
  57   1.0000      -0.416386       -11.3304
  58   1.0000      -0.412896       -11.2355
  59   1.0000      -0.402176       -10.9438
  60   1.0000      -0.393623       -10.7110
  61   1.0000      -0.386472       -10.5164
  62   1.0000      -0.383846       -10.4450
  63   1.0000      -0.381156       -10.3718
  64   1.0000      -0.370762       -10.0889
  65   0.0000      -0.063575        -1.7300
  66   0.0000      -0.042022        -1.1435
  67   0.0000       0.006043         0.1644
  68   0.0000       0.028531         0.7764
  69   0.0000       0.031346         0.8530

----------------------------------------------------------------------------------------------------
          SPIN FLIP ABSORPTION SPECTRUM VIA TRANSITION ELECTRIC DIPOLE MOMENTS
----------------------------------------------------------------------------------------------------
     Transition      Energy     Energy  Wavelength fosc(D2)      D2        DX        DY        DZ
                      (eV)      (cm-1)    (nm)                 (au**2)    (au)      (au)      (au)
----------------------------------------------------------------------------------------------------
  1-3A  ->  2-3A    0.076478     616.8  16211.7   0.000000320   0.00017   0.00317  -0.00169   0.01256

Dispersion correction             ... done (  0.1 sec)

MULLIKEN ATOMIC CHARGES AND SPIN DENSITIES
------------------------------------------
   0 O :   -0.678871   -0.039285
   1 O :   -0.680687    0.033461
   2 O :   -0.652402   -0.001569
   3 O :   -0.640172    0.000566
   4 N :   -0.280784    0.003286
   5 N :   -0.293374    0.002093
   6 N :    0.085726   -0.006609
   7 N :    0.061404    0.008643
   8 C :    0.845868    0.422487
   9 C :    0.407523    0.405763
  10 C :   -0.179839   -0.269085
  11 C :    0.499030   -0.114223
  12 C :   -1.207664    0.017997
  13 C :   -1.149697    0.002530
  14 C :    0.000566   -0.367136
  15 C :    0.044742   -0.196930
  16 C :    0.417844    0.022743
  17 C :    0.360306    0.008866
  18 H :    0.602798    0.000911
  19 H :    0.513871    0.003817
  20 H :    0.313833   -0.006517
  21 H :    0.227307    0.018883
  22 H :    0.317454    0.007974
  23 H :    0.325445    0.014768
  24 H :    0.232641    0.021614
  25 H :    0.311005   -0.000956
  26 H :    0.067623    0.001037
  27 H :    0.059260    0.000131
  28 H :    0.036547    0.003585
  29 H :    0.032696    0.001155
Sum of atomic charges       :    0.0000000

LOEWDIN ATOMIC CHARGES AND SPIN DENSITIES
-----------------------------------------
   0 O :    0.089669   -0.035930
   1 O :    0.094667    0.028869
   2 O :    0.093534   -0.001276
   3 O :    0.100601    0.000798
   4 N :    0.253537   -0.000432
   5 N :    0.268702    0.001379
   6 N :    0.324359   -0.005542
   7 N :    0.325995    0.002378
   8 C :    0.022185   -0.099873
   9 C :   -0.034651    0.119431
  10 C :   -0.027752   -0.003119
  11 C :   -0.078763    0.003953
  12 C :    0.177374   -0.017983
  13 C :    0.189891    0.017247
  14 C :   -0.417624   -0.023841
  15 C :   -0.408867    0.014301
  16 C :   -0.496112   -0.000190
  17 C :   -0.487689   -0.000110
  18 H :    0.031362   -0.000744
  19 H :    0.045223   -0.000291
  20 H :    0.000476    0.000138
  21 H :   -0.004062   -0.005369
  22 H :    0.008354   -0.003418
  23 H :    0.013887    0.005666
  24 H :   -0.011133    0.004394
  25 H :    0.001320   -0.000274
  26 H :   -0.029202   -0.000078
  27 H :   -0.028233    0.000158
  28 H :   -0.009584   -0.000450
  29 H :   -0.007464    0.000205

  Mayer bond orders larger than 0.100000
B(  0-O , 14-C ) :   1.3297 B(  1-O , 15-C ) :   1.4089 B(  2-O , 16-C ) :   1.5140
B(  3-O , 17-C ) :   1.5380 B(  4-N ,  5-N ) :   0.1218 B(  4-N ,  8-C ) :   0.2145
B(  4-N , 10-C ) :   0.3387 B(  4-N , 16-C ) :   1.0338 B(  4-N , 26-H ) :   1.0889
B(  5-N ,  9-C ) :   0.3343 B(  5-N , 11-C ) :   0.1292 B(  5-N , 17-C ) :   1.1451
B(  5-N , 27-H ) :   1.0765 B(  6-N ,  8-C ) :  -0.1221 B(  6-N , 10-C ) :   0.1084
B(  6-N , 14-C ) :   1.0686 B(  6-N , 16-C ) :   0.9684 B(  6-N , 28-H ) :   1.0928
B(  7-N , 11-C ) :   0.1323 B(  7-N , 15-C ) :   1.0030 B(  7-N , 17-C ) :   0.9538
B(  7-N , 29-H ) :   1.0889 B(  8-C ,  9-C ) :   0.1122 B(  8-C , 10-C ) :   0.2402
B(  8-C , 12-C ) :   0.5122 B(  8-C , 14-C ) :   0.6633 B(  8-C , 18-H ) :  -0.1223
B(  8-C , 20-H ) :  -0.1086 B(  9-C , 10-C ) :   0.2072 B(  9-C , 11-C ) :   0.2836
B(  9-C , 13-C ) :   0.5884 B(  9-C , 15-C ) :   0.8014 B( 10-C , 11-C ) :   0.6305
B( 10-C , 18-H ) :   0.6848 B( 11-C , 15-C ) :  -0.2170 B( 11-C , 17-C ) :  -0.1999
B( 11-C , 19-H ) :   0.8243 B( 12-C , 20-H ) :   1.0009 B( 12-C , 21-H ) :   0.8878
B( 12-C , 22-H ) :   0.9687 B( 13-C , 23-H ) :   0.9394 B( 13-C , 24-H ) :   0.8554
B( 13-C , 25-H ) :   0.9989

Dispersion correction           -0.058230609
FINAL SINGLE POINT ENERGY      -908.789586173214

DIPOLE MOMENT
-------------

Method             : TDA/CIS
Type of density    : Electron Density
Level              : Relaxed density
State              :   2
Multiplicity       :   3
Irrep              :   0
Energy             :     0.0000000000000000 Eh
Relativity type    :
Basis              : AO
                                X                 Y                 Z
Electronic contribution:     -2.697159421     -10.296738095      -7.298206114
Nuclear contribution   :      2.436392508      11.957396478      10.195124096
                        -----------------------------------------
Total Dipole Moment    :     -0.260766913       1.660658384       2.896917983
                        -----------------------------------------
Magnitude (a.u.)       :      3.349316266
Magnitude (Debye)      :      8.513285385

Rotational constants in cm-1:             0.018879             0.015236             0.012215
Rotational constants in MHz :           565.989049           456.775704           366.205931

                             ****ORCA TERMINATED NORMALLY****
TOTAL RUN TIME: 0 days 0 hours 5 minutes 33 seconds 178 msec
