                         Program Version 6.0.0  -   RELEASE  -
|  1> ! Engrad def2-TZVPPD wB97M-D3BJ
|  2> %pal nprocs 8 end%pal nprocs 64 end
|  3> %tddft
|  4>  Iroot 1 Nroots 3
|  5> sf true
|  6> end
|  7> *xyz 0 3
|  8> O   0.96506214 1.00349213 0.19838334
|  9> C   0.78472856 -0.30594479 0.00809818
| 10> C   -0.6358869 -0.588448 0.00745727
| 11> H   1.28266249 -0.94104278 0.76324598
| 12> H   1.2219534 -0.64426625 -0.94848
| 13> H   -1.18029803 -0.8772204 -0.8828808
| 14> H   -1.20858695 -0.212368 0.83182155
| 15> *
| 16>
| 17>                          ****END OF INPUT****

CARTESIAN COORDINATES (ANGSTROEM)
---------------------------------
  O      0.965062    1.003492    0.198383
  C      0.784729   -0.305945    0.008098
  C     -0.635887   -0.588448    0.007457
  H      1.282662   -0.941043    0.763246
  H      1.221953   -0.644266   -0.948480
  H     -1.180298   -0.877220   -0.882881
  H     -1.208587   -0.212368    0.831822

 Total Charge           Charge          ....    0
 Multiplicity           Mult            ....    3
 Number of Electrons    NEL             ....   24
 Basis Dimension        Dim             ....  182

ORBITAL ENERGIES
----------------
                 SPIN UP ORBITALS
  NO   OCC          E(Eh)            E(eV)
   0   1.0000     -19.390070      -527.6306
   1   1.0000     -10.408523      -283.2303
   2   1.0000     -10.357512      -281.8422
   3   1.0000      -1.185945       -32.2712
   4   1.0000      -0.880788       -23.9675
   5   1.0000      -0.735684       -20.0190
   6   1.0000      -0.625587       -17.0231
   7   1.0000      -0.595463       -16.2034
   8   1.0000      -0.560416       -15.2497
   9   1.0000      -0.513827       -13.9819
  10   1.0000      -0.437755       -11.9119
  11   1.0000      -0.416073       -11.3219
  12   1.0000      -0.321437        -8.7467
  13   0.0000       0.041384         1.1261
  14   0.0000       0.062569         1.7026
  15   0.0000       0.076177         2.0729
  16   0.0000       0.086984         2.3670
  17   0.0000       0.114384         3.1125

                 SPIN DOWN ORBITALS
  NO   OCC          E(Eh)            E(eV)
   0   1.0000     -19.365942      -526.9741
   1   1.0000     -10.409869      -283.2669
   2   1.0000     -10.344328      -281.4835
   3   1.0000      -1.132798       -30.8250
   4   1.0000      -0.847097       -23.0507
   5   1.0000      -0.709704       -19.3120
   6   1.0000      -0.593855       -16.1596
   7   1.0000      -0.554858       -15.0985
   8   1.0000      -0.536274       -14.5928
   9   1.0000      -0.484490       -13.1837
  10   1.0000      -0.383082       -10.4242
  11   0.0000      -0.062071        -1.6890
  12   0.0000       0.002550         0.0694
  13   0.0000       0.040270         1.0958
  14   0.0000       0.062911         1.7119
  15   0.0000       0.075936         2.0663

----------------------------------------------------------------------------------------------------
          SPIN FLIP ABSORPTION SPECTRUM VIA TRANSITION ELECTRIC DIPOLE MOMENTS
----------------------------------------------------------------------------------------------------
     Transition      Energy     Energy  Wavelength fosc(D2)      D2        DX        DY        DZ
                      (eV)      (cm-1)    (nm)                 (au**2)    (au)      (au)      (au)
----------------------------------------------------------------------------------------------------
  1-3A  ->  2-3A    0.570794    4603.8  2172.1   0.000090322   0.00646  -0.01730   0.01587   0.07686
  1-3A  ->  3-3A    1.366724   11023.4   907.2   0.008446339   0.25225   0.46728   0.17835  -0.04575

Dispersion correction             ... done (  0.1 sec)

MULLIKEN ATOMIC CHARGES AND SPIN DENSITIES
------------------------------------------
   0 O :   -0.500791   -0.439701
   1 C :   -0.063213   -0.045558
   2 C :   -0.391073    0.376018
   3 H :    0.223358    0.070633
   4 H :    0.223500   -0.048519
   5 H :    0.215331    0.042873
   6 H :    0.292887    0.044255
Sum of atomic charges       :    0.0000000

LOEWDIN ATOMIC CHARGES AND SPIN DENSITIES
-----------------------------------------
   0 O :   -0.032986   -0.441505
   1 C :   -0.377560    0.005478
   2 C :    0.387067    0.372666
   3 H :    0.034925    0.023654
   4 H :    0.027864   -0.048595
   5 H :   -0.013085    0.043518
   6 H :   -0.026226    0.044785

  Mayer bond orders larger than 0.100000
B(  0-O ,  1-C ) :   0.9358 B(  0-O ,  2-C ) :   0.5189 B(  1-C ,  2-C ) :   0.7958
B(  1-C ,  3-H ) :   0.9946 B(  1-C ,  4-H ) :   0.9991 B(  2-C ,  5-H ) :   0.9601
B(  2-C ,  6-H ) :   0.9318

Dispersion correction           -0.005606981
FINAL SINGLE POINT ENERGY      -153.767613037940

DIPOLE MOMENT
-------------

Method             : TDA/CIS
Type of density    : Electron Density
Level              : Relaxed density
State              :   1
Multiplicity       :   3
Irrep              :   0
Energy             :     0.0000000000000000 Eh
Relativity type    :
Basis              : AO
                                X                 Y                 Z
Electronic contribution:      0.538815967       1.431621652       0.298560361
Nuclear contribution   :     -1.360478906      -2.718411851      -0.485800385
                        -----------------------------------------
Total Dipole Moment    :     -0.821662939      -1.286790199      -0.187240024
                        -----------------------------------------
Magnitude (a.u.)       :      1.538186538
Magnitude (Debye)      :      3.909759467

Rotational constants in cm-1:             1.351298             0.388314             0.334753
Rotational constants in MHz :         40510.883875         11641.352739         10035.654932

                             ****ORCA TERMINATED NORMALLY****
TOTAL RUN TIME: 0 days 0 hours 0 minutes 28 seconds 275 msec
