                         Program Version 6.0.0  -   RELEASE  -
|  1> ! SP wB97M-D3BJ def2-TZVPPD
|  2> %pal nprocs 8 end
|  3> *xyz 0 2
|  4> N   0.0 0.0 0.0
|  5> *
|  6>
|  7>                          ****END OF INPUT****

CARTESIAN COORDINATES (ANGSTROEM)
---------------------------------
  N      0.000000    0.000000    0.000000

 Total Charge           Charge          ....    0
 Multiplicity           Mult            ....    2
 Number of Electrons    NEL             ....    7
 Basis Dimension        Dim             ....   37

ORBITAL ENERGIES
----------------
                 SPIN UP ORBITALS
  NO   OCC          E(Eh)            E(eV)
   0   1.0000     -14.646399      -398.5488
   1   1.0000      -0.885487       -24.0953
   2   1.0000      -0.456448       -12.4206
   3   1.0000      -0.406598       -11.0641
   4   0.0000      -0.115382        -3.1397
   5   0.0000       0.087974         2.3939
   6   0.0000       0.345453         9.4003
   7   0.0000       0.349760         9.5175
   8   0.0000       0.357051         9.7159

                 SPIN DOWN ORBITALS
  NO   OCC          E(Eh)            E(eV)
   0   1.0000     -14.625927      -397.9917
   1   1.0000      -0.819633       -22.3033
   2   1.0000      -0.378662       -10.3039
   3   0.0000      -0.088663        -2.4126
   4   0.0000      -0.044103        -1.2001
   5   0.0000       0.087554         2.3825
   6   0.0000       0.343494         9.3469
   7   0.0000       0.344352         9.3703

MULLIKEN ATOMIC CHARGES AND SPIN POPULATIONS
--------------------------------------------
   0 N :   -0.000000    1.000000
Sum of atomic charges         :   -0.0000000

LOEWDIN ATOMIC CHARGES AND SPIN POPULATIONS
-------------------------------------------
   0 N :   -0.000000    1.000000

Dispersion correction            0.000000000
FINAL SINGLE POINT ENERGY       -54.520419740406

DIPOLE MOMENT
-------------

Method             : SCF
Type of density    : Electron Density
Multiplicity       :   2
Irrep              :   0
Energy             :   -54.5204197404056785 Eh
Relativity type    :
Basis              : AO
                                X                 Y                 Z
Electronic contribution:     -0.000000000       0.000000002       0.000000001
Nuclear contribution   :      0.000000000       0.000000000       0.000000000
                        -----------------------------------------
Total Dipole Moment    :     -0.000000000       0.000000002       0.000000001
                        -----------------------------------------
Magnitude (a.u.)       :      0.000000002
Magnitude (Debye)      :      0.000000006

Rotational constants in cm-1:             0.000000             0.000000             0.000000
Rotational constants in MHz :             0.000000             0.000000             0.000000

                             ****ORCA TERMINATED NORMALLY****
TOTAL RUN TIME: 0 days 0 hours 0 minutes 2 seconds 273 msec
