                         Program Version 6.0.0  -   RELEASE  -
|  1> ! Engrad def2-TZVPPD wB97M-D3BJ
|  2> %pal nprocs 8 end%pal nprocs 32 end
|  3>  %tddft nroots 2 Iroot 2
|  4> sf true
|  5> end
|  6> *xyz 0 3
|  7> O   2.82413898388048 1.0844794307907 -0.70916641288111
|  8> O   -0.40353796735317 0.81207410207913 -2.04061224892451
|  9> O   0.64618112188969 -2.81982811668555 -1.4989234980002
| 10> O   -2.66208015182569 -1.71356945068675 0.98061397993013
| 11> N   0.69839329340552 -2.01740963688127 0.63008300227041
| 12> N   -2.41878881158307 0.51701432348241 1.37658187586561
| 13> N   1.85967675198255 -0.94073954769263 -1.04439560279689
| 14> N   -1.62449486107949 -0.40523131465355 -0.57444743877293
| 15> C   1.66334310043003 0.10939417989924 1.11250974475522
| 16> C   -1.02643055656234 1.86298401828489 -0.00554232826146
| 17> C   0.96376216534415 -0.97104504618591 1.48201609080241
| 18> C   -1.80500355026834 1.71516171731501 1.07019102837477
| 19> C   1.96772217379314 1.25230718924767 2.0260603119272
| 20> C   -0.29916912439857 3.12044349012907 -0.35882982495559
| 21> C   2.17737165234943 0.16495126596753 -0.25705237317431
| 22> C   -0.96791752444866 0.76158343026977 -0.97066986547786
| 23> C   1.04051433314178 -1.99375515800785 -0.70543626901669
| 24> C   -2.26697453006739 -0.62420212114251 0.62167390513773
| 25> H   0.56028641254155 -1.08070561033746 2.47762070145765
| 26> H   -1.95486439875937 2.50631937101129 1.78895908986192
| 27> H   1.55401098150161 2.17945124701233 1.63430996955818
| 28> H   1.55442820630198 1.0748980342982 3.01648684875707
| 29> H   3.04242143026958 1.39869834344765 2.11416939258724
| 30> H   -0.67975188352899 3.53575496656065 -1.29006113188366
| 31> H   -0.4021430951874 3.86345828807604 0.42877866020001
| 32> H   0.75796044852277 2.91255829627419 -0.51718815265398
| 33> H   0.02834482363937 -2.72249586838149 0.88692709285259
| 34> H   -2.91431456163944 0.39717331095823 2.24121220453139
| 35> H   2.07328368878965 -0.85927967356884 -2.02645592025227
| 36> H   -1.53376855108136 -1.20544346088025 -1.18481283181806
| 37> *
| 38>
| 39>                          ****END OF INPUT****

CARTESIAN COORDINATES (ANGSTROEM)
---------------------------------
  O      2.824139    1.084479   -0.709166
  O     -0.403538    0.812074   -2.040612
  O      0.646181   -2.819828   -1.498923
  O     -2.662080   -1.713569    0.980614
  N      0.698393   -2.017410    0.630083
  N     -2.418789    0.517014    1.376582
  N      1.859677   -0.940740   -1.044396
  N     -1.624495   -0.405231   -0.574447
  C      1.663343    0.109394    1.112510
  C     -1.026431    1.862984   -0.005542
  C      0.963762   -0.971045    1.482016
  C     -1.805004    1.715162    1.070191
  C      1.967722    1.252307    2.026060
  C     -0.299169    3.120443   -0.358830
  C      2.177372    0.164951   -0.257052
  C     -0.967918    0.761583   -0.970670
  C      1.040514   -1.993755   -0.705436
  C     -2.266975   -0.624202    0.621674
  H      0.560286   -1.080706    2.477621
  H     -1.954864    2.506319    1.788959
  H      1.554011    2.179451    1.634310
  H      1.554428    1.074898    3.016487
  H      3.042421    1.398698    2.114169
  H     -0.679752    3.535755   -1.290061
  H     -0.402143    3.863458    0.428779
  H      0.757960    2.912558   -0.517188
  H      0.028345   -2.722496    0.886927
  H     -2.914315    0.397173    2.241212
  H      2.073284   -0.859280   -2.026456
  H     -1.533769   -1.205443   -1.184813

 Total Charge           Charge          ....    0
 Multiplicity           Mult            ....    3
 Number of Electrons    NEL             ....  132
 Basis Dimension        Dim             ....  882

ORBITAL ENERGIES
----------------
                 SPIN UP ORBITALS
  NO   OCC          E(Eh)            E(eV)
   0   1.0000     -19.330655      -526.0139
   1   1.0000     -19.328945      -525.9673
   2   1.0000     -19.323579      -525.8213
   3   1.0000     -19.315977      -525.6145
   4   1.0000     -14.591955      -397.0673
   5   1.0000     -14.584369      -396.8608
   6   1.0000     -14.570806      -396.4918
   7   1.0000     -14.546173      -395.8215
   8   1.0000     -10.515117      -286.1309
   9   1.0000     -10.507525      -285.9243
  10   1.0000     -10.479433      -285.1599
  11   1.0000     -10.453741      -284.4608
  12   1.0000     -10.434404      -283.9346
  13   1.0000     -10.405480      -283.1475
  14   1.0000     -10.396024      -282.8902
  15   1.0000     -10.382384      -282.5190
  16   1.0000     -10.368462      -282.1402
  17   1.0000     -10.354388      -281.7572
  18   1.0000      -1.228177       -33.4204
  19   1.0000      -1.223359       -33.2893
  20   1.0000      -1.194729       -32.5102
  21   1.0000      -1.186479       -32.2857
  22   1.0000      -1.123667       -30.5765
  23   1.0000      -1.123062       -30.5601
  24   1.0000      -1.071002       -29.1435
  25   1.0000      -1.057827       -28.7849
  26   1.0000      -0.973232       -26.4830
  27   1.0000      -0.958157       -26.0728
  28   1.0000      -0.855619       -23.2826
  29   1.0000      -0.848780       -23.0965
  30   1.0000      -0.811478       -22.0814
  31   1.0000      -0.807418       -21.9709
  32   1.0000      -0.794940       -21.6314
  33   1.0000      -0.786368       -21.3982
  34   1.0000      -0.699195       -19.0261
  35   1.0000      -0.696664       -18.9572
  36   1.0000      -0.692917       -18.8552
  37   1.0000      -0.688528       -18.7358
  38   1.0000      -0.645211       -17.5571
  39   1.0000      -0.636819       -17.3287
  40   1.0000      -0.626832       -17.0570
  41   1.0000      -0.603635       -16.4258
  42   1.0000      -0.598550       -16.2874
  43   1.0000      -0.591707       -16.1012
  44   1.0000      -0.572409       -15.5760
  45   1.0000      -0.568635       -15.4733
  46   1.0000      -0.567430       -15.4406
  47   1.0000      -0.552601       -15.0370
  48   1.0000      -0.549184       -14.9441
  49   1.0000      -0.545439       -14.8422
  50   1.0000      -0.529096       -14.3974
  51   1.0000      -0.526241       -14.3198
  52   1.0000      -0.517712       -14.0877
  53   1.0000      -0.515695       -14.0328
  54   1.0000      -0.507499       -13.8098
  55   1.0000      -0.501334       -13.6420
  56   1.0000      -0.492695       -13.4069
  57   1.0000      -0.479788       -13.0557
  58   1.0000      -0.421113       -11.4591
  59   1.0000      -0.418280       -11.3820
  60   1.0000      -0.407082       -11.0773
  61   1.0000      -0.398103       -10.8329
  62   1.0000      -0.388768       -10.5789
  63   1.0000      -0.385335       -10.4855
  64   1.0000      -0.383294       -10.4300
  65   1.0000      -0.348474        -9.4825
  66   1.0000      -0.207415        -5.6440
  67   0.0000       0.011500         0.3129
  68   0.0000       0.019687         0.5357
  69   0.0000       0.032827         0.8933
  70   0.0000       0.037306         1.0151
  71   0.0000       0.043844         1.1931

                 SPIN DOWN ORBITALS
  NO   OCC          E(Eh)            E(eV)
   0   1.0000     -19.328925      -525.9668
   1   1.0000     -19.328746      -525.9619
   2   1.0000     -19.323597      -525.8218
   3   1.0000     -19.309638      -525.4420
   4   1.0000     -14.586635      -396.9225
   5   1.0000     -14.584185      -396.8559
   6   1.0000     -14.570824      -396.4923
   7   1.0000     -14.545269      -395.7969
   8   1.0000     -10.515124      -286.1311
   9   1.0000     -10.507914      -285.9349
  10   1.0000     -10.479416      -285.1594
  11   1.0000     -10.453463      -284.4532
  12   1.0000     -10.434191      -283.9288
  13   1.0000     -10.396008      -282.8898
  14   1.0000     -10.385894      -282.6146
  15   1.0000     -10.382419      -282.5200
  16   1.0000     -10.368930      -282.1529
  17   1.0000     -10.354373      -281.7568
  18   1.0000      -1.227753       -33.4088
  19   1.0000      -1.219333       -33.1797
  20   1.0000      -1.194672       -32.5087
  21   1.0000      -1.177089       -32.0302
  22   1.0000      -1.123240       -30.5649
  23   1.0000      -1.112164       -30.2635
  24   1.0000      -1.070896       -29.1406
  25   1.0000      -1.052321       -28.6351
  26   1.0000      -0.958763       -26.0893
  27   1.0000      -0.948532       -25.8109
  28   1.0000      -0.848799       -23.0970
  29   1.0000      -0.844314       -22.9750
  30   1.0000      -0.811268       -22.0757
  31   1.0000      -0.797209       -21.6932
  32   1.0000      -0.793846       -21.6017
  33   1.0000      -0.779579       -21.2134
  34   1.0000      -0.696520       -18.9533
  35   1.0000      -0.692995       -18.8573
  36   1.0000      -0.687202       -18.6997
  37   1.0000      -0.680385       -18.5142
  38   1.0000      -0.644100       -17.5268
  39   1.0000      -0.628345       -17.0981
  40   1.0000      -0.620549       -16.8860
  41   1.0000      -0.598463       -16.2850
  42   1.0000      -0.592052       -16.1105
  43   1.0000      -0.583438       -15.8762
  44   1.0000      -0.568638       -15.4734
  45   1.0000      -0.561275       -15.2731
  46   1.0000      -0.558803       -15.2058
  47   1.0000      -0.551737       -15.0135
  48   1.0000      -0.541517       -14.7354
  49   1.0000      -0.537983       -14.6393
  50   1.0000      -0.520524       -14.1642
  51   1.0000      -0.518728       -14.1153
  52   1.0000      -0.515473       -14.0267
  53   1.0000      -0.504626       -13.7316
  54   1.0000      -0.501824       -13.6553
  55   1.0000      -0.497512       -13.5380
  56   1.0000      -0.478753       -13.0275
  57   1.0000      -0.446732       -12.1562
  58   1.0000      -0.420647       -11.4464
  59   1.0000      -0.413095       -11.2409
  60   1.0000      -0.403327       -10.9751
  61   1.0000      -0.388541       -10.5727
  62   1.0000      -0.376428       -10.2431
  63   1.0000      -0.374248       -10.1838
  64   1.0000      -0.348247        -9.4763
  65   0.0000      -0.105064        -2.8589
  66   0.0000       0.010749         0.2925
  67   0.0000       0.020021         0.5448
  68   0.0000       0.030214         0.8222
  69   0.0000       0.036075         0.9816

----------------------------------------------------------------------------------------------------
          SPIN FLIP ABSORPTION SPECTRUM VIA TRANSITION ELECTRIC DIPOLE MOMENTS
----------------------------------------------------------------------------------------------------
     Transition      Energy     Energy  Wavelength fosc(D2)      D2        DX        DY        DZ
                      (eV)      (cm-1)    (nm)                 (au**2)    (au)      (au)      (au)
----------------------------------------------------------------------------------------------------
  1-3A  ->  2-3A    4.231219   34127.1   293.0   0.001901073   0.01834   0.06458   0.08826  -0.07987

Dispersion correction             ... done (  0.0 sec)

MULLIKEN ATOMIC CHARGES AND SPIN DENSITIES
------------------------------------------
   0 O :   -0.685989    0.007803
   1 O :   -0.652026   -0.000292
   2 O :   -0.616455    0.005588
   3 O :   -0.662951    0.000857
   4 N :    0.024574    0.032609
   5 N :   -0.034670   -0.003778
   6 N :   -0.016035   -0.013430
   7 N :    0.011976   -0.002039
   8 C :    1.140497    0.066989
   9 C :    0.475916    0.005027
  10 C :   -0.284828    0.035873
  11 C :    0.117562   -0.001248
  12 C :   -1.300711   -0.016489
  13 C :   -1.427179    0.002934
  14 C :    0.215485   -0.112777
  15 C :    0.613514   -0.010801
  16 C :    0.433545    0.005895
  17 C :    0.438477   -0.003139
  18 H :    0.105366   -0.016888
  19 H :    0.148680    0.001262
  20 H :    0.201895    0.013803
  21 H :    0.342594   -0.002225
  22 H :    0.340203    0.007344
  23 H :    0.359245   -0.000020
  24 H :    0.330295   -0.000277
  25 H :    0.226237   -0.000664
  26 H :    0.079276   -0.002331
  27 H :    0.021512    0.000200
  28 H :    0.024640    0.001339
  29 H :    0.029354   -0.001125
Sum of atomic charges       :    0.0000000

LOEWDIN ATOMIC CHARGES AND SPIN DENSITIES
-----------------------------------------
   0 O :    0.076157    0.005900
   1 O :    0.104172   -0.000454
   2 O :    0.106566    0.004210
   3 O :    0.073967   -0.000064
   4 N :    0.313463    0.025584
   5 N :    0.274979   -0.002095
   6 N :    0.315801   -0.008858
   7 N :    0.340261   -0.000421
   8 C :   -0.099464    0.008905
   9 C :   -0.138904    0.000051
  10 C :    0.007760   -0.016487
  11 C :    0.062007   -0.000614
  12 C :    0.212510    0.002390
  13 C :    0.177517    0.000047
  14 C :   -0.437654   -0.009801
  15 C :   -0.391559   -0.000210
  16 C :   -0.477456   -0.002707
  17 C :   -0.487243   -0.000423
  18 H :    0.003237   -0.007893
  19 H :    0.035680   -0.000191
  20 H :   -0.007465    0.001164
  21 H :   -0.004971   -0.000596
  22 H :    0.013646    0.001188
  23 H :    0.003146    0.000035
  24 H :   -0.005641   -0.000047
  25 H :   -0.013784    0.000014
  26 H :   -0.010799    0.002559
  27 H :   -0.023002   -0.000139
  28 H :   -0.009594   -0.001017
  29 H :   -0.013336   -0.000032

  Mayer bond orders larger than 0.100000
B(  0-O , 14-C ) :   1.2723 B(  1-O , 15-C ) :   1.4259 B(  2-O , 16-C ) :   1.5780
B(  3-O , 17-C ) :   1.5390 B(  4-N , 10-C ) :   0.8889 B(  4-N , 16-C ) :   0.9276
B(  4-N , 26-H ) :   1.0869 B(  5-N , 11-C ) :   0.9714 B(  5-N , 17-C ) :   1.0390
B(  5-N , 27-H ) :   1.1335 B(  6-N , 14-C ) :   0.8847 B(  6-N , 16-C ) :   0.9366
B(  6-N , 28-H ) :   1.1046 B(  7-N , 15-C ) :   0.9786 B(  7-N , 17-C ) :   0.9413
B(  7-N , 29-H ) :   1.1211 B(  8-C , 10-C ) :   0.4948 B(  8-C , 12-C ) :   0.3956
B(  8-C , 14-C ) :   0.8747 B(  8-C , 18-H ) :  -0.1291 B(  8-C , 21-H ) :  -0.1028
B(  9-C , 11-C ) :   1.2176 B(  9-C , 13-C ) :   0.3154 B(  9-C , 15-C ) :   0.8634
B(  9-C , 24-H ) :  -0.1025 B(  9-C , 25-H ) :  -0.1227 B( 10-C , 12-C ) :  -0.1052
B( 10-C , 14-C ) :  -0.1132 B( 10-C , 18-H ) :   1.2024 B( 11-C , 13-C ) :  -0.1710
B( 11-C , 19-H ) :   1.0937 B( 12-C , 20-H ) :   1.0105 B( 12-C , 21-H ) :   0.9786
B( 12-C , 22-H ) :   0.8941 B( 13-C , 23-H ) :   0.9022 B( 13-C , 24-H ) :   1.0342
B( 13-C , 25-H ) :   1.0143

Dispersion correction           -0.057709771
FINAL SINGLE POINT ENERGY      -908.769932083510

DIPOLE MOMENT
-------------

Method             : TDA/CIS
Type of density    : Electron Density
Level              : Relaxed density
State              :   2
Multiplicity       :   3
Irrep              :   0
Energy             :     0.0000000000000000 Eh
Relativity type    :
Basis              : AO
                                X                 Y                 Z
Electronic contribution:     -2.614279530     -10.398926523      -5.984307772
Nuclear contribution   :      1.722923591      11.434267167       8.436872345
                        -----------------------------------------
Total Dipole Moment    :     -0.891355938       1.035340644       2.452564573
                        -----------------------------------------
Magnitude (a.u.)       :      2.807404254
Magnitude (Debye)      :      7.135854518

Rotational constants in cm-1:             0.017856             0.015397             0.012107
Rotational constants in MHz :           535.309113           461.585582           362.958172

                             ****ORCA TERMINATED NORMALLY****
TOTAL RUN TIME: 0 days 0 hours 27 minutes 45 seconds 4 msec
