                         Program Version 6.0.0  -   RELEASE  -
|  1> ! Engrad def2-TZVPPD wB97M-D3BJ
|  2> %pal nprocs 8 end%pal nprocs 64 end
|  3> %tddft
|  4>  Iroot 2 Nroots 3
|  5> sf true
|  6> end
|  7> *xyz 0 3
|  8> O   1.04119689 -0.78654995 -0.30596465
|  9> C   0.69664186 0.26837642 0.35598121
| 10> C   -0.63472157 0.773574 0.20102123
| 11> H   1.42252237 1.07600413 0.07890348
| 12> H   0.85083878 -0.10457672 1.49040241
| 13> H   -0.64031377 1.86523566 0.04905315
| 14> H   -1.39881426 0.13693604 -0.26223791
| 15> *
| 16>
| 17>                          ****END OF INPUT****

CARTESIAN COORDINATES (ANGSTROEM)
---------------------------------
  O      1.041197   -0.786550   -0.305965
  C      0.696642    0.268376    0.355981
  C     -0.634722    0.773574    0.201021
  H      1.422522    1.076004    0.078903
  H      0.850839   -0.104577    1.490402
  H     -0.640314    1.865236    0.049053
  H     -1.398814    0.136936   -0.262238

 Total Charge           Charge          ....    0
 Multiplicity           Mult            ....    3
 Number of Electrons    NEL             ....   24
 Basis Dimension        Dim             ....  182

ORBITAL ENERGIES
----------------
                 SPIN UP ORBITALS
  NO   OCC          E(Eh)            E(eV)
   0   1.0000     -19.380458      -527.3691
   1   1.0000     -10.416585      -283.4497
   2   1.0000     -10.368619      -282.1445
   3   1.0000      -1.198265       -32.6064
   4   1.0000      -0.886040       -24.1104
   5   1.0000      -0.717778       -19.5317
   6   1.0000      -0.629682       -17.1345
   7   1.0000      -0.596367       -16.2280
   8   1.0000      -0.567096       -15.4315
   9   1.0000      -0.511679       -13.9235
  10   1.0000      -0.431312       -11.7366
  11   1.0000      -0.406455       -11.0602
  12   1.0000      -0.325189        -8.8488
  13   0.0000       0.041788         1.1371
  14   0.0000       0.061644         1.6774
  15   0.0000       0.075701         2.0599
  16   0.0000       0.084634         2.3030
  17   0.0000       0.111997         3.0476

                 SPIN DOWN ORBITALS
  NO   OCC          E(Eh)            E(eV)
   0   1.0000     -19.358129      -526.7615
   1   1.0000     -10.418077      -283.4903
   2   1.0000     -10.355093      -281.7764
   3   1.0000      -1.151268       -31.3276
   4   1.0000      -0.852774       -23.2052
   5   1.0000      -0.689529       -18.7630
   6   1.0000      -0.598755       -16.2929
   7   1.0000      -0.551575       -15.0091
   8   1.0000      -0.537537       -14.6271
   9   1.0000      -0.492838       -13.4108
  10   1.0000      -0.376623       -10.2484
  11   0.0000      -0.055247        -1.5033
  12   0.0000      -0.005027        -0.1368
  13   0.0000       0.042097         1.1455
  14   0.0000       0.062049         1.6884
  15   0.0000       0.075353         2.0505

----------------------------------------------------------------------------------------------------
          SPIN FLIP ABSORPTION SPECTRUM VIA TRANSITION ELECTRIC DIPOLE MOMENTS
----------------------------------------------------------------------------------------------------
     Transition      Energy     Energy  Wavelength fosc(D2)      D2        DX        DY        DZ
                      (eV)      (cm-1)    (nm)                 (au**2)    (au)      (au)      (au)
----------------------------------------------------------------------------------------------------
  1-3A  ->  2-3A    0.412458    3326.7  3006.0   0.000714640   0.07072  -0.16124   0.19843  -0.07314
  1-3A  ->  3-3A    0.909254    7333.6  1363.6   0.008587327   0.38549   0.33327  -0.38289  -0.35752

Dispersion correction             ... done (  0.2 sec)

MULLIKEN ATOMIC CHARGES AND SPIN DENSITIES
------------------------------------------
   0 O :   -0.359140    0.453543
   1 C :    0.065405    0.011845
   2 C :   -0.426133   -0.311112
   3 H :    0.203216   -0.052679
   4 H :    0.164888    0.008260
   5 H :    0.150822   -0.057272
   6 H :    0.200940   -0.052585
Sum of atomic charges       :    0.0000000

LOEWDIN ATOMIC CHARGES AND SPIN DENSITIES
-----------------------------------------
   0 O :    0.082738    0.422619
   1 C :   -0.398622   -0.027181
   2 C :    0.262636   -0.300929
   3 H :    0.035380   -0.035011
   4 H :    0.106142    0.022112
   5 H :   -0.044911   -0.038416
   6 H :   -0.043363   -0.043193

  Mayer bond orders larger than 0.100000
B(  0-O ,  1-C ) :   0.8823 B(  0-O ,  2-C ) :   0.1123 B(  1-C ,  2-C ) :   0.7739
B(  1-C ,  3-H ) :   0.9753 B(  1-C ,  4-H ) :   0.9055 B(  2-C ,  5-H ) :   1.0535
B(  2-C ,  6-H ) :   0.9971

Dispersion correction           -0.005595366
FINAL SINGLE POINT ENERGY      -153.735175848825

DIPOLE MOMENT
-------------

Method             : TDA/CIS
Type of density    : Electron Density
Level              : Relaxed density
State              :   2
Multiplicity       :   3
Irrep              :   0
Energy             :     0.0000000000000000 Eh
Relativity type    :
Basis              : AO
                                X                 Y                 Z
Electronic contribution:      1.141475850      -1.965680405      -0.747340076
Nuclear contribution   :     -1.273279115       2.527699323       0.997335878
                        -----------------------------------------
Total Dipole Moment    :     -0.131803266       0.562018918       0.249995802
                        -----------------------------------------
Magnitude (a.u.)       :      0.629074929
Magnitude (Debye)      :      1.598981397

Rotational constants in cm-1:             1.578173             0.367221             0.325854
Rotational constants in MHz :         47312.434575         11008.996679          9768.869714

                             ****ORCA TERMINATED NORMALLY****
TOTAL RUN TIME: 0 days 0 hours 0 minutes 26 seconds 117 msec
