                         Program Version 6.0.0  -   RELEASE  -
|  1> ! EnGrad wB97M-D3BJ def2-TZVPPD
|  2> %pal nprocs 8 end%pal nprocs 16 end
|  3> %tddft
|  4>  sf true
|  5>  nroots 2 Iroot 1 end
|  6> *xyz 0 3
|  7> O   0.55111419809645 1.09637843496914 0.27968614200479
|  8> C   0.58204897435333 -0.19780260622792 0.02667808230977
|  9> C   -0.75641672440651 -0.72988177209531 0.01635334439811
| 10> H   1.20776221868348 -0.84843001620565 0.69929314251209
| 11> H   1.03327225583996 -0.41975443576625 -0.96867747013544
| 12> H   -1.18036738913905 -1.27491974059793 -0.81983817161869
| 13> H   -1.43521353342767 -0.34398986407608 0.76650493052936
| 14> *
| 15>
| 16>                          ****END OF INPUT****

CARTESIAN COORDINATES (ANGSTROEM)
---------------------------------
  O      0.551114    1.096378    0.279686
  C      0.582049   -0.197803    0.026678
  C     -0.756417   -0.729882    0.016353
  H      1.207762   -0.848430    0.699293
  H      1.033272   -0.419754   -0.968677
  H     -1.180367   -1.274920   -0.819838
  H     -1.435214   -0.343990    0.766505

 Total Charge           Charge          ....    0
 Multiplicity           Mult            ....    3
 Number of Electrons    NEL             ....   24
 Basis Dimension        Dim             ....  182

ORBITAL ENERGIES
----------------
                 SPIN UP ORBITALS
  NO   OCC          E(Eh)            E(eV)
   0   1.0000     -19.389886      -527.6256
   1   1.0000     -10.411063      -283.2994
   2   1.0000     -10.357467      -281.8410
   3   1.0000      -1.191605       -32.4252
   4   1.0000      -0.882797       -24.0221
   5   1.0000      -0.732650       -19.9364
   6   1.0000      -0.621089       -16.9007
   7   1.0000      -0.603013       -16.4088
   8   1.0000      -0.563539       -15.3347
   9   1.0000      -0.510067       -13.8796
  10   1.0000      -0.438710       -11.9379
  11   1.0000      -0.414472       -11.2784
  12   1.0000      -0.316753        -8.6193
  13   0.0000       0.040964         1.1147
  14   0.0000       0.061881         1.6839
  15   0.0000       0.077251         2.1021
  16   0.0000       0.085163         2.3174
  17   0.0000       0.112598         3.0640

                 SPIN DOWN ORBITALS
  NO   OCC          E(Eh)            E(eV)
   0   1.0000     -19.366706      -526.9949
   1   1.0000     -10.412509      -283.3388
   2   1.0000     -10.344146      -281.4785
   3   1.0000      -1.140815       -31.0432
   4   1.0000      -0.849405       -23.1135
   5   1.0000      -0.705707       -19.2033
   6   1.0000      -0.592304       -16.1174
   7   1.0000      -0.556246       -15.1362
   8   1.0000      -0.537258       -14.6195
   9   1.0000      -0.485910       -13.2223
  10   1.0000      -0.382762       -10.4155
  11   0.0000      -0.064619        -1.7584
  12   0.0000       0.005126         0.1395
  13   0.0000       0.039858         1.0846
  14   0.0000       0.062009         1.6873
  15   0.0000       0.076913         2.0929

----------------------------------------------------------------------------------------------------
          SPIN FLIP ABSORPTION SPECTRUM VIA TRANSITION ELECTRIC DIPOLE MOMENTS
----------------------------------------------------------------------------------------------------
     Transition      Energy     Energy  Wavelength fosc(D2)      D2        DX        DY        DZ
                      (eV)      (cm-1)    (nm)                 (au**2)    (au)      (au)      (au)
----------------------------------------------------------------------------------------------------
  1-3A  ->  2-3A    0.613483    4948.1  2021.0   0.000145106   0.00965   0.07733   0.00357  -0.06052

Dispersion correction             ... done (  0.0 sec)

MULLIKEN ATOMIC CHARGES AND SPIN DENSITIES
------------------------------------------
   0 O :   -0.541644   -0.406358
   1 C :   -0.051147   -0.052396
   2 C :   -0.366722    0.368941
   3 H :    0.238215    0.062396
   4 H :    0.227202   -0.071364
   5 H :    0.223030    0.049374
   6 H :    0.271066    0.049407
Sum of atomic charges       :   -0.0000000

LOEWDIN ATOMIC CHARGES AND SPIN DENSITIES
-----------------------------------------
   0 O :   -0.051152   -0.409320
   1 C :   -0.397117   -0.008392
   2 C :    0.382482    0.375543
   3 H :    0.051542    0.018599
   4 H :    0.044737   -0.063984
   5 H :   -0.013462    0.044874
   6 H :   -0.017029    0.042681

  Mayer bond orders larger than 0.100000
B(  0-O ,  1-C ) :   1.0430 B(  0-O ,  2-C ) :   0.4348 B(  1-C ,  2-C ) :   0.8684
B(  1-C ,  3-H ) :   0.9551 B(  1-C ,  4-H ) :   0.9607 B(  2-C ,  5-H ) :   0.9629
B(  2-C ,  6-H ) :   0.9371

Dispersion correction           -0.005612088
FINAL SINGLE POINT ENERGY      -153.766318378100

DIPOLE MOMENT
-------------

Method             : TDA/CIS
Type of density    : Electron Density
Level              : Relaxed density
State              :   1
Multiplicity       :   3
Irrep              :   0
Energy             :     0.0000000000000000 Eh
Relativity type    :
Basis              : AO
                                X                 Y                 Z
Electronic contribution:      0.270074840       1.500996923       0.380525814
Nuclear contribution   :     -0.885910717      -2.990719166      -0.697696057
                        -----------------------------------------
Total Dipole Moment    :     -0.615835877      -1.489722243      -0.317170243
                        -----------------------------------------
Magnitude (a.u.)       :      1.642900834
Magnitude (Debye)      :      4.175922054

Rotational constants in cm-1:             1.391042             0.390777             0.333848
Rotational constants in MHz :         41702.382052         11715.203107         10008.506520

                             ****ORCA TERMINATED NORMALLY****
TOTAL RUN TIME: 0 days 0 hours 0 minutes 19 seconds 372 msec
