                         Program Version 6.0.0  -   RELEASE  -
|  1> ! Engrad wB97M-D3BJ def2-TZVPPD
|  2> %pal nprocs 8 end%pal nprocs 16 end
|  3> %tddft nroots 2 Iroot 2
|  4>  sf true
|  5> end
|  6> *xyz 0 3
|  7> O   0.04052117104708 0.80026645279079 -4.973519687e-05
|  8> C   0.72887054944943 -0.42655938720619 0.000143339729
|  9> C   -0.71981541211519 -0.44732961047396 -0.00015815059554
| 10> H   1.26369012551335 -0.65987140484656 0.91392086897221
| 11> H   1.26339257236759 -0.66036674624605 -0.91372848337676
| 12> H   -1.25378105388343 -0.64263932985118 -0.91950955888668
| 13> H   -1.25342330398151 -0.64296102687709 0.91938171935465
| 14> *
| 15>
| 16>                          ****END OF INPUT****

CARTESIAN COORDINATES (ANGSTROEM)
---------------------------------
  O      0.040521    0.800266   -0.000050
  C      0.728871   -0.426559    0.000143
  C     -0.719815   -0.447330   -0.000158
  H      1.263690   -0.659871    0.913921
  H      1.263393   -0.660367   -0.913728
  H     -1.253781   -0.642639   -0.919510
  H     -1.253423   -0.642961    0.919382

 Total Charge           Charge          ....    0
 Multiplicity           Mult            ....    3
 Number of Electrons    NEL             ....   24
 Basis Dimension        Dim             ....  182

ORBITAL ENERGIES
----------------
                 SPIN UP ORBITALS
  NO   OCC          E(Eh)            E(eV)
   0   1.0000     -19.504283      -530.7385
   1   1.0000     -10.440477      -284.0998
   2   1.0000     -10.410554      -283.2856
   3   1.0000      -1.330196       -36.1965
   4   1.0000      -0.878608       -23.9081
   5   1.0000      -0.806800       -21.9541
   6   1.0000      -0.712540       -19.3892
   7   1.0000      -0.674632       -18.3577
   8   1.0000      -0.598239       -16.2789
   9   1.0000      -0.529336       -14.4040
  10   1.0000      -0.519702       -14.1418
  11   1.0000      -0.487426       -13.2635
  12   1.0000      -0.122462        -3.3324
  13   0.0000       0.031955         0.8695
  14   0.0000       0.055331         1.5056
  15   0.0000       0.067096         1.8258
  16   0.0000       0.085479         2.3260
  17   0.0000       0.100840         2.7440

                 SPIN DOWN ORBITALS
  NO   OCC          E(Eh)            E(eV)
   0   1.0000     -19.472555      -529.8751
   1   1.0000     -10.440036      -284.0878
   2   1.0000     -10.405933      -283.1598
   3   1.0000      -1.265597       -34.4386
   4   1.0000      -0.846884       -23.0449
   5   1.0000      -0.790606       -21.5135
   6   1.0000      -0.653210       -17.7748
   7   1.0000      -0.644741       -17.5443
   8   1.0000      -0.564149       -15.3513
   9   1.0000      -0.507556       -13.8113
  10   1.0000      -0.467179       -12.7126
  11   0.0000      -0.142286        -3.8718
  12   0.0000       0.033550         0.9129
  13   0.0000       0.054289         1.4773
  14   0.0000       0.064646         1.7591
  15   0.0000       0.072973         1.9857

----------------------------------------------------------------------------------------------------
          SPIN FLIP ABSORPTION SPECTRUM VIA TRANSITION ELECTRIC DIPOLE MOMENTS
----------------------------------------------------------------------------------------------------
     Transition      Energy     Energy  Wavelength fosc(D2)      D2        DX        DY        DZ
                      (eV)      (cm-1)    (nm)                 (au**2)    (au)      (au)      (au)
----------------------------------------------------------------------------------------------------
  1-3A  ->  2-3A    6.884374   55526.2   180.1   0.003895056   0.02309  -0.00002  -0.00029   0.15197

Dispersion correction             ... done (  0.0 sec)

MULLIKEN ATOMIC CHARGES AND SPIN DENSITIES
------------------------------------------
   0 O :    0.848573    1.090093
   1 C :   -1.741764   -1.788288
   2 C :   -2.146984   -1.833581
   3 H :    0.635294    0.507993
   4 H :    0.634397    0.507314
   5 H :    0.884054    0.757046
   6 H :    0.886430    0.759423
Sum of atomic charges       :    0.0000000

LOEWDIN ATOMIC CHARGES AND SPIN DENSITIES
-----------------------------------------
   0 O :    0.388261    0.592878
   1 C :   -0.173353   -0.231117
   2 C :   -0.179144   -0.170067
   3 H :    0.005079   -0.048985
   4 H :    0.005235   -0.048779
   5 H :   -0.022962   -0.046848
   6 H :   -0.023117   -0.047083

  Mayer bond orders larger than 0.100000
B(  0-O ,  1-C ) :  -0.9060 B(  0-O ,  2-C ) :  -1.6354 B(  0-O ,  3-H ) :   0.5054
B(  0-O ,  4-H ) :   0.5047 B(  0-O ,  5-H ) :   0.7977 B(  0-O ,  6-H ) :   0.7995
B(  1-C ,  2-C ) :  10.0975 B(  1-C ,  3-H ) :  -0.1506 B(  1-C ,  4-H ) :  -0.1480
B(  1-C ,  5-H ) :  -3.0554 B(  1-C ,  6-H ) :  -3.0625 B(  2-C ,  3-H ) :  -2.5698
B(  2-C ,  4-H ) :  -2.5652 B(  2-C ,  5-H ) :  -1.4892 B(  2-C ,  6-H ) :  -1.4975
B(  3-H ,  4-H ) :   0.3495 B(  3-H ,  5-H ) :   0.7984 B(  3-H ,  6-H ) :   0.8930
B(  4-H ,  5-H ) :   0.8898 B(  4-H ,  6-H ) :   0.7984 B(  5-H ,  6-H ) :   0.8022

Dispersion correction           -0.005230511
FINAL SINGLE POINT ENERGY      -153.624185277506

DIPOLE MOMENT
-------------

Method             : TDA/CIS
Type of density    : Electron Density
Level              : Relaxed density
State              :   2
Multiplicity       :   3
Irrep              :   0
Energy             :     0.0000000000000000 Eh
Relativity type    :
Basis              : AO
                                X                 Y                 Z
Electronic contribution:      0.372784923       3.133701864      -0.003728701
Nuclear contribution   :     -0.047210106      -2.405576361       0.000137520
                        -----------------------------------------
Total Dipole Moment    :      0.325574818       0.728125503      -0.003591180
                        -----------------------------------------
Magnitude (a.u.)       :      0.797608054
Magnitude (Debye)      :      2.027358556

Rotational constants in cm-1:             0.851690             0.748225             0.474225
Rotational constants in MHz :         25533.014374         22431.209716         14216.909834

                             ****ORCA TERMINATED NORMALLY****
TOTAL RUN TIME: 0 days 0 hours 0 minutes 21 seconds 739 msec
