                         Program Version 6.0.0  -   RELEASE  -
|  1> ! EnGrad wB97M-D3BJ def2-TZVPPD
|  2> %pal nprocs 8 end%pal nprocs 16 end
|  3> %tddft
|  4>  sf true
|  5>  nroots 2 Iroot 2 end
|  6> *xyz 0 3
|  7> O   0.09349167617379 0.8445817018659 -0.00011266140249
|  8> C   0.68755806055901 -0.38945859512878 0.00018436492125
|  9> C   -0.72811759043473 -0.53091525705531 -0.00024818214001
| 10> H   1.23708592703523 -0.65277952357479 0.9030073993037
| 11> H   1.23667822704244 -0.65319719392649 -0.90284398464952
| 12> H   -1.26256518308477 -0.66860617103325 -0.92554455951934
| 13> H   -1.26193111729099 -0.66802496114728 0.92555762348641
| 14> *
| 15>
| 16>                          ****END OF INPUT****

CARTESIAN COORDINATES (ANGSTROEM)
---------------------------------
  O      0.093492    0.844582   -0.000113
  C      0.687558   -0.389459    0.000184
  C     -0.728118   -0.530915   -0.000248
  H      1.237086   -0.652780    0.903007
  H      1.236678   -0.653197   -0.902844
  H     -1.262565   -0.668606   -0.925545
  H     -1.261931   -0.668025    0.925558

 Total Charge           Charge          ....    0
 Multiplicity           Mult            ....    3
 Number of Electrons    NEL             ....   24
 Basis Dimension        Dim             ....  182

ORBITAL ENERGIES
----------------
                 SPIN UP ORBITALS
  NO   OCC          E(Eh)            E(eV)
   0   1.0000     -19.453618      -529.3599
   1   1.0000     -10.417298      -283.4691
   2   1.0000     -10.349989      -281.6375
   3   1.0000      -1.275922       -34.7196
   4   1.0000      -0.860720       -23.4214
   5   1.0000      -0.768044       -20.8995
   6   1.0000      -0.676765       -18.4157
   7   1.0000      -0.640136       -17.4190
   8   1.0000      -0.562123       -15.2961
   9   1.0000      -0.500938       -13.6312
  10   1.0000      -0.489375       -13.3166
  11   1.0000      -0.466860       -12.7039
  12   1.0000      -0.168900        -4.5960
  13   0.0000       0.038038         1.0351
  14   0.0000       0.062236         1.6935
  15   0.0000       0.071125         1.9354
  16   0.0000       0.087031         2.3682
  17   0.0000       0.111241         3.0270

                 SPIN DOWN ORBITALS
  NO   OCC          E(Eh)            E(eV)
   0   1.0000     -19.420806      -528.4670
   1   1.0000     -10.417738      -283.4811
   2   1.0000     -10.340035      -281.3667
   3   1.0000      -1.208987       -32.8982
   4   1.0000      -0.826446       -22.4887
   5   1.0000      -0.748967       -20.3804
   6   1.0000      -0.623597       -16.9689
   7   1.0000      -0.606386       -16.5006
   8   1.0000      -0.525152       -14.2901
   9   1.0000      -0.476881       -12.9766
  10   1.0000      -0.429066       -11.6755
  11   0.0000      -0.106113        -2.8875
  12   0.0000       0.033711         0.9173
  13   0.0000       0.057867         1.5746
  14   0.0000       0.060762         1.6534
  15   0.0000       0.065464         1.7814

----------------------------------------------------------------------------------------------------
          SPIN FLIP ABSORPTION SPECTRUM VIA TRANSITION ELECTRIC DIPOLE MOMENTS
----------------------------------------------------------------------------------------------------
     Transition      Energy     Energy  Wavelength fosc(D2)      D2        DX        DY        DZ
                      (eV)      (cm-1)    (nm)                 (au**2)    (au)      (au)      (au)
----------------------------------------------------------------------------------------------------
  1-3A  ->  2-3A    5.770688   46543.7   214.9   0.006638633   0.04696  -0.00040  -0.00030   0.21669

Dispersion correction             ... done (  0.0 sec)

MULLIKEN ATOMIC CHARGES AND SPIN DENSITIES
------------------------------------------
   0 O :   -0.306111    0.379979
   1 C :    0.062579    0.272279
   2 C :    0.276339    0.118827
   3 H :    0.191687    0.010188
   4 H :    0.191227    0.009888
   5 H :   -0.207838   -0.395509
   6 H :   -0.207882   -0.395651
Sum of atomic charges       :   -0.0000000

LOEWDIN ATOMIC CHARGES AND SPIN DENSITIES
-----------------------------------------
   0 O :    0.092615    0.531933
   1 C :   -0.076688    0.031505
   2 C :    0.082103   -0.355414
   3 H :    0.022033    0.003291
   4 H :    0.022050    0.003318
   5 H :   -0.071075   -0.107358
   6 H :   -0.071037   -0.107276

  Mayer bond orders larger than 0.100000
B(  0-O ,  1-C ) :   0.7652 B(  0-O ,  2-C ) :   0.7096 B(  1-C ,  2-C ) :   0.6637
B(  1-C ,  3-H ) :   0.9879 B(  1-C ,  4-H ) :   0.9879 B(  2-C ,  5-H ) :   0.8915
B(  2-C ,  6-H ) :   0.8917 B(  5-H ,  6-H ) :   0.6049

Dispersion correction           -0.005239553
FINAL SINGLE POINT ENERGY      -153.647933582345

DIPOLE MOMENT
-------------

Method             : TDA/CIS
Type of density    : Electron Density
Level              : Relaxed density
State              :   2
Multiplicity       :   3
Irrep              :   0
Energy             :     0.0000000000000000 Eh
Relativity type    :
Basis              : AO
                                X                 Y                 Z
Electronic contribution:      0.698899186       2.230197698      -0.000208652
Nuclear contribution   :     -0.128098064      -2.449132946       0.000368392
                        -----------------------------------------
Total Dipole Moment    :      0.570801122      -0.218935248       0.000159740
                        -----------------------------------------
Magnitude (a.u.)       :      0.611348174
Magnitude (Debye)      :      1.553923565

Rotational constants in cm-1:             0.886162             0.686447             0.457593
Rotational constants in MHz :         26566.469358         20579.167428         13718.283351

                             ****ORCA TERMINATED NORMALLY****
TOTAL RUN TIME: 0 days 0 hours 0 minutes 18 seconds 220 msec
