                         Program Version 6.0.0  -   RELEASE  -
|  1> ! Engrad def2-TZVPPD wB97M-D3BJ
|  2> %pal nprocs 8 end%pal nprocs 64 end
|  3> %tddft
|  4>  Iroot 2 Nroots 3
|  5> sf true
|  6> end
|  7> *xyz 0 3
|  8> O   2.55786703 -0.54220797 -2.31215499
|  9> O   -1.74652228 1.52811152 -1.64666642
| 10> O   -1.42983969 -2.32896775 -0.77611447
| 11> O   -2.91081424 0.56123268 2.55458607
| 12> N   0.01350673 -1.64237517 0.71306296
| 13> N   -0.66607804 0.81237373 2.01773993
| 14> N   0.65219198 -1.55544025 -1.58232317
| 15> N   -2.27729169 0.69772236 0.35657518
| 16> C   2.09418723 -0.59453947 -0.01861224
| 17> C   0.01329539 1.20991206 -0.162366
| 18> C   1.08882765 -0.76278153 1.0369731
| 19> C   0.44349685 0.66720518 1.11961058
| 20> C   3.4315901 -0.02212301 0.33172238
| 21> C   1.01623255 1.96833328 -0.99961987
| 22> C   1.82923679 -0.87110126 -1.37979402
| 23> C   -1.37862797 1.17031206 -0.57301725
| 24> C   -0.39297068 -1.87717535 -0.61403238
| 25> C   -2.02032249 0.6994163 1.70224965
| 26> H   1.41399889 -0.97063582 2.091915
| 27> H   1.22488443 1.31810722 1.38060389
| 28> H   3.96127874 0.20061952 -0.59825966
| 29> H   3.35597117 1.09238719 0.63415845
| 30> H   3.8037708 -0.75673632 1.03317815
| 31> H   0.53152211 2.97274974 -1.09450993
| 32> H   2.0924688 2.03709122 -0.67838075
| 33> H   1.01624717 1.5774964 -2.04683197
| 34> H   -0.82616688 -1.54872199 1.22901488
| 35> H   -0.5424444 0.68995925 2.99646506
| 36> H   0.35024246 -1.53186255 -2.55800366
| 37> H   -3.2538562 0.56335277 0.1206865
| 38> *
| 39>
| 40>                          ****END OF INPUT****

CARTESIAN COORDINATES (ANGSTROEM)
---------------------------------
  O      2.557867   -0.542208   -2.312155
  O     -1.746522    1.528112   -1.646666
  O     -1.429840   -2.328968   -0.776114
  O     -2.910814    0.561233    2.554586
  N      0.013507   -1.642375    0.713063
  N     -0.666078    0.812374    2.017740
  N      0.652192   -1.555440   -1.582323
  N     -2.277292    0.697722    0.356575
  C      2.094187   -0.594539   -0.018612
  C      0.013295    1.209912   -0.162366
  C      1.088828   -0.762782    1.036973
  C      0.443497    0.667205    1.119611
  C      3.431590   -0.022123    0.331722
  C      1.016233    1.968333   -0.999620
  C      1.829237   -0.871101   -1.379794
  C     -1.378628    1.170312   -0.573017
  C     -0.392971   -1.877175   -0.614032
  C     -2.020322    0.699416    1.702250
  H      1.413999   -0.970636    2.091915
  H      1.224884    1.318107    1.380604
  H      3.961279    0.200620   -0.598260
  H      3.355971    1.092387    0.634158
  H      3.803771   -0.756736    1.033178
  H      0.531522    2.972750   -1.094510
  H      2.092469    2.037091   -0.678381
  H      1.016247    1.577496   -2.046832
  H     -0.826167   -1.548722    1.229015
  H     -0.542444    0.689959    2.996465
  H      0.350242   -1.531863   -2.558004
  H     -3.253856    0.563353    0.120686

 Total Charge           Charge          ....    0
 Multiplicity           Mult            ....    3
 Number of Electrons    NEL             ....  132
 Basis Dimension        Dim             ....  882

ORBITAL ENERGIES
----------------
                 SPIN UP ORBITALS
  NO   OCC          E(Eh)            E(eV)
   0   1.0000     -19.339943      -526.2666
   1   1.0000     -19.334569      -526.1204
   2   1.0000     -19.334484      -526.1181
   3   1.0000     -19.324537      -525.8474
   4   1.0000     -14.567639      -396.4056
   5   1.0000     -14.566281      -396.3687
   6   1.0000     -14.564361      -396.3164
   7   1.0000     -14.548052      -395.8726
   8   1.0000     -10.512790      -286.0676
   9   1.0000     -10.511209      -286.0246
  10   1.0000     -10.480238      -285.1818
  11   1.0000     -10.479786      -285.1695
  12   1.0000     -10.443878      -284.1924
  13   1.0000     -10.434232      -283.9299
  14   1.0000     -10.416308      -283.4421
  15   1.0000     -10.416150      -283.4378
  16   1.0000     -10.382162      -282.5130
  17   1.0000     -10.380636      -282.4715
  18   1.0000      -1.256522       -34.1917
  19   1.0000      -1.228136       -33.4193
  20   1.0000      -1.202542       -32.7228
  21   1.0000      -1.198759       -32.6199
  22   1.0000      -1.127212       -30.6730
  23   1.0000      -1.101451       -29.9720
  24   1.0000      -1.072981       -29.1973
  25   1.0000      -1.056902       -28.7598
  26   1.0000      -0.991942       -26.9921
  27   1.0000      -0.955764       -26.0077
  28   1.0000      -0.888997       -24.1908
  29   1.0000      -0.841308       -22.8932
  30   1.0000      -0.829509       -22.5721
  31   1.0000      -0.806258       -21.9394
  32   1.0000      -0.787535       -21.4299
  33   1.0000      -0.781621       -21.2690
  34   1.0000      -0.707839       -19.2613
  35   1.0000      -0.699354       -19.0304
  36   1.0000      -0.687538       -18.7089
  37   1.0000      -0.677861       -18.4455
  38   1.0000      -0.662746       -18.0342
  39   1.0000      -0.646713       -17.5979
  40   1.0000      -0.625842       -17.0300
  41   1.0000      -0.606406       -16.5012
  42   1.0000      -0.598553       -16.2875
  43   1.0000      -0.592693       -16.1280
  44   1.0000      -0.586001       -15.9459
  45   1.0000      -0.581744       -15.8301
  46   1.0000      -0.577178       -15.7058
  47   1.0000      -0.567321       -15.4376
  48   1.0000      -0.563061       -15.3217
  49   1.0000      -0.556493       -15.1429
  50   1.0000      -0.549543       -14.9538
  51   1.0000      -0.545640       -14.8476
  52   1.0000      -0.529195       -14.4001
  53   1.0000      -0.518794       -14.1171
  54   1.0000      -0.510655       -13.8956
  55   1.0000      -0.502713       -13.6795
  56   1.0000      -0.482759       -13.1365
  57   1.0000      -0.434773       -11.8308
  58   1.0000      -0.421728       -11.4758
  59   1.0000      -0.417588       -11.3631
  60   1.0000      -0.413564       -11.2536
  61   1.0000      -0.403399       -10.9771
  62   1.0000      -0.401643       -10.9293
  63   1.0000      -0.395654       -10.7663
  64   1.0000      -0.388744       -10.5782
  65   1.0000      -0.341173        -9.2838
  66   1.0000      -0.326175        -8.8757
  67   0.0000       0.011328         0.3082
  68   0.0000       0.031369         0.8536
  69   0.0000       0.034268         0.9325
  70   0.0000       0.035843         0.9753
  71   0.0000       0.055135         1.5003

                 SPIN DOWN ORBITALS
  NO   OCC          E(Eh)            E(eV)
   0   1.0000     -19.339951      -526.2668
   1   1.0000     -19.330467      -526.0087
   2   1.0000     -19.330236      -526.0025
   3   1.0000     -19.324254      -525.8397
   4   1.0000     -14.566420      -396.3724
   5   1.0000     -14.565875      -396.3576
   6   1.0000     -14.563866      -396.3029
   7   1.0000     -14.547909      -395.8687
   8   1.0000     -10.512817      -286.0683
   9   1.0000     -10.511272      -286.0262
  10   1.0000     -10.481101      -285.2053
  11   1.0000     -10.480674      -285.1936
  12   1.0000     -10.443455      -284.1809
  13   1.0000     -10.433350      -283.9059
  14   1.0000     -10.405365      -283.1444
  15   1.0000     -10.404797      -283.1289
  16   1.0000     -10.382737      -282.5286
  17   1.0000     -10.381067      -282.4832
  18   1.0000      -1.256324       -34.1863
  19   1.0000      -1.223832       -33.3022
  20   1.0000      -1.196507       -32.5586
  21   1.0000      -1.196149       -32.5489
  22   1.0000      -1.123783       -30.5797
  23   1.0000      -1.098917       -29.9030
  24   1.0000      -1.070831       -29.1388
  25   1.0000      -1.054759       -28.7015
  26   1.0000      -0.978890       -26.6369
  27   1.0000      -0.938380       -25.5346
  28   1.0000      -0.882547       -24.0153
  29   1.0000      -0.836368       -22.7587
  30   1.0000      -0.821280       -22.3482
  31   1.0000      -0.800681       -21.7876
  32   1.0000      -0.785978       -21.3876
  33   1.0000      -0.779868       -21.2213
  34   1.0000      -0.702732       -19.1223
  35   1.0000      -0.693275       -18.8650
  36   1.0000      -0.680521       -18.5179
  37   1.0000      -0.671557       -18.2740
  38   1.0000      -0.648676       -17.6514
  39   1.0000      -0.641794       -17.4641
  40   1.0000      -0.621214       -16.9041
  41   1.0000      -0.602955       -16.4072
  42   1.0000      -0.593276       -16.1439
  43   1.0000      -0.588950       -16.0262
  44   1.0000      -0.579923       -15.7805
  45   1.0000      -0.574290       -15.6272
  46   1.0000      -0.569507       -15.4971
  47   1.0000      -0.559833       -15.2338
  48   1.0000      -0.557944       -15.1824
  49   1.0000      -0.548658       -14.9297
  50   1.0000      -0.543461       -14.7883
  51   1.0000      -0.535366       -14.5680
  52   1.0000      -0.520723       -14.1696
  53   1.0000      -0.511389       -13.9156
  54   1.0000      -0.499162       -13.5829
  55   1.0000      -0.496827       -13.5194
  56   1.0000      -0.478016       -13.0075
  57   1.0000      -0.430748       -11.7213
  58   1.0000      -0.417698       -11.3661
  59   1.0000      -0.409144       -11.1334
  60   1.0000      -0.401675       -10.9301
  61   1.0000      -0.395949       -10.7743
  62   1.0000      -0.392384       -10.6773
  63   1.0000      -0.389292       -10.5932
  64   1.0000      -0.375239       -10.2108
  65   0.0000      -0.061739        -1.6800
  66   0.0000      -0.055161        -1.5010
  67   0.0000       0.010860         0.2955
  68   0.0000       0.031171         0.8482
  69   0.0000       0.034147         0.9292

----------------------------------------------------------------------------------------------------
          SPIN FLIP ABSORPTION SPECTRUM VIA TRANSITION ELECTRIC DIPOLE MOMENTS
----------------------------------------------------------------------------------------------------
     Transition      Energy     Energy  Wavelength fosc(D2)      D2        DX        DY        DZ
                      (eV)      (cm-1)    (nm)                 (au**2)    (au)      (au)      (au)
----------------------------------------------------------------------------------------------------
  1-3A  ->  2-3A    0.041107     331.5  30161.4   0.000000760   0.00075   0.02380  -0.00665  -0.01201
  1-3A  ->  3-1A    2.071129   16704.8   598.6   0.019510089   0.38450   0.54011  -0.02699  -0.30340

Dispersion correction             ... done (  0.1 sec)

MULLIKEN ATOMIC CHARGES AND SPIN DENSITIES
------------------------------------------
   0 O :   -0.669630    0.156446
   1 O :   -0.659159   -0.147343
   2 O :   -0.494185   -0.004096
   3 O :   -0.675728   -0.001790
   4 N :   -0.273653    0.008317
   5 N :   -0.364515   -0.015748
   6 N :   -0.046448    0.008901
   7 N :    0.090964   -0.015503
   8 C :   -0.240313    0.371659
   9 C :    0.936589    0.293903
  10 C :    0.516354    0.050366
  11 C :   -0.277510   -0.548155
  12 C :   -1.328681    0.002447
  13 C :   -1.271192    0.094497
  14 C :    0.761413    0.159668
  15 C :   -0.030450   -0.485489
  16 C :    0.301155   -0.015947
  17 C :    0.380533    0.019922
  18 H :    0.472402    0.029903
  19 H :    0.807260    0.043366
  20 H :    0.278902    0.006939
  21 H :    0.288159    0.018426
  22 H :    0.413509    0.014077
  23 H :    0.447580   -0.018710
  24 H :    0.160947   -0.002122
  25 H :    0.261962   -0.024213
  26 H :    0.067095   -0.003640
  27 H :    0.051069    0.001316
  28 H :    0.055717   -0.003259
  29 H :    0.039856    0.005859
Sum of atomic charges       :    0.0000000

LOEWDIN ATOMIC CHARGES AND SPIN DENSITIES
-----------------------------------------
   0 O :    0.078709    0.134780
   1 O :    0.116691   -0.124476
   2 O :    0.175781   -0.002905
   3 O :    0.057688   -0.001938
   4 N :    0.282276    0.002636
   5 N :    0.296086   -0.000178
   6 N :    0.346018    0.015927
   7 N :    0.325228   -0.018723
   8 C :   -0.082718    0.453221
   9 C :   -0.005799   -0.453870
  10 C :   -0.101533    0.024522
  11 C :   -0.143201   -0.023864
  12 C :    0.201374    0.060090
  13 C :    0.199706   -0.054144
  14 C :   -0.454517    0.081613
  15 C :   -0.453339   -0.088325
  16 C :   -0.469820   -0.003157
  17 C :   -0.449310   -0.000322
  18 H :    0.087579    0.006148
  19 H :    0.014396   -0.007614
  20 H :   -0.009134   -0.000096
  21 H :    0.030121    0.021869
  22 H :   -0.001678    0.014264
  23 H :    0.032506   -0.021410
  24 H :    0.013919    0.002643
  25 H :    0.024305   -0.017273
  26 H :   -0.070984    0.000265
  27 H :   -0.044462   -0.000008
  28 H :   -0.003313    0.001774
  29 H :    0.007426   -0.001450

  Mayer bond orders larger than 0.100000
B(  0-O , 14-C ) :   1.4023 B(  1-O ,  9-C ) :   0.1093 B(  1-O , 13-C ) :   0.1062
B(  1-O , 15-C ) :   1.2708 B(  2-O , 16-C ) :   1.6010 B(  3-O , 17-C ) :   1.5936
B(  4-N ,  8-C ) :   0.1520 B(  4-N , 10-C ) :   0.4407 B(  4-N , 11-C ) :   0.1193
B(  4-N , 16-C ) :   0.9433 B(  4-N , 26-H ) :   1.0087 B(  5-N ,  9-C ) :   0.3564
B(  5-N , 10-C ) :   0.1446 B(  5-N , 17-C ) :   1.1978 B(  5-N , 19-H ) :  -0.2447
B(  5-N , 27-H ) :   1.0873 B(  6-N ,  8-C ) :  -0.1600 B(  6-N , 14-C ) :   1.0471
B(  6-N , 16-C ) :   0.8634 B(  6-N , 28-H ) :   1.0823 B(  7-N , 15-C ) :   1.0493
B(  7-N , 17-C ) :   0.9719 B(  7-N , 29-H ) :   1.0812 B(  8-C ,  9-C ) :   0.1241
B(  8-C , 10-C ) :   0.3569 B(  8-C , 11-C ) :   0.2161 B(  8-C , 12-C ) :   0.6544
B(  8-C , 14-C ) :   0.6550 B(  8-C , 18-H ) :  -0.1345 B(  8-C , 20-H ) :  -0.1331
B(  9-C , 13-C ) :   0.5702 B(  9-C , 15-C ) :   0.3023 B(  9-C , 17-C ) :   0.1366
B(  9-C , 19-H ) :  -0.1999 B(  9-C , 25-H ) :  -0.1060 B( 10-C , 11-C ) :   0.4482
B( 10-C , 12-C ) :  -0.1411 B( 10-C , 18-H ) :   0.8504 B( 11-C , 12-C ) :   0.1329
B( 11-C , 13-C ) :  -0.3071 B( 11-C , 15-C ) :   0.1384 B( 11-C , 17-C ) :  -0.3618
B( 11-C , 19-H ) :   0.5499 B( 12-C , 14-C ) :  -0.1552 B( 12-C , 20-H ) :   1.1548
B( 12-C , 21-H ) :   0.8394 B( 12-C , 22-H ) :   0.8379 B( 13-C , 23-H ) :   0.8002
B( 13-C , 24-H ) :   1.0336 B( 13-C , 25-H ) :   1.0116 B( 15-C , 17-C ) :  -0.1171

Dispersion correction           -0.062252160
FINAL SINGLE POINT ENERGY      -908.753285796575

DIPOLE MOMENT
-------------

Method             : TDA/CIS
Type of density    : Electron Density
Level              : Relaxed density
State              :   2
Multiplicity       :   3
Irrep              :   0
Energy             :     0.0000000000000000 Eh
Relativity type    :
Basis              : AO
                                X                 Y                 Z
Electronic contribution:    -10.388966486      -5.314320920      -1.344181166
Nuclear contribution   :     12.322104430       5.786192795       2.598376842
                        -----------------------------------------
Total Dipole Moment    :      1.933137944       0.471871875       1.254195676
                        -----------------------------------------
Magnitude (a.u.)       :      2.352167547
Magnitude (Debye)      :      5.978734767

Rotational constants in cm-1:             0.023209             0.012848             0.012556
Rotational constants in MHz :           695.793049           385.175595           376.434302

                             ****ORCA TERMINATED NORMALLY****
TOTAL RUN TIME: 0 days 0 hours 4 minutes 48 seconds 837 msec
