                         Program Version 6.0.0  -   RELEASE  -
|  1> ! Opt wB97M-D3BJ def2-TZVPPD
|  2> %pal nprocs 8 end %pal nprocs 64 end
|  3> %geom
|  4> Constraints
|  5>     {A 2 1 0 96.36363636363636 C }
|  6> end
|  7> MaxIter 500
|  8> end
|  9> *xyz 0 1
| 10> O   -0.0007 0.8141 0.0
| 11> C   0.7509 -0.4065 0.0
| 12> C   -0.7502 -0.4076 0.0
| 13> H   1.2625 -0.6786 0.9136
| 14> H   1.2625 -0.6787 -0.9136
| 15> H   -1.2614 -0.6806 -0.9136
| 16> H   -1.2614 -0.6805 0.9136
| 17> *
| 18>
| 19>                          ****END OF INPUT****
 Total Charge           Charge          ....    0
 Multiplicity           Mult            ....    1
 Number of Electrons    NEL             ....   24
Dispersion correction           -0.005748686
FINAL SINGLE POINT ENERGY      -153.763112745110
Dispersion correction             ... done (  0.1 sec)
Dispersion correction           -0.005690826
FINAL SINGLE POINT ENERGY      -153.793581335899
Dispersion correction             ... done (  0.1 sec)
Dispersion correction           -0.005654953
FINAL SINGLE POINT ENERGY      -153.802981514060
Dispersion correction             ... done (  0.1 sec)
FINAL SINGLE POINT ENERGY      -153.806712473513
FINAL SINGLE POINT ENERGY      -153.807596269069
FINAL SINGLE POINT ENERGY      -153.807828621023
FINAL SINGLE POINT ENERGY      -153.807962641279
FINAL SINGLE POINT ENERGY      -153.808044065513
FINAL SINGLE POINT ENERGY      -153.808098186739
FINAL SINGLE POINT ENERGY      -153.808136298695
FINAL SINGLE POINT ENERGY      -153.808153479099
Dispersion correction             ... done (  0.1 sec)
Dispersion correction           -0.005669976
FINAL SINGLE POINT ENERGY      -153.808159065779
Dispersion correction             ... done (  0.1 sec)
Dispersion correction           -0.005669585
FINAL SINGLE POINT ENERGY      -153.808160849655
Dispersion correction             ... done (  0.1 sec)
                    ***********************HURRAY********************

CARTESIAN COORDINATES (ANGSTROEM)
---------------------------------
  O      0.364985    1.026229   -0.002612
  C      0.624445   -0.286999   -0.000516
  C     -0.741816   -0.718823    0.000709
  H      1.178870   -0.632548    0.883825
  H      1.178860   -0.635332   -0.883724
  H     -1.302251   -0.737433   -0.923271
  H     -1.300892   -0.733494    0.925589

 Multiplicity           Mult            ....    1
 Number of Electrons    NEL             ....   24
 Basis Dimension        Dim             ....  182

ORBITAL ENERGIES
----------------

  NO   OCC          E(Eh)            E(eV)
   0   2.0000     -19.332529      -526.0649
   1   2.0000     -10.440369      -284.0969
   2   2.0000     -10.397082      -282.9190
   3   2.0000      -1.134054       -30.8592
   4   2.0000      -0.877588       -23.8804
   5   2.0000      -0.733816       -19.9682
   6   2.0000      -0.624822       -17.0023
   7   2.0000      -0.576032       -15.6746
   8   2.0000      -0.517537       -14.0829
   9   2.0000      -0.510400       -13.8887
  10   2.0000      -0.375000       -10.2043
  11   2.0000      -0.357209        -9.7201
  12   0.0000      -0.044972        -1.2238
  13   0.0000       0.037872         1.0305
  14   0.0000       0.061076         1.6620
  15   0.0000       0.076504         2.0818
  16   0.0000       0.098032         2.6676

MULLIKEN ATOMIC CHARGES
-----------------------
   0 O :   -0.503364
   1 C :   -0.096252
   2 C :   -0.270508
   3 H :    0.217080
   4 H :    0.217139
   5 H :    0.217912
   6 H :    0.217993
Sum of atomic charges:   -0.0000000

LOEWDIN ATOMIC CHARGES
----------------------
   0 O :   -0.015784
   1 C :   -0.386691
   2 C :    0.371732
   3 H :    0.023267
   4 H :    0.023265
   5 H :   -0.007889
   6 H :   -0.007899

  Mayer bond orders larger than 0.100000
B(  0-O ,  1-C ) :   0.7008 B(  0-O ,  2-C ) :   0.9215 B(  1-C ,  2-C ) :   0.7747
B(  1-C ,  3-H ) :   1.0440 B(  1-C ,  4-H ) :   1.0438 B(  2-C ,  5-H ) :   0.9658
B(  2-C ,  6-H ) :   0.9658

Dispersion correction           -0.005669840
FINAL SINGLE POINT ENERGY      -153.808161221716

DIPOLE MOMENT
-------------

Method             : SCF
Type of density    : Electron Density
Multiplicity       :   1
Irrep              :   0
Energy             :  -153.8024913815204968 Eh
Relativity type    :
Basis              : AO
                                X                 Y                 Z
Electronic contribution:      0.085844713       1.416501418      -0.003087911
Nuclear contribution   :     -0.582518801      -2.689174142       0.005397203
                        -----------------------------------------
Total Dipole Moment    :     -0.496674088      -1.272672724       0.002309292
                        -----------------------------------------
Magnitude (a.u.)       :      1.366157511
Magnitude (Debye)      :      3.472496429

Rotational constants in cm-1:             1.136450             0.456914             0.373508
Rotational constants in MHz :         34069.907779         13697.948004         11197.494134

                             ****ORCA TERMINATED NORMALLY****
TOTAL RUN TIME: 0 days 0 hours 3 minutes 17 seconds 430 msec
