                         Program Version 6.0.0  -   RELEASE  -
|  1> ! Engrad def2-TZVPPD wB97M-D3BJ
|  2> %pal nprocs 8 end%pal nprocs 64 end
|  3> %tddft
|  4>  Iroot 2 Nroots 3
|  5> sf true
|  6> end
|  7> *xyz 0 3
|  8> O   3.44671536 -0.07723655 -1.05345349
|  9> O   -1.50196158 0.666754 -2.48496427
| 10> O   0.29172551 -3.18702169 -0.46262971
| 11> O   -3.63614421 -0.35924024 1.43477917
| 12> N   0.24191698 -1.35232575 0.8822485
| 13> N   -1.71162227 0.73035445 1.50964752
| 14> N   1.61774205 -1.40294378 -0.91835124
| 15> N   -2.5705006 0.03212264 -0.52597455
| 16> C   1.87366901 0.32807874 0.72963925
| 17> C   -0.45315762 1.34429854 -0.52508129
| 18> C   0.57031946 -0.03700295 1.31656601
| 19> C   -0.43754475 1.12780038 0.92797035
| 20> C   2.70934331 1.39503155 1.37203259
| 21> C   0.61849342 2.04190753 -1.35602156
| 22> C   2.42453319 -0.37533728 -0.50991526
| 23> C   -1.55092113 0.66277365 -1.22204
| 24> C   0.68807381 -2.07773647 -0.19760308
| 25> C   -2.67713179 0.096885 0.8448675
| 26> H   0.54125032 -0.06304355 2.42981474
| 27> H   0.04957599 1.97215508 1.47614605
| 28> H   3.64322271 1.62270462 0.81176195
| 29> H   2.35837188 2.44283373 1.51778023
| 30> H   3.11790398 1.1168005 2.37288183
| 31> H   0.20250588 2.65558901 -2.13835573
| 32> H   1.28026726 2.5567258 -0.73992855
| 33> H   1.21298451 1.30094163 -1.90082378
| 34> H   -0.36744464 -1.82876753 1.51343236
| 35> H   -1.64267703 0.56574031 2.51048809
| 36> H   2.14582693 -2.00589055 -1.57844386
| 37> H   -3.40541878 -0.3676867 -1.0933624
| 38> *
| 39>
| 40>                          ****END OF INPUT****

CARTESIAN COORDINATES (ANGSTROEM)
---------------------------------
  O      3.446715   -0.077237   -1.053453
  O     -1.501962    0.666754   -2.484964
  O      0.291726   -3.187022   -0.462630
  O     -3.636144   -0.359240    1.434779
  N      0.241917   -1.352326    0.882248
  N     -1.711622    0.730354    1.509648
  N      1.617742   -1.402944   -0.918351
  N     -2.570501    0.032123   -0.525975
  C      1.873669    0.328079    0.729639
  C     -0.453158    1.344299   -0.525081
  C      0.570319   -0.037003    1.316566
  C     -0.437545    1.127800    0.927970
  C      2.709343    1.395032    1.372033
  C      0.618493    2.041908   -1.356022
  C      2.424533   -0.375337   -0.509915
  C     -1.550921    0.662774   -1.222040
  C      0.688074   -2.077736   -0.197603
  C     -2.677132    0.096885    0.844867
  H      0.541250   -0.063044    2.429815
  H      0.049576    1.972155    1.476146
  H      3.643223    1.622705    0.811762
  H      2.358372    2.442834    1.517780
  H      3.117904    1.116801    2.372882
  H      0.202506    2.655589   -2.138356
  H      1.280267    2.556726   -0.739929
  H      1.212985    1.300942   -1.900824
  H     -0.367445   -1.828768    1.513432
  H     -1.642677    0.565740    2.510488
  H      2.145827   -2.005891   -1.578444
  H     -3.405419   -0.367687   -1.093362

 Total Charge           Charge          ....    0
 Multiplicity           Mult            ....    3
 Number of Electrons    NEL             ....  132
 Basis Dimension        Dim             ....  882

ORBITAL ENERGIES
----------------
                 SPIN UP ORBITALS
  NO   OCC          E(Eh)            E(eV)
   0   1.0000     -19.346015      -526.4318
   1   1.0000     -19.327447      -525.9266
   2   1.0000     -19.323864      -525.8291
   3   1.0000     -19.310916      -525.4767
   4   1.0000     -14.574872      -396.6024
   5   1.0000     -14.570742      -396.4901
   6   1.0000     -14.566993      -396.3880
   7   1.0000     -14.559208      -396.1762
   8   1.0000     -10.510155      -285.9959
   9   1.0000     -10.502065      -285.7757
  10   1.0000     -10.494728      -285.5761
  11   1.0000     -10.481521      -285.2167
  12   1.0000     -10.448161      -284.3089
  13   1.0000     -10.446035      -284.2511
  14   1.0000     -10.424453      -283.6638
  15   1.0000     -10.422575      -283.6127
  16   1.0000     -10.383286      -282.5436
  17   1.0000     -10.368023      -282.1282
  18   1.0000      -1.234172       -33.5835
  19   1.0000      -1.217829       -33.1388
  20   1.0000      -1.210839       -32.9486
  21   1.0000      -1.173347       -31.9284
  22   1.0000      -1.125828       -30.6353
  23   1.0000      -1.105457       -30.0810
  24   1.0000      -1.076197       -29.2848
  25   1.0000      -1.061174       -28.8760
  26   1.0000      -0.984363       -26.7859
  27   1.0000      -0.944663       -25.7056
  28   1.0000      -0.889235       -24.1973
  29   1.0000      -0.847116       -23.0512
  30   1.0000      -0.824866       -22.4458
  31   1.0000      -0.804936       -21.9034
  32   1.0000      -0.797460       -21.7000
  33   1.0000      -0.786080       -21.3903
  34   1.0000      -0.707134       -19.2421
  35   1.0000      -0.694703       -18.9038
  36   1.0000      -0.692755       -18.8508
  37   1.0000      -0.680662       -18.5218
  38   1.0000      -0.655413       -17.8347
  39   1.0000      -0.644021       -17.5247
  40   1.0000      -0.617419       -16.8008
  41   1.0000      -0.610001       -16.5990
  42   1.0000      -0.603656       -16.4263
  43   1.0000      -0.587387       -15.9836
  44   1.0000      -0.575110       -15.6495
  45   1.0000      -0.568911       -15.4808
  46   1.0000      -0.562183       -15.2978
  47   1.0000      -0.561526       -15.2799
  48   1.0000      -0.558121       -15.1872
  49   1.0000      -0.557175       -15.1615
  50   1.0000      -0.549132       -14.9427
  51   1.0000      -0.534002       -14.5309
  52   1.0000      -0.533112       -14.5067
  53   1.0000      -0.525118       -14.2892
  54   1.0000      -0.508423       -13.8349
  55   1.0000      -0.502077       -13.6622
  56   1.0000      -0.490886       -13.3577
  57   1.0000      -0.430361       -11.7107
  58   1.0000      -0.418958       -11.4004
  59   1.0000      -0.409781       -11.1507
  60   1.0000      -0.406888       -11.0720
  61   1.0000      -0.400997       -10.9117
  62   1.0000      -0.397741       -10.8231
  63   1.0000      -0.388491       -10.5714
  64   1.0000      -0.382389       -10.4053
  65   1.0000      -0.346444        -9.4272
  66   1.0000      -0.323570        -8.8048
  67   0.0000       0.005643         0.1536
  68   0.0000       0.026743         0.7277
  69   0.0000       0.032100         0.8735
  70   0.0000       0.035276         0.9599
  71   0.0000       0.052587         1.4310

                 SPIN DOWN ORBITALS
  NO   OCC          E(Eh)            E(eV)
   0   1.0000     -19.342962      -526.3488
   1   1.0000     -19.323730      -525.8254
   2   1.0000     -19.322517      -525.7924
   3   1.0000     -19.310852      -525.4750
   4   1.0000     -14.574406      -396.5897
   5   1.0000     -14.570261      -396.4770
   6   1.0000     -14.566649      -396.3787
   7   1.0000     -14.559172      -396.1752
   8   1.0000     -10.510177      -285.9964
   9   1.0000     -10.502116      -285.7771
  10   1.0000     -10.495639      -285.6008
  11   1.0000     -10.482715      -285.2492
  12   1.0000     -10.447277      -284.2849
  13   1.0000     -10.445654      -284.2407
  14   1.0000     -10.412600      -283.3412
  15   1.0000     -10.411440      -283.3097
  16   1.0000     -10.384039      -282.5641
  17   1.0000     -10.368498      -282.1412
  18   1.0000      -1.231639       -33.5146
  19   1.0000      -1.217008       -33.1165
  20   1.0000      -1.208621       -32.8882
  21   1.0000      -1.166993       -31.7555
  22   1.0000      -1.123314       -30.5669
  23   1.0000      -1.103592       -30.0303
  24   1.0000      -1.074534       -29.2396
  25   1.0000      -1.059400       -28.8277
  26   1.0000      -0.971314       -26.4308
  27   1.0000      -0.926995       -25.2248
  28   1.0000      -0.883089       -24.0301
  29   1.0000      -0.843260       -22.9463
  30   1.0000      -0.816731       -22.2244
  31   1.0000      -0.801048       -21.7976
  32   1.0000      -0.794114       -21.6089
  33   1.0000      -0.784312       -21.3422
  34   1.0000      -0.702202       -19.1079
  35   1.0000      -0.688300       -18.7296
  36   1.0000      -0.686037       -18.6680
  37   1.0000      -0.674921       -18.3655
  38   1.0000      -0.644807       -17.5461
  39   1.0000      -0.637983       -17.3604
  40   1.0000      -0.614503       -16.7215
  41   1.0000      -0.604390       -16.4463
  42   1.0000      -0.599330       -16.3086
  43   1.0000      -0.581121       -15.8131
  44   1.0000      -0.569206       -15.4889
  45   1.0000      -0.560705       -15.2576
  46   1.0000      -0.557038       -15.1578
  47   1.0000      -0.555342       -15.1116
  48   1.0000      -0.552232       -15.0270
  49   1.0000      -0.550849       -14.9894
  50   1.0000      -0.535450       -14.5703
  51   1.0000      -0.526636       -14.3305
  52   1.0000      -0.523144       -14.2355
  53   1.0000      -0.519084       -14.1250
  54   1.0000      -0.501509       -13.6467
  55   1.0000      -0.494367       -13.4524
  56   1.0000      -0.487855       -13.2752
  57   1.0000      -0.425094       -11.5674
  58   1.0000      -0.411292       -11.1918
  59   1.0000      -0.404315       -11.0020
  60   1.0000      -0.401216       -10.9177
  61   1.0000      -0.397612       -10.8196
  62   1.0000      -0.385296       -10.4844
  63   1.0000      -0.379502       -10.3268
  64   1.0000      -0.372995       -10.1497
  65   0.0000      -0.061240        -1.6664
  66   0.0000      -0.051788        -1.4092
  67   0.0000       0.005196         0.1414
  68   0.0000       0.026437         0.7194
  69   0.0000       0.031884         0.8676

----------------------------------------------------------------------------------------------------
          SPIN FLIP ABSORPTION SPECTRUM VIA TRANSITION ELECTRIC DIPOLE MOMENTS
----------------------------------------------------------------------------------------------------
     Transition      Energy     Energy  Wavelength fosc(D2)      D2        DX        DY        DZ
                      (eV)      (cm-1)    (nm)                 (au**2)    (au)      (au)      (au)
----------------------------------------------------------------------------------------------------
  1-3A  ->  2-3A    0.059958     483.6  20678.4   0.000009203   0.00627  -0.07512   0.02275   0.01017
  1-3A  ->  3-3A    1.958586   15797.1   633.0   0.000661701   0.01379   0.02350   0.01160   0.11447

Dispersion correction             ... done (  0.1 sec)

MULLIKEN ATOMIC CHARGES AND SPIN DENSITIES
------------------------------------------
   0 O :   -0.631481   -0.090562
   1 O :   -0.698385    0.153859
   2 O :   -0.660620   -0.001916
   3 O :   -0.680475   -0.003237
   4 N :   -0.177649    0.002200
   5 N :   -0.260572    0.006735
   6 N :    0.024557   -0.010274
   7 N :   -0.046109    0.016649
   8 C :    0.830457    0.248297
   9 C :   -0.001889    0.381227
  10 C :   -0.143095   -0.342500
  11 C :    0.627571    0.029594
  12 C :   -1.506487   -0.041203
  13 C :   -1.500656   -0.012571
  14 C :   -0.088303   -0.458961
  15 C :    0.372470    0.034186
  16 C :    0.469701    0.024762
  17 C :    0.421273    0.002118
  18 H :    0.692673   -0.032020
  19 H :    0.557299    0.037223
  20 H :    0.268125   -0.004284
  21 H :    0.311180    0.000219
  22 H :    0.399625    0.003054
  23 H :    0.393696    0.015609
  24 H :    0.355079    0.001320
  25 H :    0.279196    0.039435
  26 H :   -0.004374   -0.000738
  27 H :    0.105609   -0.001225
  28 H :    0.122048    0.003721
  29 H :    0.169535   -0.000716
Sum of atomic charges       :   -0.0000000

LOEWDIN ATOMIC CHARGES AND SPIN DENSITIES
-----------------------------------------
   0 O :    0.103565   -0.078415
   1 O :    0.044439    0.136354
   2 O :    0.104207   -0.002259
   3 O :    0.073062   -0.003035
   4 N :    0.288167   -0.000556
   5 N :    0.274702   -0.005594
   6 N :    0.311996   -0.015147
   7 N :    0.297992    0.013453
   8 C :   -0.006981   -0.421763
   9 C :    0.003576    0.407982
  10 C :   -0.149722   -0.018706
  11 C :   -0.111824    0.028147
  12 C :    0.154086   -0.063263
  13 C :    0.229960    0.040572
  14 C :   -0.441796   -0.064259
  15 C :   -0.355537    0.056002
  16 C :   -0.487512   -0.000185
  17 C :   -0.536018   -0.000904
  18 H :    0.076757   -0.005879
  19 H :    0.066915    0.009614
  20 H :    0.006549    0.000748
  21 H :    0.006121   -0.014445
  22 H :    0.017753   -0.017908
  23 H :    0.004937    0.007927
  24 H :   -0.045377   -0.002502
  25 H :    0.007309    0.015649
  26 H :   -0.033150   -0.000263
  27 H :   -0.011636   -0.001197
  28 H :    0.028917   -0.000868
  29 H :    0.078545    0.000698

  Mayer bond orders larger than 0.100000
B(  0-O , 14-C ) :   1.4829 B(  1-O , 15-C ) :   1.3554 B(  2-O , 16-C ) :   1.5526
B(  3-O , 17-C ) :   1.5677 B(  4-N ,  8-C ) :   0.1129 B(  4-N , 10-C ) :   0.4845
B(  4-N , 16-C ) :   0.9913 B(  4-N , 26-H ) :   1.1891 B(  5-N ,  9-C ) :   0.1028
B(  5-N , 11-C ) :   0.3383 B(  5-N , 17-C ) :   1.1460 B(  5-N , 27-H ) :   1.0487
B(  6-N ,  8-C ) :  -0.1081 B(  6-N , 14-C ) :   1.0340 B(  6-N , 16-C ) :   0.9984
B(  6-N , 28-H ) :   0.9970 B(  7-N , 15-C ) :   1.1112 B(  7-N , 17-C ) :   0.9876
B(  7-N , 29-H ) :   1.0115 B(  8-C ,  9-C ) :   0.2189 B(  8-C , 10-C ) :   0.9360
B(  8-C , 11-C ) :   0.1122 B(  8-C , 12-C ) :   0.4498 B(  8-C , 14-C ) :   0.1127
B(  8-C , 20-H ) :  -0.1188 B(  9-C , 10-C ) :   0.2042 B(  9-C , 11-C ) :   0.2310
B(  9-C , 13-C ) :   0.3273 B(  9-C , 15-C ) :   0.8936 B(  9-C , 19-H ) :  -0.3199
B(  9-C , 24-H ) :  -0.1172 B( 10-C , 11-C ) :   0.4793 B( 10-C , 14-C ) :   0.2187
B( 10-C , 18-H ) :   0.5390 B( 11-C , 12-C ) :   0.1438 B( 11-C , 13-C ) :  -0.1562
B( 11-C , 15-C ) :  -0.1034 B( 11-C , 17-C ) :  -0.1798 B( 11-C , 18-H ) :  -0.1267
B( 11-C , 19-H ) :   0.8552 B( 12-C , 20-H ) :   1.0695 B( 12-C , 21-H ) :   0.8565
B( 12-C , 22-H ) :   0.8512 B( 13-C , 14-C ) :   0.1680 B( 13-C , 23-H ) :   0.8772
B( 13-C , 24-H ) :   1.0519 B( 13-C , 25-H ) :   0.9299 B( 14-C , 16-C ) :  -0.1048

Dispersion correction           -0.058849867
FINAL SINGLE POINT ENERGY      -908.767905306297

DIPOLE MOMENT
-------------

Method             : TDA/CIS
Type of density    : Electron Density
Level              : Relaxed density
State              :   2
Multiplicity       :   3
Irrep              :   0
Energy             :     0.0000000000000000 Eh
Relativity type    :
Basis              : AO
                                X                 Y                 Z
Electronic contribution:     -7.570629197      -8.217159477      -3.189100574
Nuclear contribution   :      8.622259414       9.793461829       5.097256288
                        -----------------------------------------
Total Dipole Moment    :      1.051630217       1.576302352       1.908155713
                        -----------------------------------------
Magnitude (a.u.)       :      2.689184532
Magnitude (Debye)      :      6.835363864

Rotational constants in cm-1:             0.021257             0.012356             0.011667
Rotational constants in MHz :           637.279922           370.425347           349.763190

                             ****ORCA TERMINATED NORMALLY****
TOTAL RUN TIME: 0 days 0 hours 5 minutes 11 seconds 246 msec
