                         Program Version 6.0.0  -   RELEASE  -
|  1> ! Engrad def2-TZVPPD wB97M-D3BJ
|  2> %pal nprocs 8 end%pal nprocs 64 end
|  3> %tddft Nroots 2 Iroot 2
|  4> sf true
|  5> end
|  6> *xyz 0 3
|  7> O   2.36723822 -0.24721996 -1.1277616
|  8> O   0.06972168 2.73703635 -2.37018671
|  9> O   0.43118381 -3.86585399 0.79486186
| 10> O   -2.07821696 -1.11312151 -1.19405525
| 11> N   0.44284217 -1.98088243 1.95306253
| 12> N   -1.24771025 -0.07299476 0.54458333
| 13> N   1.01641668 -1.93101526 -0.20393262
| 14> N   -0.78366936 0.71982031 -1.68235487
| 15> C   1.26706923 0.15881431 0.95601082
| 16> C   -1.2797404 2.69819546 -0.43191679
| 17> C   0.6739842 -0.58075113 2.09474487
| 18> C   -0.1993038 0.39769217 1.3374076
| 19> C   2.16968116 1.22071981 1.24103433
| 20> C   -1.5129384 3.62267655 0.61735042
| 21> C   1.64236052 -0.69592463 -0.21429273
| 22> C   -0.62474285 2.1466136 -1.5803057
| 23> C   0.59395531 -2.68868271 0.88162236
| 24> C   -1.3652786 -0.2221405 -0.79195043
| 25> H   0.83781779 -0.18717492 3.07073249
| 26> H   -0.33818583 1.30694535 1.90259495
| 27> H   1.83205831 2.15424902 0.73129264
| 28> H   2.28156027 1.56986071 2.29727997
| 29> H   3.18891265 1.18199641 0.85286667
| 30> H   -2.38563006 3.53836084 1.27381131
| 31> H   -0.69115857 3.63079367 1.34911174
| 32> H   -1.36155551 4.7035206 0.20117349
| 33> H   -0.10870033 -2.47308303 2.67548101
| 34> H   -1.90297402 -0.72282427 0.97987528
| 35> H   1.28664952 -2.47366847 -1.02392291
| 36> H   -0.4947807 0.36974743 -2.5411085
| 37> *
| 38>
| 39>                          ****END OF INPUT****

CARTESIAN COORDINATES (ANGSTROEM)
---------------------------------
  O      2.367238   -0.247220   -1.127762
  O      0.069722    2.737036   -2.370187
  O      0.431184   -3.865854    0.794862
  O     -2.078217   -1.113122   -1.194055
  N      0.442842   -1.980882    1.953063
  N     -1.247710   -0.072995    0.544583
  N      1.016417   -1.931015   -0.203933
  N     -0.783669    0.719820   -1.682355
  C      1.267069    0.158814    0.956011
  C     -1.279740    2.698195   -0.431917
  C      0.673984   -0.580751    2.094745
  C     -0.199304    0.397692    1.337408
  C      2.169681    1.220720    1.241034
  C     -1.512938    3.622677    0.617350
  C      1.642361   -0.695925   -0.214293
  C     -0.624743    2.146614   -1.580306
  C      0.593955   -2.688683    0.881622
  C     -1.365279   -0.222140   -0.791950
  H      0.837818   -0.187175    3.070732
  H     -0.338186    1.306945    1.902595
  H      1.832058    2.154249    0.731293
  H      2.281560    1.569861    2.297280
  H      3.188913    1.181996    0.852867
  H     -2.385630    3.538361    1.273811
  H     -0.691159    3.630794    1.349112
  H     -1.361556    4.703521    0.201173
  H     -0.108700   -2.473083    2.675481
  H     -1.902974   -0.722824    0.979875
  H      1.286650   -2.473668   -1.023923
  H     -0.494781    0.369747   -2.541108

 Total Charge           Charge          ....    0
 Multiplicity           Mult            ....    3
 Number of Electrons    NEL             ....  132
 Basis Dimension        Dim             ....  882

ORBITAL ENERGIES
----------------
                 SPIN UP ORBITALS
  NO   OCC          E(Eh)            E(eV)
   0   1.0000     -19.338137      -526.2175
   1   1.0000     -19.335094      -526.1347
   2   1.0000     -19.316746      -525.6354
   3   1.0000     -19.313256      -525.5404
   4   1.0000     -14.571147      -396.5011
   5   1.0000     -14.566885      -396.3851
   6   1.0000     -14.558329      -396.1523
   7   1.0000     -14.546322      -395.8256
   8   1.0000     -10.500809      -285.7415
   9   1.0000     -10.500171      -285.7242
  10   1.0000     -10.496216      -285.6166
  11   1.0000     -10.490419      -285.4588
  12   1.0000     -10.437030      -284.0060
  13   1.0000     -10.430554      -283.8298
  14   1.0000     -10.411501      -283.3113
  15   1.0000     -10.410911      -283.2953
  16   1.0000     -10.398090      -282.9464
  17   1.0000     -10.361254      -281.9440
  18   1.0000      -1.233734       -33.5716
  19   1.0000      -1.213829       -33.0300
  20   1.0000      -1.200613       -32.6704
  21   1.0000      -1.185497       -32.2590
  22   1.0000      -1.135546       -30.8998
  23   1.0000      -1.091390       -29.6982
  24   1.0000      -1.068747       -29.0821
  25   1.0000      -1.054770       -28.7017
  26   1.0000      -1.021994       -27.8099
  27   1.0000      -0.943485       -25.6735
  28   1.0000      -0.886426       -24.1209
  29   1.0000      -0.835502       -22.7352
  30   1.0000      -0.826738       -22.4967
  31   1.0000      -0.814681       -22.1686
  32   1.0000      -0.792412       -21.5626
  33   1.0000      -0.764995       -20.8166
  34   1.0000      -0.726868       -19.7791
  35   1.0000      -0.696253       -18.9460
  36   1.0000      -0.685833       -18.6625
  37   1.0000      -0.667278       -18.1576
  38   1.0000      -0.641243       -17.4491
  39   1.0000      -0.636721       -17.3260
  40   1.0000      -0.616792       -16.7838
  41   1.0000      -0.612311       -16.6618
  42   1.0000      -0.597923       -16.2703
  43   1.0000      -0.586700       -15.9649
  44   1.0000      -0.581495       -15.8233
  45   1.0000      -0.574947       -15.6451
  46   1.0000      -0.567378       -15.4392
  47   1.0000      -0.560640       -15.2558
  48   1.0000      -0.557855       -15.1800
  49   1.0000      -0.556201       -15.1350
  50   1.0000      -0.552077       -15.0228
  51   1.0000      -0.539245       -14.6736
  52   1.0000      -0.529316       -14.4034
  53   1.0000      -0.522652       -14.2221
  54   1.0000      -0.493177       -13.4200
  55   1.0000      -0.477849       -13.0029
  56   1.0000      -0.433364       -11.7924
  57   1.0000      -0.424815       -11.5598
  58   1.0000      -0.423346       -11.5198
  59   1.0000      -0.407843       -11.0980
  60   1.0000      -0.398079       -10.8323
  61   1.0000      -0.397506       -10.8167
  62   1.0000      -0.391842       -10.6626
  63   1.0000      -0.380647       -10.3579
  64   1.0000      -0.368697       -10.0327
  65   1.0000      -0.342908        -9.3310
  66   1.0000      -0.332251        -9.0410
  67   0.0000       0.005307         0.1444
  68   0.0000       0.025375         0.6905
  69   0.0000       0.027888         0.7589
  70   0.0000       0.037330         1.0158
  71   0.0000       0.043021         1.1707

                 SPIN DOWN ORBITALS
  NO   OCC          E(Eh)            E(eV)
   0   1.0000     -19.338111      -526.2167
   1   1.0000     -19.328893      -525.9659
   2   1.0000     -19.316744      -525.6353
   3   1.0000     -19.313277      -525.5410
   4   1.0000     -14.571123      -396.5004
   5   1.0000     -14.566884      -396.3851
   6   1.0000     -14.557839      -396.1389
   7   1.0000     -14.545488      -395.8028
   8   1.0000     -10.500803      -285.7414
   9   1.0000     -10.500170      -285.7241
  10   1.0000     -10.496221      -285.6167
  11   1.0000     -10.491913      -285.4995
  12   1.0000     -10.437012      -284.0055
  13   1.0000     -10.430542      -283.8295
  14   1.0000     -10.410865      -283.2941
  15   1.0000     -10.399374      -282.9814
  16   1.0000     -10.386610      -282.6340
  17   1.0000     -10.361251      -281.9440
  18   1.0000      -1.233707       -33.5709
  19   1.0000      -1.211700       -32.9720
  20   1.0000      -1.192280       -32.4436
  21   1.0000      -1.185463       -32.2581
  22   1.0000      -1.135445       -30.8970
  23   1.0000      -1.090836       -29.6831
  24   1.0000      -1.068601       -29.0781
  25   1.0000      -1.051357       -28.6089
  26   1.0000      -1.021616       -27.7996
  27   1.0000      -0.913499       -24.8576
  28   1.0000      -0.886349       -24.1188
  29   1.0000      -0.827269       -22.5111
  30   1.0000      -0.814613       -22.1668
  31   1.0000      -0.813350       -22.1324
  32   1.0000      -0.791887       -21.5483
  33   1.0000      -0.762717       -20.7546
  34   1.0000      -0.724909       -19.7258
  35   1.0000      -0.695111       -18.9149
  36   1.0000      -0.674442       -18.3525
  37   1.0000      -0.666419       -18.1342
  38   1.0000      -0.637585       -17.3496
  39   1.0000      -0.631858       -17.1937
  40   1.0000      -0.613720       -16.7002
  41   1.0000      -0.598880       -16.2963
  42   1.0000      -0.596174       -16.2227
  43   1.0000      -0.584857       -15.9148
  44   1.0000      -0.568773       -15.4771
  45   1.0000      -0.562540       -15.3075
  46   1.0000      -0.558924       -15.2091
  47   1.0000      -0.556776       -15.1506
  48   1.0000      -0.553953       -15.0738
  49   1.0000      -0.549284       -14.9468
  50   1.0000      -0.546750       -14.8778
  51   1.0000      -0.533680       -14.5222
  52   1.0000      -0.524168       -14.2633
  53   1.0000      -0.510863       -13.9013
  54   1.0000      -0.493013       -13.4156
  55   1.0000      -0.477407       -12.9909
  56   1.0000      -0.427670       -11.6375
  57   1.0000      -0.423774       -11.5315
  58   1.0000      -0.417985       -11.3740
  59   1.0000      -0.402514       -10.9530
  60   1.0000      -0.395435       -10.7603
  61   1.0000      -0.389646       -10.6028
  62   1.0000      -0.388133       -10.5616
  63   1.0000      -0.371432       -10.1072
  64   1.0000      -0.367568       -10.0020
  65   0.0000      -0.038343        -1.0434
  66   0.0000      -0.002106        -0.0573
  67   0.0000       0.006191         0.1685
  68   0.0000       0.024978         0.6797
  69   0.0000       0.028589         0.7779

----------------------------------------------------------------------------------------------------
          SPIN FLIP ABSORPTION SPECTRUM VIA TRANSITION ELECTRIC DIPOLE MOMENTS
----------------------------------------------------------------------------------------------------
     Transition      Energy     Energy  Wavelength fosc(D2)      D2        DX        DY        DZ
                      (eV)      (cm-1)    (nm)                 (au**2)    (au)      (au)      (au)
----------------------------------------------------------------------------------------------------
  1-3A  ->  2-3A    0.217732    1756.1  5694.3   0.000044941   0.00842   0.06752   0.02451  -0.05715

Dispersion correction             ... done (  0.1 sec)

MULLIKEN ATOMIC CHARGES AND SPIN DENSITIES
------------------------------------------
   0 O :   -0.670431   -0.000564
   1 O :   -0.603330   -0.096901
   2 O :   -0.644884    0.000080
   3 O :   -0.659702   -0.003056
   4 N :   -0.171677    0.000691
   5 N :   -0.159174    0.031811
   6 N :    0.027297   -0.000570
   7 N :    0.085185   -0.019459
   8 C :    2.199524    0.019650
   9 C :    0.466484    0.407727
  10 C :   -0.520587   -0.006394
  11 C :   -0.408874   -0.029983
  12 C :   -1.458814   -0.004574
  13 C :   -0.804859    0.051990
  14 C :   -0.428372    0.004423
  15 C :    0.225461   -0.369807
  16 C :    0.496377   -0.000249
  17 C :    0.511320   -0.021187
  18 H :    0.241984    0.000156
  19 H :    0.377779    0.004947
  20 H :    0.242535   -0.002385
  21 H :    0.328815   -0.000397
  22 H :    0.322544   -0.000412
  23 H :    0.261664   -0.007524
  24 H :    0.225743   -0.010539
  25 H :    0.295810    0.051218
  26 H :    0.086481    0.000200
  27 H :    0.071101   -0.000368
  28 H :    0.074260   -0.000559
  29 H :   -0.009662    0.002037
Sum of atomic charges       :   -0.0000000

LOEWDIN ATOMIC CHARGES AND SPIN DENSITIES
-----------------------------------------
   0 O :    0.083133   -0.000244
   1 O :    0.090954   -0.087676
   2 O :    0.120140    0.000120
   3 O :    0.089393   -0.003484
   4 N :    0.288420    0.000475
   5 N :    0.258626    0.021483
   6 N :    0.338528   -0.000141
   7 N :    0.332499   -0.015300
   8 C :   -0.246914    0.000423
   9 C :    0.199488    0.097744
  10 C :   -0.024887   -0.000040
  11 C :   -0.063157    0.005023
  12 C :    0.162917   -0.000585
  13 C :    0.076603    0.003454
  14 C :   -0.312725   -0.000143
  15 C :   -0.482713   -0.033067
  16 C :   -0.552909    0.000081
  17 C :   -0.488023    0.000926
  18 H :    0.041512   -0.000010
  19 H :    0.031922    0.000550
  20 H :    0.022846   -0.000230
  21 H :    0.028859   -0.000093
  22 H :    0.009426   -0.000007
  23 H :    0.004754   -0.009972
  24 H :   -0.013686   -0.023730
  25 H :    0.055019    0.043890
  26 H :    0.022409    0.000016
  27 H :   -0.007249    0.000957
  28 H :    0.006760   -0.000017
  29 H :   -0.071946   -0.000402

  Mayer bond orders larger than 0.100000
B(  0-O ,  8-C ) :  -0.1251 B(  0-O , 14-C ) :   1.5156 B(  1-O , 15-C ) :   1.4186
B(  2-O , 16-C ) :   1.5919 B(  3-O , 17-C ) :   1.4521 B(  4-N , 10-C ) :   0.7597
B(  4-N , 16-C ) :   1.0976 B(  4-N , 26-H ) :   1.0807 B(  5-N , 10-C ) :  -0.1018
B(  5-N , 11-C ) :   0.7177 B(  5-N , 17-C ) :   0.9774 B(  5-N , 19-H ) :  -0.1033
B(  5-N , 27-H ) :   1.0718 B(  6-N , 10-C ) :   0.1127 B(  6-N , 14-C ) :   0.9932
B(  6-N , 16-C ) :   0.9630 B(  6-N , 28-H ) :   1.0678 B(  7-N , 11-C ) :   0.1080
B(  7-N , 15-C ) :   0.9170 B(  7-N , 17-C ) :   0.9091 B(  7-N , 29-H ) :   1.1602
B(  8-C , 11-C ) :   0.2607 B(  8-C , 18-H ) :  -0.1188 B(  8-C , 19-H ) :  -0.1131
B(  8-C , 20-H ) :  -0.1324 B(  8-C , 21-H ) :  -0.1387 B(  9-C , 13-C ) :   0.6242
B(  9-C , 15-C ) :   0.8081 B( 10-C , 11-C ) :   0.6043 B( 10-C , 14-C ) :  -0.1689
B( 10-C , 16-C ) :  -0.1178 B( 10-C , 18-H ) :   1.2366 B( 11-C , 18-H ) :  -0.1322
B( 11-C , 19-H ) :   1.0574 B( 12-C , 14-C ) :   0.2119 B( 12-C , 20-H ) :   1.0068
B( 12-C , 21-H ) :   1.1098 B( 12-C , 22-H ) :   0.7801 B( 13-C , 23-H ) :   0.9584
B( 13-C , 24-H ) :   0.9561 B( 13-C , 25-H ) :   0.9110 B( 14-C , 17-C ) :   0.1166

Dispersion correction           -0.055720895
FINAL SINGLE POINT ENERGY      -908.652364671497

DIPOLE MOMENT
-------------

Method             : TDA/CIS
Type of density    : Electron Density
Level              : Relaxed density
State              :   2
Multiplicity       :   3
Irrep              :   0
Energy             :     0.0000000000000000 Eh
Relativity type    :
Basis              : AO
                                X                 Y                 Z
Electronic contribution:     -1.327025013     -10.298435643      -7.533471264
Nuclear contribution   :      0.977861776      11.769763067      10.652924187
                        -----------------------------------------
Total Dipole Moment    :     -0.349163237       1.471327425       3.119452923
                        -----------------------------------------
Magnitude (a.u.)       :      3.466656299
Magnitude (Debye)      :      8.811540048

Rotational constants in cm-1:             0.022962             0.011645             0.011037
Rotational constants in MHz :           688.369442           349.100892           330.895557

                             ****ORCA TERMINATED NORMALLY****
TOTAL RUN TIME: 0 days 0 hours 4 minutes 33 seconds 382 msec
