                         Program Version 6.0.0  -   RELEASE  -
|  1> ! Engrad def2-TZVPPD wB97M-D3BJ
|  2> %pal nprocs 8 end%pal nprocs 64 end
|  3> %tddft
|  4>  Iroot 1 Nroots 3
|  5> sf true
|  6> end
|  7> *xyz 0 3
|  8> O   0.6750335 -0.74817464 -0.69325648
|  9> C   0.82661763 0.06001536 0.4098324
| 10> C   -0.34938499 0.98561247 0.53075033
| 11> H   1.90530794 0.5038876 0.35207938
| 12> H   0.77591083 -0.65863944 1.2914846
| 13> H   -0.31764414 2.01930625 0.69734959
| 14> H   -1.28912966 0.52948201 0.69132487
| 15> *
| 16>
| 17>                          ****END OF INPUT****

CARTESIAN COORDINATES (ANGSTROEM)
---------------------------------
  O      0.675033   -0.748175   -0.693256
  C      0.826618    0.060015    0.409832
  C     -0.349385    0.985612    0.530750
  H      1.905308    0.503888    0.352079
  H      0.775911   -0.658639    1.291485
  H     -0.317644    2.019306    0.697350
  H     -1.289130    0.529482    0.691325

 Total Charge           Charge          ....    0
 Multiplicity           Mult            ....    3
 Number of Electrons    NEL             ....   24
 Basis Dimension        Dim             ....  182

ORBITAL ENERGIES
----------------
                 SPIN UP ORBITALS
  NO   OCC          E(Eh)            E(eV)
   0   1.0000     -19.385993      -527.5197
   1   1.0000     -10.424820      -283.6738
   2   1.0000     -10.365524      -282.0603
   3   1.0000      -1.166139       -31.7322
   4   1.0000      -0.871940       -23.7267
   5   1.0000      -0.733331       -19.9549
   6   1.0000      -0.613457       -16.6930
   7   1.0000      -0.586909       -15.9706
   8   1.0000      -0.551041       -14.9946
   9   1.0000      -0.518454       -14.1079
  10   1.0000      -0.436607       -11.8807
  11   1.0000      -0.409871       -11.1532
  12   1.0000      -0.328419        -8.9367
  13   0.0000       0.041279         1.1233
  14   0.0000       0.061297         1.6680
  15   0.0000       0.077032         2.0962
  16   0.0000       0.087585         2.3833
  17   0.0000       0.113484         3.0880

                 SPIN DOWN ORBITALS
  NO   OCC          E(Eh)            E(eV)
   0   1.0000     -19.361868      -526.8632
   1   1.0000     -10.426273      -283.7133
   2   1.0000     -10.352018      -281.6927
   3   1.0000      -1.111909       -30.2566
   4   1.0000      -0.837533       -22.7904
   5   1.0000      -0.707053       -19.2399
   6   1.0000      -0.587835       -15.9958
   7   1.0000      -0.546406       -14.8685
   8   1.0000      -0.525428       -14.2976
   9   1.0000      -0.492615       -13.4047
  10   1.0000      -0.379943       -10.3388
  11   0.0000      -0.051861        -1.4112
  12   0.0000      -0.002666        -0.0725
  13   0.0000       0.040499         1.1020
  14   0.0000       0.061140         1.6637
  15   0.0000       0.076652         2.0858

----------------------------------------------------------------------------------------------------
          SPIN FLIP ABSORPTION SPECTRUM VIA TRANSITION ELECTRIC DIPOLE MOMENTS
----------------------------------------------------------------------------------------------------
     Transition      Energy     Energy  Wavelength fosc(D2)      D2        DX        DY        DZ
                      (eV)      (cm-1)    (nm)                 (au**2)    (au)      (au)      (au)
----------------------------------------------------------------------------------------------------
  1-3A  ->  2-3A    0.162791    1313.0  7616.1   0.000008540   0.00214  -0.04250   0.01184   0.01394
  1-3A  ->  3-3A    0.951609    7675.2  1302.9   0.011171121   0.47916  -0.22367   0.48768   0.43738

Dispersion correction             ... done (  0.1 sec)

MULLIKEN ATOMIC CHARGES AND SPIN DENSITIES
------------------------------------------
   0 O :   -0.420343   -0.662801
   1 C :    0.034928   -0.042198
   2 C :   -0.574728    0.615815
   3 H :    0.231502   -0.073109
   4 H :    0.200515    0.077470
   5 H :    0.261791    0.041489
   6 H :    0.266334    0.043334
Sum of atomic charges       :    0.0000000

LOEWDIN ATOMIC CHARGES AND SPIN DENSITIES
-----------------------------------------
   0 O :   -0.052316   -0.653537
   1 C :   -0.294048    0.017434
   2 C :    0.353710    0.528463
   3 H :    0.069560   -0.057100
   4 H :    0.037976    0.028547
   5 H :   -0.062837    0.069997
   6 H :   -0.052045    0.066195

  Mayer bond orders larger than 0.100000
B(  0-O ,  1-C ) :   0.8617 B(  0-O ,  2-C ) :   0.3873 B(  1-C ,  2-C ) :   0.7878
B(  1-C ,  3-H ) :   0.9266 B(  1-C ,  4-H ) :   1.0033 B(  2-C ,  5-H ) :   0.9285
B(  2-C ,  6-H ) :   0.9501

Dispersion correction           -0.005471703
FINAL SINGLE POINT ENERGY      -153.750591885033

DIPOLE MOMENT
-------------

Method             : TDA/CIS
Type of density    : Electron Density
Level              : Relaxed density
State              :   1
Multiplicity       :   3
Irrep              :   0
Energy             :     0.0000000000000000 Eh
Relativity type    :
Basis              : AO
                                X                 Y                 Z
Electronic contribution:      0.295583337      -1.100609017      -1.589822859
Nuclear contribution   :     -0.488460649       1.978211609       2.555513120
                        -----------------------------------------
Total Dipole Moment    :     -0.192877313       0.877602592       0.965690261
                        -----------------------------------------
Magnitude (a.u.)       :      1.319069993
Magnitude (Debye)      :      3.352809471

Rotational constants in cm-1:             1.365718             0.354396             0.310082
Rotational constants in MHz :         40943.181136         10624.533955          9296.037581

                             ****ORCA TERMINATED NORMALLY****
TOTAL RUN TIME: 0 days 0 hours 0 minutes 26 seconds 964 msec
