                         Program Version 6.0.0  -   RELEASE  -
|  1> ! Engrad def2-TZVPPD wB97M-D3BJ
|  2> %pal nprocs 8 end%pal nprocs 64 end
|  3>  %tddft nroots 2 Iroot 1
|  4> sf true
|  5> end
|  6> *xyz 0 3
|  7> O   2.61400887492657 1.14760183702601 -0.52288945132194
|  8> O   -0.5787273055772 0.8719765981754 -2.27905425627099
|  9> O   0.66979983180006 -2.84472595952532 -1.48515481442183
| 10> O   -2.57116710157403 -1.63205891247911 0.94817092045489
| 11> N   0.57781828297181 -2.07331136482386 0.65553612248972
| 12> N   -1.99395616991586 0.51735740147548 1.42543384489986
| 13> N   1.7107571878654 -0.8834465929352 -0.95850999641316
| 14> N   -1.63013848411735 -0.33397649588858 -0.67760153123174
| 15> C   1.37216802296585 0.10744106932192 1.20926072028414
| 16> C   -0.79978597119323 1.86583294527702 -0.13263120575615
| 17> C   0.74413498991857 -1.02938238519676 1.53579984080912
| 18> C   -1.35184688541584 1.68150701876206 1.07080500470799
| 19> C   1.63244412369122 1.22018566376677 2.17203293313836
| 20> C   -0.08648661616919 3.11406685113493 -0.54097700744724
| 21> C   1.96031579019895 0.20545624296117 -0.12726933831182
| 22> C   -0.9696229552942 0.81225383256195 -1.13538861994871
| 23> C   0.96331178617357 -2.00366535940552 -0.66597710561035
| 24> C   -2.10754494620541 -0.56956012868265 0.58897876452679
| 25> H   0.32199819711226 -1.19217127208408 2.51583131479455
| 26> H   -1.3020906034587 2.43096189175676 1.84571396223961
| 27> H   1.36371710925316 2.17832785132906 1.73426724579881
| 28> H   1.06891033757097 1.07615864900375 3.09181407468095
| 29> H   2.6914315556351 1.27404745484942 2.41928764553543
| 30> H   -0.55682582750588 3.54991142686566 -1.42007179130007
| 31> H   -0.10007573636468 3.84543971631292 0.26436392281441
| 32> H   0.9465668617364 2.89270235739166 -0.80040989193555
| 33> H   -0.06372014389288 -2.81643109182533 0.87432326776099
| 34> H   -2.36150637700536 0.38853135371734 2.35040270027143
| 35> H   1.99086304350135 -0.7843464946481 -1.92202707596784
| 36> H   -1.70215087163145 -1.10168410419482 -1.32946019926963
| 37> *
| 38>
| 39>                          ****END OF INPUT****

CARTESIAN COORDINATES (ANGSTROEM)
---------------------------------
  O      2.614009    1.147602   -0.522889
  O     -0.578727    0.871977   -2.279054
  O      0.669800   -2.844726   -1.485155
  O     -2.571167   -1.632059    0.948171
  N      0.577818   -2.073311    0.655536
  N     -1.993956    0.517357    1.425434
  N      1.710757   -0.883447   -0.958510
  N     -1.630138   -0.333976   -0.677602
  C      1.372168    0.107441    1.209261
  C     -0.799786    1.865833   -0.132631
  C      0.744135   -1.029382    1.535800
  C     -1.351847    1.681507    1.070805
  C      1.632444    1.220186    2.172033
  C     -0.086487    3.114067   -0.540977
  C      1.960316    0.205456   -0.127269
  C     -0.969623    0.812254   -1.135389
  C      0.963312   -2.003665   -0.665977
  C     -2.107545   -0.569560    0.588979
  H      0.321998   -1.192171    2.515831
  H     -1.302091    2.430962    1.845714
  H      1.363717    2.178328    1.734267
  H      1.068910    1.076159    3.091814
  H      2.691432    1.274047    2.419288
  H     -0.556826    3.549911   -1.420072
  H     -0.100076    3.845440    0.264364
  H      0.946567    2.892702   -0.800410
  H     -0.063720   -2.816431    0.874323
  H     -2.361506    0.388531    2.350403
  H      1.990863   -0.784346   -1.922027
  H     -1.702151   -1.101684   -1.329460

 Total Charge           Charge          ....    0
 Multiplicity           Mult            ....    3
 Number of Electrons    NEL             ....  132
 Basis Dimension        Dim             ....  882

ORBITAL ENERGIES
----------------
                 SPIN UP ORBITALS
  NO   OCC          E(Eh)            E(eV)
   0   1.0000     -19.339934      -526.2664
   1   1.0000     -19.320902      -525.7485
   2   1.0000     -19.320479      -525.7370
   3   1.0000     -19.319260      -525.7038
   4   1.0000     -14.598669      -397.2500
   5   1.0000     -14.576427      -396.6447
   6   1.0000     -14.563215      -396.2852
   7   1.0000     -14.556341      -396.0982
   8   1.0000     -10.517523      -286.1964
   9   1.0000     -10.505981      -285.8823
  10   1.0000     -10.476141      -285.0703
  11   1.0000     -10.459466      -284.6165
  12   1.0000     -10.431624      -283.8589
  13   1.0000     -10.409518      -283.2574
  14   1.0000     -10.403433      -283.0918
  15   1.0000     -10.379741      -282.4471
  16   1.0000     -10.361959      -281.9632
  17   1.0000     -10.361842      -281.9601
  18   1.0000      -1.233180       -33.5565
  19   1.0000      -1.219549       -33.1856
  20   1.0000      -1.193475       -32.4761
  21   1.0000      -1.189602       -32.3707
  22   1.0000      -1.131288       -30.7839
  23   1.0000      -1.117419       -30.4065
  24   1.0000      -1.066450       -29.0196
  25   1.0000      -1.064019       -28.9534
  26   1.0000      -0.978507       -26.6265
  27   1.0000      -0.956664       -26.0321
  28   1.0000      -0.857113       -23.3232
  29   1.0000      -0.849202       -23.1080
  30   1.0000      -0.814123       -22.1534
  31   1.0000      -0.808113       -21.9899
  32   1.0000      -0.795215       -21.6389
  33   1.0000      -0.788344       -21.4519
  34   1.0000      -0.706010       -19.2115
  35   1.0000      -0.695745       -18.9322
  36   1.0000      -0.692438       -18.8422
  37   1.0000      -0.688354       -18.7311
  38   1.0000      -0.646164       -17.5830
  39   1.0000      -0.636746       -17.3267
  40   1.0000      -0.635496       -17.2927
  41   1.0000      -0.600153       -16.3310
  42   1.0000      -0.599599       -16.3159
  43   1.0000      -0.592724       -16.1288
  44   1.0000      -0.577911       -15.7258
  45   1.0000      -0.575420       -15.6580
  46   1.0000      -0.560522       -15.2526
  47   1.0000      -0.551445       -15.0056
  48   1.0000      -0.550951       -14.9921
  49   1.0000      -0.548566       -14.9272
  50   1.0000      -0.529797       -14.4165
  51   1.0000      -0.524900       -14.2832
  52   1.0000      -0.520553       -14.1650
  53   1.0000      -0.517413       -14.0795
  54   1.0000      -0.506240       -13.7755
  55   1.0000      -0.504241       -13.7211
  56   1.0000      -0.497819       -13.5463
  57   1.0000      -0.473595       -12.8872
  58   1.0000      -0.427242       -11.6258
  59   1.0000      -0.412630       -11.2282
  60   1.0000      -0.410891       -11.1809
  61   1.0000      -0.396179       -10.7806
  62   1.0000      -0.392432       -10.6786
  63   1.0000      -0.388889       -10.5822
  64   1.0000      -0.383309       -10.4304
  65   1.0000      -0.345021        -9.3885
  66   1.0000      -0.212383        -5.7792
  67   0.0000       0.011229         0.3056
  68   0.0000       0.021143         0.5753
  69   0.0000       0.033337         0.9071
  70   0.0000       0.039177         1.0661
  71   0.0000       0.040672         1.1067

                 SPIN DOWN ORBITALS
  NO   OCC          E(Eh)            E(eV)
   0   1.0000     -19.338149      -526.2178
   1   1.0000     -19.320474      -525.7368
   2   1.0000     -19.319209      -525.7024
   3   1.0000     -19.314672      -525.5789
   4   1.0000     -14.594159      -397.1272
   5   1.0000     -14.576239      -396.6396
   6   1.0000     -14.563222      -396.2854
   7   1.0000     -14.555391      -396.0723
   8   1.0000     -10.517830      -286.2047
   9   1.0000     -10.505990      -285.8825
  10   1.0000     -10.476123      -285.0698
  11   1.0000     -10.459037      -284.6049
  12   1.0000     -10.431286      -283.8497
  13   1.0000     -10.400159      -283.0027
  14   1.0000     -10.392848      -282.8038
  15   1.0000     -10.379825      -282.4494
  16   1.0000     -10.362347      -281.9738
  17   1.0000     -10.361731      -281.9570
  18   1.0000      -1.229184       -33.4478
  19   1.0000      -1.219346       -33.1801
  20   1.0000      -1.189912       -32.3791
  21   1.0000      -1.183873       -32.2148
  22   1.0000      -1.121006       -30.5041
  23   1.0000      -1.116997       -30.3950
  24   1.0000      -1.064000       -28.9529
  25   1.0000      -1.061028       -28.8720
  26   1.0000      -0.959254       -26.1026
  27   1.0000      -0.950836       -25.8736
  28   1.0000      -0.848833       -23.0979
  29   1.0000      -0.845683       -23.0122
  30   1.0000      -0.808964       -22.0130
  31   1.0000      -0.803105       -21.8536
  32   1.0000      -0.788545       -21.4574
  33   1.0000      -0.787695       -21.4343
  34   1.0000      -0.694389       -18.8953
  35   1.0000      -0.692348       -18.8398
  36   1.0000      -0.688505       -18.7352
  37   1.0000      -0.687118       -18.6974
  38   1.0000      -0.637996       -17.3608
  39   1.0000      -0.632991       -17.2246
  40   1.0000      -0.629104       -17.1188
  41   1.0000      -0.594342       -16.1729
  42   1.0000      -0.591806       -16.1039
  43   1.0000      -0.589330       -16.0365
  44   1.0000      -0.569262       -15.4904
  45   1.0000      -0.564253       -15.3541
  46   1.0000      -0.559491       -15.2245
  47   1.0000      -0.549909       -14.9638
  48   1.0000      -0.544264       -14.8102
  49   1.0000      -0.535426       -14.5697
  50   1.0000      -0.521038       -14.1782
  51   1.0000      -0.520475       -14.1628
  52   1.0000      -0.515346       -14.0233
  53   1.0000      -0.506262       -13.7761
  54   1.0000      -0.504643       -13.7320
  55   1.0000      -0.499903       -13.6031
  56   1.0000      -0.471936       -12.8420
  57   1.0000      -0.455791       -12.4027
  58   1.0000      -0.423243       -11.5170
  59   1.0000      -0.411997       -11.2110
  60   1.0000      -0.396721       -10.7953
  61   1.0000      -0.386782       -10.5249
  62   1.0000      -0.383702       -10.4411
  63   1.0000      -0.380619       -10.3572
  64   1.0000      -0.343821        -9.3559
  65   0.0000      -0.109336        -2.9752
  66   0.0000       0.010880         0.2961
  67   0.0000       0.023641         0.6433
  68   0.0000       0.031357         0.8533
  69   0.0000       0.037350         1.0163

----------------------------------------------------------------------------------------------------
          SPIN FLIP ABSORPTION SPECTRUM VIA TRANSITION ELECTRIC DIPOLE MOMENTS
----------------------------------------------------------------------------------------------------
     Transition      Energy     Energy  Wavelength fosc(D2)      D2        DX        DY        DZ
                      (eV)      (cm-1)    (nm)                 (au**2)    (au)      (au)      (au)
----------------------------------------------------------------------------------------------------
  1-3A  ->  2-3A    4.217886   34019.6   293.9   0.001403553   0.01358  -0.03731   0.04415   0.10120

Dispersion correction             ... done (  0.1 sec)

MULLIKEN ATOMIC CHARGES AND SPIN DENSITIES
------------------------------------------
   0 O :   -0.677939   -0.001190
   1 O :   -0.673264    0.038581
   2 O :   -0.649954   -0.000190
   3 O :   -0.664950    0.006269
   4 N :   -0.059383   -0.001245
   5 N :    0.030155    0.056736
   6 N :    0.047987    0.000595
   7 N :    0.037738    0.005440
   8 C :    0.947766   -0.013381
   9 C :    0.873757    0.514138
  10 C :    0.069358    0.023981
  11 C :   -0.095140   -0.359498
  12 C :   -1.497687   -0.002497
  13 C :   -1.505991   -0.040279
  14 C :    0.186843   -0.018282
  15 C :    0.355350   -0.298865
  16 C :    0.389626    0.002021
  17 C :    0.449375    0.008916
  18 H :    0.185408   -0.000410
  19 H :    0.203171    0.039609
  20 H :    0.242570    0.007005
  21 H :    0.328604    0.000966
  22 H :    0.378334   -0.001714
  23 H :    0.382888   -0.000631
  24 H :    0.332142    0.013161
  25 H :    0.243407    0.019326
  26 H :    0.062805   -0.000337
  27 H :    0.024932   -0.000329
  28 H :    0.028614    0.000103
  29 H :    0.023478    0.002002
Sum of atomic charges       :    0.0000000

LOEWDIN ATOMIC CHARGES AND SPIN DENSITIES
-----------------------------------------
   0 O :    0.090533    0.000706
   1 O :    0.095585    0.030614
   2 O :    0.087414   -0.000126
   3 O :    0.078579    0.005167
   4 N :    0.278132   -0.000294
   5 N :    0.294104    0.024124
   6 N :    0.345641    0.000342
   7 N :    0.345668   -0.000380
   8 C :   -0.145897   -0.000747
   9 C :   -0.141776   -0.037699
  10 C :    0.040423   -0.000636
  11 C :    0.044724   -0.028605
  12 C :    0.177419   -0.000738
  13 C :    0.183210   -0.003199
  14 C :   -0.397763    0.000211
  15 C :   -0.405779    0.010284
  16 C :   -0.483530   -0.000076
  17 C :   -0.488203    0.000083
  18 H :    0.040290   -0.000049
  19 H :    0.038985   -0.001340
  20 H :   -0.018018   -0.000246
  21 H :   -0.004079    0.000045
  22 H :    0.005088   -0.000061
  23 H :    0.003653   -0.000102
  24 H :   -0.004396    0.000313
  25 H :   -0.015726   -0.000171
  26 H :   -0.021555   -0.000013
  27 H :   -0.015735    0.002341
  28 H :   -0.001582    0.000121
  29 H :   -0.005408    0.000130

  Mayer bond orders larger than 0.100000
B(  0-O , 14-C ) :   1.4475 B(  1-O , 15-C ) :   1.3995 B(  2-O , 16-C ) :   1.5636
B(  3-O , 17-C ) :   1.5424 B(  4-N , 10-C ) :   0.8181 B(  4-N , 16-C ) :   1.0121
B(  4-N , 26-H ) :   1.1139 B(  5-N , 11-C ) :   0.9615 B(  5-N , 17-C ) :   1.0194
B(  5-N , 27-H ) :   1.1286 B(  6-N , 14-C ) :   1.0383 B(  6-N , 16-C ) :   0.9152
B(  6-N , 28-H ) :   1.1034 B(  7-N , 15-C ) :   0.9336 B(  7-N , 17-C ) :   0.9505
B(  7-N , 29-H ) :   1.1244 B(  8-C , 10-C ) :   1.0556 B(  8-C , 12-C ) :   0.3488
B(  8-C , 14-C ) :   0.6545 B(  8-C , 20-H ) :  -0.1015 B(  9-C , 11-C ) :   1.1396
B(  9-C , 13-C ) :   0.3157 B(  9-C , 15-C ) :   0.6428 B(  9-C , 17-C ) :   0.1005
B(  9-C , 24-H ) :  -0.1184 B( 10-C , 12-C ) :  -0.1894 B( 10-C , 18-H ) :   1.1301
B( 11-C , 13-C ) :  -0.2341 B( 11-C , 15-C ) :   0.1099 B( 11-C , 19-H ) :   1.0930
B( 12-C , 20-H ) :   1.0062 B( 12-C , 21-H ) :   1.0360 B( 12-C , 22-H ) :   0.8783
B( 13-C , 23-H ) :   0.8607 B( 13-C , 24-H ) :   1.0613 B( 13-C , 25-H ) :   0.9696

Dispersion correction           -0.060870414
FINAL SINGLE POINT ENERGY      -908.925055451861

DIPOLE MOMENT
-------------

Method             : TDA/CIS
Type of density    : Electron Density
Level              : Relaxed density
State              :   1
Multiplicity       :   3
Irrep              :   0
Energy             :     0.0000000000000000 Eh
Relativity type    :
Basis              : AO
                                X                 Y                 Z
Electronic contribution:     -2.727187308     -10.116074363      -5.883191024
Nuclear contribution   :      2.057506956      11.027553783       8.521221859
                        -----------------------------------------
Total Dipole Moment    :     -0.669680352       0.911479420       2.638030835
                        -----------------------------------------
Magnitude (a.u.)       :      2.870274062
Magnitude (Debye)      :      7.295656871

Rotational constants in cm-1:             0.017340             0.016772             0.013563
Rotational constants in MHz :           519.852546           502.826495           406.605789

                             ****ORCA TERMINATED NORMALLY****
TOTAL RUN TIME: 0 days 0 hours 5 minutes 50 seconds 719 msec
