                         Program Version 6.0.0  -   RELEASE  -
|  1> ! opt def2-TZVPPD wB97M-D3BJ
|  2> %pal nprocs 8 end%pal nprocs 32 end
|  3> %geom Constraints
|  4> {B 9 8 2.9 C}
|  5> {A 8 9 11 79.71428571428571 C}
|  6> end
|  7> MaxIter 300
|  8> end
|  9> *xyz 0 1
| 10> O   2.98579685529314 0.88758230159078 -0.86184571092411
| 11> O   -0.03983205397054 0.68929041702508 -2.10362336723772
| 12> O   0.93431434349854 -3.13274393337945 -0.68767288184107
| 13> O   -3.75829998830163 -0.84727300865116 -0.0472717177755
| 14> N   0.21184538946282 -1.54604804365365 0.7617588924445
| 15> N   -2.13631993928911 0.03188773433438 1.27350571071531
| 16> N   2.02598672506387 -1.14318467211666 -0.64531219127023
| 17> N   -1.91814233924584 0.03137116037665 -1.04498946748291
| 18> C   1.18097737274226 0.71693507080484 0.70173889017321
| 19> C   -0.20686880480777 1.27024627933494 0.21345042231937
| 20> C   0.41441080275909 -0.34173258966541 1.52336266615173
| 21> C   -0.82922175114212 0.58960593673968 1.44434972027296
| 22> C   1.92822011286806 1.69488653817281 1.5963734975385
| 23> C   -0.37809776891576 2.77134929626422 0.04819649358288
| 24> C   2.1403947470937 0.1972384729179 -0.35038567829864
| 25> C   -0.67361678962426 0.6214190571346 -1.0793014500539
| 26> C   1.04142578622994 -2.02697492875068 -0.21027082435993
| 27> C   -2.68467002550422 -0.30396816036989 0.07167054343891
| 28> H   0.80817443950001 -0.54572267081061 2.51895215321335
| 29> H   -0.83785272399001 1.27240685039143 2.28901317073582
| 30> H   2.31167340578204 2.52284411740894 1.00913016264629
| 31> H   1.28982602448342 2.08257620823614 2.38710022492991
| 32> H   2.77390820759972 1.19140411795486 2.06045858523949
| 33> H   -1.41857211141493 3.00964947214868 -0.16882755561625
| 34> H   -0.09065531563179 3.29799318042223 0.95389844358819
| 35> H   0.23426221611057 3.12492645074476 -0.77764887675592
| 36> H   -0.46772570547622 -2.21560145172536 1.0787081584806
| 37> H   -2.71769301149571 -0.17090724573546 2.06627440900372
| 38> H   2.60065167263658 -1.49057255715425 -1.3966820077142
| 39> H   -2.27169977231386 -0.32388339999036 -1.91951041514436
| 40> *
| 41>
| 42>                          ****END OF INPUT****
 Total Charge           Charge          ....    0
 Multiplicity           Mult            ....    1
 Number of Electrons    NEL             ....  132
Dispersion correction           -0.053318065
FINAL SINGLE POINT ENERGY      -908.680549218067
Dispersion correction             ... done (  0.0 sec)
Dispersion correction           -0.053902534
FINAL SINGLE POINT ENERGY      -908.706437057794
Dispersion correction             ... done (  0.0 sec)
Dispersion correction           -0.054682361
FINAL SINGLE POINT ENERGY      -908.722795817505
Dispersion correction             ... done (  0.0 sec)
FINAL SINGLE POINT ENERGY      -908.735122312628
FINAL SINGLE POINT ENERGY      -908.740666377644
FINAL SINGLE POINT ENERGY      -908.746068497855
FINAL SINGLE POINT ENERGY      -908.750764202393
FINAL SINGLE POINT ENERGY      -908.753239895905
FINAL SINGLE POINT ENERGY      -908.756292917307
FINAL SINGLE POINT ENERGY      -908.759436214112
FINAL SINGLE POINT ENERGY      -908.766794196419
FINAL SINGLE POINT ENERGY      -908.766846540933
FINAL SINGLE POINT ENERGY      -908.766874905400
FINAL SINGLE POINT ENERGY      -908.766887658084
FINAL SINGLE POINT ENERGY      -908.766894878451
FINAL SINGLE POINT ENERGY      -908.766899165276
FINAL SINGLE POINT ENERGY      -908.766903303872
Dispersion correction             ... done (  0.0 sec)
Dispersion correction           -0.058459409
FINAL SINGLE POINT ENERGY      -908.766905718446
Dispersion correction             ... done (  0.0 sec)
Dispersion correction           -0.058460438
FINAL SINGLE POINT ENERGY      -908.766907264952
Dispersion correction             ... done (  0.0 sec)
                    ***********************HURRAY********************

CARTESIAN COORDINATES (ANGSTROEM)
---------------------------------
  O      2.668674   -0.171614   -1.372803
  O     -0.787471    2.355048   -2.038204
  O      0.403074   -3.234703    0.895341
  O     -2.262913   -1.879796   -1.355787
  N      0.545060   -1.167779    1.841730
  N     -1.946322   -0.561113    0.466455
  N      1.058911   -1.472401   -0.409002
  N     -1.433104    0.209233   -1.671530
  C      1.657149    0.593229    0.627243
  C     -1.011012    1.649051    0.207530
  C      0.404174    0.202266    1.570276
  C     -1.305980    0.546684    1.087235
  C      2.663690    1.544626    1.135824
  C     -0.782988    3.006844    0.734035
  C      1.867944   -0.297979   -0.461945
  C     -1.043029    1.465879   -1.255426
  C      0.656659   -2.060728    0.772685
  C     -1.898800   -0.834008   -0.878656
  H      0.470564    0.781705    2.486642
  H     -1.791884    0.826613    2.017013
  H      3.514861    1.574047    0.460904
  H      2.258268    2.556975    1.230448
  H      3.017500    1.254144    2.131773
  H     -1.749530    3.506328    0.864334
  H     -0.300944    2.981345    1.710344
  H     -0.198909    3.593233    0.032429
  H      0.168041   -1.593938    2.673169
  H     -2.175612   -1.365343    1.024543
  H      1.220713   -2.126852   -1.158543
  H     -1.434181    0.034004   -2.663457

 Multiplicity           Mult            ....    1
 Number of Electrons    NEL             ....  132
 Basis Dimension        Dim             ....  882

ORBITAL ENERGIES
----------------

  NO   OCC          E(Eh)            E(eV)
   0   2.0000     -19.339107      -526.2439
   1   2.0000     -19.325517      -525.8741
   2   2.0000     -19.324786      -525.8542
   3   2.0000     -19.305697      -525.3347
   4   2.0000     -14.571096      -396.4997
   5   2.0000     -14.570249      -396.4766
   6   2.0000     -14.569413      -396.4539
   7   2.0000     -14.546720      -395.8364
   8   2.0000     -10.511599      -286.0352
   9   2.0000     -10.503490      -285.8145
  10   2.0000     -10.494852      -285.5794
  11   2.0000     -10.458761      -284.5974
  12   2.0000     -10.457966      -284.5757
  13   2.0000     -10.457140      -284.5533
  14   2.0000     -10.452479      -284.4264
  15   2.0000     -10.390262      -282.7334
  16   2.0000     -10.388884      -282.6959
  17   2.0000     -10.360318      -281.9186
  18   2.0000      -1.227330       -33.3974
  19   2.0000      -1.216701       -33.1081
  20   2.0000      -1.204139       -32.7663
  21   2.0000      -1.172198       -31.8971
  22   2.0000      -1.121498       -30.5175
  23   2.0000      -1.103461       -30.0267
  24   2.0000      -1.071258       -29.1504
  25   2.0000      -1.049919       -28.5697
  26   2.0000      -0.986823       -26.8528
  27   2.0000      -0.928335       -25.2613
  28   2.0000      -0.879388       -23.9294
  29   2.0000      -0.841036       -22.8857
  30   2.0000      -0.822165       -22.3723
  31   2.0000      -0.800544       -21.7839
  32   2.0000      -0.794875       -21.6297
  33   2.0000      -0.769833       -20.9482
  34   2.0000      -0.705806       -19.2060
  35   2.0000      -0.698614       -19.0102
  36   2.0000      -0.680616       -18.5205
  37   2.0000      -0.653714       -17.7885
  38   2.0000      -0.650399       -17.6983
  39   2.0000      -0.643586       -17.5129
  40   2.0000      -0.619191       -16.8490
  41   2.0000      -0.605689       -16.4816
  42   2.0000      -0.586216       -15.9517
  43   2.0000      -0.581198       -15.8152
  44   2.0000      -0.575913       -15.6714
  45   2.0000      -0.571840       -15.5606
  46   2.0000      -0.569475       -15.4962
  47   2.0000      -0.557302       -15.1650
  48   2.0000      -0.548531       -14.9263
  49   2.0000      -0.547155       -14.8888
  50   2.0000      -0.537665       -14.6306
  51   2.0000      -0.534808       -14.5529
  52   2.0000      -0.529248       -14.4016
  53   2.0000      -0.524700       -14.2778
  54   2.0000      -0.513516       -13.9735
  55   2.0000      -0.494523       -13.4566
  56   2.0000      -0.478747       -13.0274
  57   2.0000      -0.425161       -11.5692
  58   2.0000      -0.418794       -11.3960
  59   2.0000      -0.415409       -11.3039
  60   2.0000      -0.405960       -11.0467
  61   2.0000      -0.397410       -10.8141
  62   2.0000      -0.387981       -10.5575
  63   2.0000      -0.373161       -10.1542
  64   2.0000      -0.365815        -9.9543
  65   2.0000      -0.277002        -7.5376
  66   0.0000      -0.099498        -2.7075
  67   0.0000       0.002438         0.0663
  68   0.0000       0.026288         0.7153
  69   0.0000       0.029176         0.7939
  70   0.0000       0.038575         1.0497

MULLIKEN ATOMIC CHARGES
-----------------------
   0 O :   -0.704362
   1 O :   -0.658575
   2 O :   -0.627778
   3 O :   -0.634409
   4 N :   -0.298301
   5 N :   -0.224363
   6 N :    0.074385
   7 N :    0.035223
   8 C :    0.428338
   9 C :    0.505456
  10 C :    0.329215
  11 C :    0.093776
  12 C :   -1.456335
  13 C :   -1.470561
  14 C :    0.114072
  15 C :    0.516162
  16 C :    0.235434
  17 C :    0.448498
  18 H :    0.588552
  19 H :    0.487413
  20 H :    0.374139
  21 H :    0.230665
  22 H :    0.333849
  23 H :    0.400084
  24 H :    0.336169
  25 H :    0.295888
  26 H :    0.116702
  27 H :    0.059556
  28 H :    0.056676
  29 H :    0.014431
Sum of atomic charges:   -0.0000000

LOEWDIN ATOMIC CHARGES
----------------------
   0 O :    0.074401
   1 O :    0.109009
   2 O :    0.102618
   3 O :    0.104285
   4 N :    0.264139
   5 N :    0.274113
   6 N :    0.314519
   7 N :    0.338149
   8 C :   -0.050135
   9 C :   -0.013376
  10 C :   -0.040535
  11 C :   -0.063957
  12 C :    0.159421
  13 C :    0.194529
  14 C :   -0.435947
  15 C :   -0.388300
  16 C :   -0.483539
  17 C :   -0.486740
  18 H :    0.026646
  19 H :    0.047183
  20 H :   -0.002037
  21 H :   -0.010427
  22 H :    0.003832
  23 H :    0.024095
  24 H :    0.000682
  25 H :    0.006527
  26 H :   -0.025458
  27 H :   -0.025024
  28 H :   -0.014089
  29 H :   -0.004583

  Mayer bond orders larger than 0.100000
B(  0-O , 14-C ) :   1.3562 B(  1-O , 15-C ) :   1.2908 B(  2-O , 16-C ) :   1.5396
B(  3-O , 17-C ) :   1.5577 B(  4-N ,  8-C ) :   0.3222 B(  4-N , 10-C ) :   0.2030
B(  4-N , 16-C ) :   1.1587 B(  4-N , 26-H ) :   1.0024 B(  5-N ,  9-C ) :   0.2416
B(  5-N , 11-C ) :   0.4028 B(  5-N , 17-C ) :   1.0281 B(  5-N , 27-H ) :   1.0928
B(  6-N , 10-C ) :   0.1091 B(  6-N , 14-C ) :   0.9666 B(  6-N , 16-C ) :   1.0283
B(  6-N , 28-H ) :   1.0486 B(  7-N , 15-C ) :   1.0332 B(  7-N , 17-C ) :   0.9107
B(  7-N , 29-H ) :   1.1165 B(  8-C ,  9-C ) :   0.4316 B(  8-C , 11-C ) :   0.1027
B(  8-C , 12-C ) :   0.3096 B(  8-C , 14-C ) :   0.9926 B(  8-C , 15-C ) :   0.1240
B(  8-C , 16-C ) :   0.1006 B(  9-C , 10-C ) :   0.1655 B(  9-C , 11-C ) :   0.3740
B(  9-C , 13-C ) :   0.4686 B(  9-C , 15-C ) :   0.7380 B(  9-C , 17-C ) :   0.1041
B(  9-C , 19-H ) :  -0.1632 B(  9-C , 24-H ) :  -0.1245 B(  9-C , 25-H ) :  -0.1293
B( 10-C , 11-C ) :   0.6029 B( 10-C , 14-C ) :  -0.2377 B( 10-C , 16-C ) :  -0.2648
B( 10-C , 18-H ) :   0.7284 B( 11-C , 13-C ) :  -0.1536 B( 11-C , 17-C ) :  -0.1696
B( 11-C , 19-H ) :   0.8522 B( 12-C , 20-H ) :   0.8897 B( 12-C , 21-H ) :   1.0701
B( 12-C , 22-H ) :   0.9079 B( 13-C , 23-H ) :   0.7631 B( 13-C , 24-H ) :   0.9798
B( 13-C , 25-H ) :   1.0499

Dispersion correction           -0.058465226
FINAL SINGLE POINT ENERGY      -908.766907991438

DIPOLE MOMENT
-------------

Method             : SCF
Type of density    : Electron Density
Multiplicity       :   1
Irrep              :   0
Energy             :  -908.7084427655619265 Eh
Relativity type    :
Basis              : AO
                                X                 Y                 Z
Electronic contribution:     -4.177671605      -9.846353977      -7.559132461
Nuclear contribution   :      3.118589677      11.526279905      10.325827894
                        -----------------------------------------
Total Dipole Moment    :     -1.059081928       1.679925928       2.766695433
                        -----------------------------------------
Magnitude (a.u.)       :      3.405643738
Magnitude (Debye)      :      8.656458443

Rotational constants in cm-1:             0.017597             0.016156             0.012416
Rotational constants in MHz :           527.531396           484.332830           372.234872

                             ****ORCA TERMINATED NORMALLY****
TOTAL RUN TIME: 0 days 1 hours 22 minutes 26 seconds 255 msec
