                         Program Version 6.0.0  -   RELEASE  -
|  1> ! Engrad wB97M-D3BJ def2-TZVPPD
|  2> %pal nprocs 8 end%pal nprocs 16 end
|  3> %tddft nroots 2 Iroot 1
|  4>  sf true
|  5> end
|  6> *xyz 0 3
|  7> O   1.55386568681308 0.9901904306484 -0.0895071143535
|  8> C   0.96037902146438 -0.00969779876076 0.20310575263115
|  9> C   -0.31302190119822 -0.67501126034694 -0.21906828065669
| 10> H   1.43679405400712 -0.64484121277066 0.98822551553116
| 11> H   -0.05563336547731 -1.67443311211857 -0.56893423594655
| 12> H   -0.86621068434229 -0.13935285251487 -0.98690734962594
| 13> H   -0.92726312222498 -0.7942318609614 0.67308571242037
| 14> *
| 15>
| 16>                          ****END OF INPUT****

CARTESIAN COORDINATES (ANGSTROEM)
---------------------------------
  O      1.553866    0.990190   -0.089507
  C      0.960379   -0.009698    0.203106
  C     -0.313022   -0.675011   -0.219068
  H      1.436794   -0.644841    0.988226
  H     -0.055633   -1.674433   -0.568934
  H     -0.866211   -0.139353   -0.986907
  H     -0.927263   -0.794232    0.673086

 Total Charge           Charge          ....    0
 Multiplicity           Mult            ....    3
 Number of Electrons    NEL             ....   24
 Basis Dimension        Dim             ....  182

ORBITAL ENERGIES
----------------
                 SPIN UP ORBITALS
  NO   OCC          E(Eh)            E(eV)
   0   1.0000     -19.406325      -528.0729
   1   1.0000     -10.380439      -282.4661
   2   1.0000     -10.370112      -282.1851
   3   1.0000      -1.243114       -33.8269
   4   1.0000      -0.887973       -24.1630
   5   1.0000      -0.715791       -19.4777
   6   1.0000      -0.629970       -17.1423
   7   1.0000      -0.589331       -16.0365
   8   1.0000      -0.580674       -15.8009
   9   1.0000      -0.517059       -14.0699
  10   1.0000      -0.516403       -14.0520
  11   1.0000      -0.425615       -11.5816
  12   1.0000      -0.217537        -5.9195
  13   0.0000       0.038320         1.0427
  14   0.0000       0.059824         1.6279
  15   0.0000       0.077671         2.1135
  16   0.0000       0.087476         2.3803
  17   0.0000       0.106470         2.8972

                 SPIN DOWN ORBITALS
  NO   OCC          E(Eh)            E(eV)
   0   1.0000     -19.379199      -527.3348
   1   1.0000     -10.370189      -282.1872
   2   1.0000     -10.368143      -282.1315
   3   1.0000      -1.186950       -32.2985
   4   1.0000      -0.868969       -23.6458
   5   1.0000      -0.669990       -18.2314
   6   1.0000      -0.585240       -15.9252
   7   1.0000      -0.541779       -14.7426
   8   1.0000      -0.535771       -14.5791
   9   1.0000      -0.497696       -13.5430
  10   1.0000      -0.471525       -12.8309
  11   0.0000      -0.082181        -2.2363
  12   0.0000       0.039331         1.0702
  13   0.0000       0.059488         1.6188
  14   0.0000       0.077271         2.1027
  15   0.0000       0.084856         2.3090

----------------------------------------------------------------------------------------------------
          SPIN FLIP ABSORPTION SPECTRUM VIA TRANSITION ELECTRIC DIPOLE MOMENTS
----------------------------------------------------------------------------------------------------
     Transition      Energy     Energy  Wavelength fosc(D2)      D2        DX        DY        DZ
                      (eV)      (cm-1)    (nm)                 (au**2)    (au)      (au)      (au)
----------------------------------------------------------------------------------------------------
  1-3A  ->  2-3A    4.621133   37272.0   268.3   0.000298218   0.00263  -0.02552   0.02575   0.03633

Dispersion correction             ... done (  0.0 sec)

MULLIKEN ATOMIC CHARGES AND SPIN DENSITIES
------------------------------------------
   0 O :   -0.506076    0.055271
   1 C :    0.204831   -0.171784
   2 C :   -0.694193    0.037648
   3 H :    0.277195    0.075774
   4 H :    0.241007   -0.002093
   5 H :    0.235871    0.007285
   6 H :    0.241365   -0.002100
Sum of atomic charges       :    0.0000000

LOEWDIN ATOMIC CHARGES AND SPIN DENSITIES
-----------------------------------------
   0 O :    0.051717    0.021340
   1 C :   -0.240021   -0.015307
   2 C :    0.179426   -0.002083
   3 H :    0.028097   -0.002927
   4 H :   -0.006372   -0.001280
   5 H :   -0.006443    0.001533
   6 H :   -0.006404   -0.001275

  Mayer bond orders larger than 0.100000
B(  0-O ,  1-C ) :   1.7920 B(  1-C ,  2-C ) :   0.7389 B(  1-C ,  3-H ) :   0.9431
B(  2-C ,  4-H ) :   0.9874 B(  2-C ,  5-H ) :   0.9669 B(  2-C ,  6-H ) :   0.9878

Dispersion correction           -0.005508863
FINAL SINGLE POINT ENERGY      -153.919896067586

DIPOLE MOMENT
-------------

Method             : TDA/CIS
Type of density    : Electron Density
Level              : Relaxed density
State              :   1
Multiplicity       :   3
Irrep              :   0
Energy             :     0.0000000000000000 Eh
Relativity type    :
Basis              : AO
                                X                 Y                 Z
Electronic contribution:      2.337573460       2.376090722      -0.043780446
Nuclear contribution   :     -3.119364387      -3.408202294       0.227399421
                        -----------------------------------------
Total Dipole Moment    :     -0.781790927      -1.032111572       0.183618975
                        -----------------------------------------
Magnitude (a.u.)       :      1.307733642
Magnitude (Debye)      :      3.323994756

Rotational constants in cm-1:             2.270816             0.314016             0.290620
Rotational constants in MHz :         68077.342622          9413.975657          8712.561571

                             ****ORCA TERMINATED NORMALLY****
TOTAL RUN TIME: 0 days 0 hours 0 minutes 16 seconds 459 msec
