                         Program Version 6.0.0  -   RELEASE  -
|  1> ! EnGrad wB97M-D3BJ def2-TZVPPD
|  2> %pal nprocs 8 end%pal nprocs 16 end
|  3> %tddft
|  4>  sf true
|  5>  nroots 2 Iroot 1 end
|  6> *xyz 0 3
|  7> O   0.44607351335176 1.07189447781183 -0.00277463275666
|  8> C   0.61028085641917 -0.25715481796278 -0.00054537978189
|  9> C   -0.74700330271106 -0.745019149705 0.00088343316251
| 10> H   1.15963103594669 -0.62453661051459 0.8805078848204
| 11> H   1.15904155412233 -0.62759704204106 -0.88066589721116
| 12> H   -1.31348233834748 -0.77030983379277 -0.92124388001624
| 13> H   -1.31234131878142 -0.76567702379563 0.92383847178304
| 14> *
| 15>
| 16>                          ****END OF INPUT****

CARTESIAN COORDINATES (ANGSTROEM)
---------------------------------
  O      0.446074    1.071894   -0.002775
  C      0.610281   -0.257155   -0.000545
  C     -0.747003   -0.745019    0.000883
  H      1.159631   -0.624537    0.880508
  H      1.159042   -0.627597   -0.880666
  H     -1.313482   -0.770310   -0.921244
  H     -1.312341   -0.765677    0.923838

 Total Charge           Charge          ....    0
 Multiplicity           Mult            ....    3
 Number of Electrons    NEL             ....   24
 Basis Dimension        Dim             ....  182

ORBITAL ENERGIES
----------------
                 SPIN UP ORBITALS
  NO   OCC          E(Eh)            E(eV)
   0   1.0000     -19.394924      -527.7627
   1   1.0000     -10.407217      -283.1948
   2   1.0000     -10.352086      -281.6946
   3   1.0000      -1.191986       -32.4356
   4   1.0000      -0.875701       -23.8290
   5   1.0000      -0.735101       -20.0031
   6   1.0000      -0.634213       -17.2578
   7   1.0000      -0.593159       -16.1407
   8   1.0000      -0.556053       -15.1310
   9   1.0000      -0.515361       -14.0237
  10   1.0000      -0.438414       -11.9299
  11   1.0000      -0.422507       -11.4970
  12   1.0000      -0.312487        -8.5032
  13   0.0000       0.041149         1.1197
  14   0.0000       0.063269         1.7216
  15   0.0000       0.073865         2.0100
  16   0.0000       0.087068         2.3692
  17   0.0000       0.117199         3.1892

                 SPIN DOWN ORBITALS
  NO   OCC          E(Eh)            E(eV)
   0   1.0000     -19.369241      -527.0638
   1   1.0000     -10.408540      -283.2308
   2   1.0000     -10.339236      -281.3449
   3   1.0000      -1.135911       -30.9097
   4   1.0000      -0.842045       -22.9132
   5   1.0000      -0.711248       -19.3540
   6   1.0000      -0.595548       -16.2057
   7   1.0000      -0.560187       -15.2435
   8   1.0000      -0.534109       -14.5339
   9   1.0000      -0.477941       -13.0054
  10   1.0000      -0.383768       -10.4429
  11   0.0000      -0.065097        -1.7714
  12   0.0000       0.008744         0.2379
  13   0.0000       0.040060         1.0901
  14   0.0000       0.063939         1.7399
  15   0.0000       0.073391         1.9971

----------------------------------------------------------------------------------------------------
          SPIN FLIP ABSORPTION SPECTRUM VIA TRANSITION ELECTRIC DIPOLE MOMENTS
----------------------------------------------------------------------------------------------------
     Transition      Energy     Energy  Wavelength fosc(D2)      D2        DX        DY        DZ
                      (eV)      (cm-1)    (nm)                 (au**2)    (au)      (au)      (au)
----------------------------------------------------------------------------------------------------
  1-3A  ->  2-3A    1.013563    8174.9  1223.3   0.000154864   0.00624  -0.00003  -0.00022  -0.07897

Dispersion correction             ... done (  0.0 sec)

MULLIKEN ATOMIC CHARGES AND SPIN DENSITIES
------------------------------------------
   0 O :   -0.519239   -0.401840
   1 C :   -0.117432   -0.043847
   2 C :   -0.308854    0.289267
   3 H :    0.226388    0.041608
   4 H :    0.226420    0.041485
   5 H :    0.246344    0.036634
   6 H :    0.246373    0.036693
Sum of atomic charges       :    0.0000000

LOEWDIN ATOMIC CHARGES AND SPIN DENSITIES
-----------------------------------------
   0 O :   -0.045193   -0.408682
   1 C :   -0.389937    0.022912
   2 C :    0.394024    0.302639
   3 H :    0.027674    0.007884
   4 H :    0.027665    0.007824
   5 H :   -0.007113    0.033708
   6 H :   -0.007120    0.033715

  Mayer bond orders larger than 0.100000
B(  0-O ,  1-C ) :   0.8095 B(  0-O ,  2-C ) :   0.6894 B(  1-C ,  2-C ) :   0.7590
B(  1-C ,  3-H ) :   1.0183 B(  1-C ,  4-H ) :   1.0181 B(  2-C ,  5-H ) :   0.9428
B(  2-C ,  6-H ) :   0.9429

Dispersion correction           -0.005639812
FINAL SINGLE POINT ENERGY      -153.778779459015

DIPOLE MOMENT
-------------

Method             : TDA/CIS
Type of density    : Electron Density
Level              : Relaxed density
State              :   1
Multiplicity       :   3
Irrep              :   0
Energy             :     0.0000000000000000 Eh
Relativity type    :
Basis              : AO
                                X                 Y                 Z
Electronic contribution:      0.124383020       1.328948517      -0.002675577
Nuclear contribution   :     -0.724991273      -2.796742266       0.005484040
                        -----------------------------------------
Total Dipole Moment    :     -0.600608253      -1.467793750       0.002808464
                        -----------------------------------------
Magnitude (a.u.)       :      1.585924542
Magnitude (Debye)      :      4.031099829

Rotational constants in cm-1:             1.224193             0.417024             0.353885
Rotational constants in MHz :         36700.379308         12502.069253         10609.205240

                             ****ORCA TERMINATED NORMALLY****
TOTAL RUN TIME: 0 days 0 hours 0 minutes 16 seconds 836 msec
