                         Program Version 6.0.0  -   RELEASE  -
|  1> ! Engrad def2-TZVPPD wB97M-D3BJ
|  2> %pal nprocs 8 end%pal nprocs 64 end
|  3> %tddft
|  4>  Iroot 2 Nroots 3
|  5> sf true
|  6> end
|  7> *xyz 0 3
|  8> O   0.7597793 -0.59634709 1.04818476
|  9> C   0.42225345 -0.28844871 -0.25892978
| 10> C   -0.03981919 1.1571164 -0.6246162
| 11> H   -0.36819808 -0.89569644 -0.60196307
| 12> H   1.33197394 -0.54468274 -0.88387227
| 13> H   0.54048155 1.54907551 -1.37674862
| 14> H   -0.85534108 1.68341836 -0.13286399
| 15> *
| 16>
| 17>                          ****END OF INPUT****

CARTESIAN COORDINATES (ANGSTROEM)
---------------------------------
  O      0.759779   -0.596347    1.048185
  C      0.422253   -0.288449   -0.258930
  C     -0.039819    1.157116   -0.624616
  H     -0.368198   -0.895696   -0.601963
  H      1.331974   -0.544683   -0.883872
  H      0.540482    1.549076   -1.376749
  H     -0.855341    1.683418   -0.132864

 Total Charge           Charge          ....    0
 Multiplicity           Mult            ....    3
 Number of Electrons    NEL             ....   24
 Basis Dimension        Dim             ....  182

ORBITAL ENERGIES
----------------
                 SPIN UP ORBITALS
  NO   OCC          E(Eh)            E(eV)
   0   1.0000     -19.392196      -527.6885
   1   1.0000     -10.415812      -283.4287
   2   1.0000     -10.367513      -282.1144
   3   1.0000      -1.162193       -31.6249
   4   1.0000      -0.872493       -23.7417
   5   1.0000      -0.738298       -20.0901
   6   1.0000      -0.617927       -16.8146
   7   1.0000      -0.577203       -15.7065
   8   1.0000      -0.545782       -14.8515
   9   1.0000      -0.531417       -14.4606
  10   1.0000      -0.443267       -12.0619
  11   1.0000      -0.407380       -11.0854
  12   1.0000      -0.328733        -8.9453
  13   0.0000       0.040616         1.1052
  14   0.0000       0.060831         1.6553
  15   0.0000       0.077611         2.1119
  16   0.0000       0.088224         2.4007
  17   0.0000       0.113229         3.0811

                 SPIN DOWN ORBITALS
  NO   OCC          E(Eh)            E(eV)
   0   1.0000     -19.368337      -527.0393
   1   1.0000     -10.417099      -283.4637
   2   1.0000     -10.354287      -281.7545
   3   1.0000      -1.106967       -30.1221
   4   1.0000      -0.840621       -22.8745
   5   1.0000      -0.710420       -19.3315
   6   1.0000      -0.586329       -15.9548
   7   1.0000      -0.544125       -14.8064
   8   1.0000      -0.528567       -14.3831
   9   1.0000      -0.498447       -13.5634
  10   1.0000      -0.379001       -10.3131
  11   0.0000      -0.055522        -1.5108
  12   0.0000      -0.001507        -0.0410
  13   0.0000       0.039660         1.0792
  14   0.0000       0.060871         1.6564
  15   0.0000       0.077650         2.1130

----------------------------------------------------------------------------------------------------
          SPIN FLIP ABSORPTION SPECTRUM VIA TRANSITION ELECTRIC DIPOLE MOMENTS
----------------------------------------------------------------------------------------------------
     Transition      Energy     Energy  Wavelength fosc(D2)      D2        DX        DY        DZ
                      (eV)      (cm-1)    (nm)                 (au**2)    (au)      (au)      (au)
----------------------------------------------------------------------------------------------------
  1-3A  ->  2-3A    0.130619    1053.5  9492.0   0.000115312   0.03603  -0.01064   0.17269  -0.07810
  1-3A  ->  3-3A    0.786830    6346.2  1575.7   0.006601685   0.34246  -0.11435   0.38106  -0.42916

Dispersion correction             ... done (  0.1 sec)

MULLIKEN ATOMIC CHARGES AND SPIN DENSITIES
------------------------------------------
   0 O :   -0.322167   -0.169537
   1 C :   -0.052747    0.038837
   2 C :   -0.511804    0.124242
   3 H :    0.213873    0.041584
   4 H :    0.211603   -0.030023
   5 H :    0.240543    0.013716
   6 H :    0.220699   -0.018820
Sum of atomic charges       :   -0.0000000

LOEWDIN ATOMIC CHARGES AND SPIN DENSITIES
-----------------------------------------
   0 O :    0.031617   -0.166149
   1 C :   -0.217978   -0.001111
   2 C :    0.335344    0.135841
   3 H :   -0.019488    0.029473
   4 H :    0.039104   -0.025461
   5 H :   -0.117419    0.016710
   6 H :   -0.051181    0.010697

  Mayer bond orders larger than 0.100000
B(  0-O ,  1-C ) :   0.8987 B(  1-C ,  2-C ) :   0.7302 B(  1-C ,  3-H ) :   0.9519
B(  1-C ,  4-H ) :   0.9803 B(  2-C ,  5-H ) :   0.9517 B(  2-C ,  6-H ) :   0.9786

Dispersion correction           -0.005446699
FINAL SINGLE POINT ENERGY      -153.740210502337

DIPOLE MOMENT
-------------

Method             : TDA/CIS
Type of density    : Electron Density
Level              : Relaxed density
State              :   2
Multiplicity       :   3
Irrep              :   0
Energy             :     0.0000000000000000 Eh
Relativity type    :
Basis              : AO
                                X                 Y                 Z
Electronic contribution:      0.590358115      -1.205947808       2.248331495
Nuclear contribution   :     -0.868322575       1.441671340      -3.063143636
                        -----------------------------------------
Total Dipole Moment    :     -0.277964461       0.235723532      -0.814812141
                        -----------------------------------------
Magnitude (a.u.)       :      0.892607781
Magnitude (Debye)      :      2.268828672

Rotational constants in cm-1:             1.551215             0.311606             0.281805
Rotational constants in MHz :         46504.243689          9341.718052          8448.303024

                             ****ORCA TERMINATED NORMALLY****
TOTAL RUN TIME: 0 days 0 hours 0 minutes 27 seconds 649 msec
