                         Program Version 6.0.0  -   RELEASE  -
|  1> ! EnGrad wB97M-D3BJ def2-TZVPPD
|  2> %pal nprocs 8 end%pal nprocs 16 end
|  3> %tddft
|  4>  sf true
|  5>  nroots 2 Iroot 1 end
|  6> *xyz 0 3
|  7> O   0.10142311354043 0.85029632419646 -0.00011795847636
|  8> C   0.68475267010725 -0.38594946419725 0.00022596142531
|  9> C   -0.72828629316232 -0.53869724110421 -0.00030485115806
| 10> H   1.23530562560209 -0.65239181490036 0.90206241439989
| 11> H   1.23480170925822 -0.65288726641827 -0.90186690838093
| 12> H   -1.26328449065015 -0.66972977374006 -0.92601160905983
| 13> H   -1.26251233469552 -0.66904076383633 0.92601295124998
| 14> *
| 15>
| 16>                          ****END OF INPUT****

CARTESIAN COORDINATES (ANGSTROEM)
---------------------------------
  O      0.101423    0.850296   -0.000118
  C      0.684753   -0.385949    0.000226
  C     -0.728286   -0.538697   -0.000305
  H      1.235306   -0.652392    0.902062
  H      1.234802   -0.652887   -0.901867
  H     -1.263284   -0.669730   -0.926012
  H     -1.262512   -0.669041    0.926013

 Total Charge           Charge          ....    0
 Multiplicity           Mult            ....    3
 Number of Electrons    NEL             ....   24
 Basis Dimension        Dim             ....  182

ORBITAL ENERGIES
----------------
                 SPIN UP ORBITALS
  NO   OCC          E(Eh)            E(eV)
   0   1.0000     -19.450063      -529.2631
   1   1.0000     -10.415989      -283.4335
   2   1.0000     -10.346795      -281.5506
   3   1.0000      -1.271612       -34.6023
   4   1.0000      -0.860120       -23.4051
   5   1.0000      -0.765489       -20.8300
   6   1.0000      -0.674278       -18.3480
   7   1.0000      -0.637793       -17.3552
   8   1.0000      -0.560008       -15.2386
   9   1.0000      -0.500001       -13.6057
  10   1.0000      -0.486901       -13.2492
  11   1.0000      -0.465272       -12.6607
  12   1.0000      -0.174572        -4.7503
  13   0.0000       0.038307         1.0424
  14   0.0000       0.062454         1.6995
  15   0.0000       0.071239         1.9385
  16   0.0000       0.086846         2.3632
  17   0.0000       0.111592         3.0366

                 SPIN DOWN ORBITALS
  NO   OCC          E(Eh)            E(eV)
   0   1.0000     -19.417330      -528.3724
   1   1.0000     -10.416491      -283.4471
   2   1.0000     -10.336509      -281.2707
   3   1.0000      -1.204749       -32.7829
   4   1.0000      -0.825729       -22.4692
   5   1.0000      -0.746307       -20.3081
   6   1.0000      -0.621703       -16.9174
   7   1.0000      -0.603666       -16.4266
   8   1.0000      -0.523739       -14.2517
   9   1.0000      -0.475504       -12.9391
  10   1.0000      -0.425877       -11.5887
  11   0.0000      -0.103637        -2.8201
  12   0.0000       0.033989         0.9249
  13   0.0000       0.058195         1.5836
  14   0.0000       0.060058         1.6343
  15   0.0000       0.065817         1.7910

----------------------------------------------------------------------------------------------------
          SPIN FLIP ABSORPTION SPECTRUM VIA TRANSITION ELECTRIC DIPOLE MOMENTS
----------------------------------------------------------------------------------------------------
     Transition      Energy     Energy  Wavelength fosc(D2)      D2        DX        DY        DZ
                      (eV)      (cm-1)    (nm)                 (au**2)    (au)      (au)      (au)
----------------------------------------------------------------------------------------------------
  1-3A  ->  2-3A    5.606612   45220.4   221.1   0.006033621   0.04393  -0.00051  -0.00039   0.20958

Dispersion correction             ... done (  0.0 sec)

MULLIKEN ATOMIC CHARGES AND SPIN DENSITIES
------------------------------------------
   0 O :   -0.402648    0.063752
   1 C :   -0.112959   -0.099201
   2 C :   -0.447174    0.019153
   3 H :    0.200632    0.023804
   4 H :    0.200494    0.023903
   5 H :    0.280918   -0.015749
   6 H :    0.280738   -0.015662
Sum of atomic charges       :   -0.0000000

LOEWDIN ATOMIC CHARGES AND SPIN DENSITIES
-----------------------------------------
   0 O :   -0.061982    0.023984
   1 C :   -0.173692   -0.009101
   2 C :    0.169940   -0.011186
   3 H :    0.025438    0.004035
   4 H :    0.025445    0.004047
   5 H :    0.007438   -0.005884
   6 H :    0.007412   -0.005895

  Mayer bond orders larger than 0.100000
B(  0-O ,  1-C ) :   0.7869 B(  0-O ,  2-C ) :   0.8849 B(  1-C ,  2-C ) :   0.7438
B(  1-C ,  3-H ) :   1.0310 B(  1-C ,  4-H ) :   1.0310 B(  2-C ,  5-H ) :   0.9190
B(  2-C ,  6-H ) :   0.9192

Dispersion correction           -0.005240893
FINAL SINGLE POINT ENERGY      -153.857808611978

DIPOLE MOMENT
-------------

Method             : TDA/CIS
Type of density    : Electron Density
Level              : Relaxed density
State              :   1
Multiplicity       :   3
Irrep              :   0
Energy             :     0.0000000000000000 Eh
Relativity type    :
Basis              : AO
                                X                 Y                 Z
Electronic contribution:     -0.058680044       1.274357609      -0.000378380
Nuclear contribution   :     -0.140001579      -2.453706802       0.000408398
                        -----------------------------------------
Total Dipole Moment    :     -0.198681623      -1.179349193       0.000030018
                        -----------------------------------------
Magnitude (a.u.)       :      1.195967770
Magnitude (Debye)      :      3.039908486

Rotational constants in cm-1:             0.892660             0.677312             0.455168
Rotational constants in MHz :         26761.285828         20305.310270         13645.581874

                             ****ORCA TERMINATED NORMALLY****
TOTAL RUN TIME: 0 days 0 hours 0 minutes 17 seconds 961 msec
