                         Program Version 6.0.0  -   RELEASE  -
|  1> ! Opt wB97M-D3BJ def2-TZVPPD
|  2> %pal nprocs 8 end %pal nprocs 64 end
|  3> %geom
|  4> Constraints
|  5>     {A 2 1 0 52.72727272727273 C }
|  6> end
|  7> MaxIter 500
|  8> end
|  9> *xyz 0 1
| 10> O   -0.0007 0.8141 0.0
| 11> C   0.7509 -0.4065 0.0
| 12> C   -0.7502 -0.4076 0.0
| 13> H   1.2625 -0.6786 0.9136
| 14> H   1.2625 -0.6787 -0.9136
| 15> H   -1.2614 -0.6806 -0.9136
| 16> H   -1.2614 -0.6805 0.9136
| 17> *
| 18>
| 19>                          ****END OF INPUT****
 Total Charge           Charge          ....    0
 Multiplicity           Mult            ....    1
 Number of Electrons    NEL             ....   24
Dispersion correction           -0.005169087
FINAL SINGLE POINT ENERGY      -153.879428360114
Dispersion correction             ... done (  0.2 sec)
Dispersion correction           -0.005179031
FINAL SINGLE POINT ENERGY      -153.881288388218
Dispersion correction             ... done (  0.1 sec)
Dispersion correction           -0.005192860
FINAL SINGLE POINT ENERGY      -153.881876407640
Dispersion correction             ... done (  0.1 sec)
FINAL SINGLE POINT ENERGY      -153.882000051456
Dispersion correction             ... done (  0.1 sec)
Dispersion correction           -0.005199630
FINAL SINGLE POINT ENERGY      -153.882057015113
Dispersion correction             ... done (  0.2 sec)
Dispersion correction           -0.005199113
FINAL SINGLE POINT ENERGY      -153.882058702304
Dispersion correction             ... done (  0.1 sec)
                    ***********************HURRAY********************

CARTESIAN COORDINATES (ANGSTROEM)
---------------------------------
  O     -0.059242    0.758466   -0.000035
  C      0.768510   -0.483004   -0.000009
  C     -0.738728   -0.388724    0.000019
  H      1.286379   -0.652536    0.930014
  H      1.286398   -0.652603   -0.930008
  H     -1.270528   -0.650038   -0.912609
  H     -1.270589   -0.649960    0.912629

 Multiplicity           Mult            ....    1
 Number of Electrons    NEL             ....   24
 Basis Dimension        Dim             ....  182

ORBITAL ENERGIES
----------------

  NO   OCC          E(Eh)            E(eV)
   0   2.0000     -19.353461      -526.6344
   1   2.0000     -10.403378      -283.0903
   2   2.0000     -10.401388      -283.0362
   3   2.0000      -1.219504       -33.1844
   4   2.0000      -0.799267       -21.7491
   5   2.0000      -0.758488       -20.6395
   6   2.0000      -0.631875       -17.1942
   7   2.0000      -0.594445       -16.1757
   8   2.0000      -0.520455       -14.1623
   9   2.0000      -0.498622       -13.5682
  10   2.0000      -0.406594       -11.0640
  11   2.0000      -0.383981       -10.4487
  12   0.0000       0.042519         1.1570
  13   0.0000       0.058602         1.5947
  14   0.0000       0.074735         2.0336
  15   0.0000       0.078137         2.1262
  16   0.0000       0.112199         3.0531

MULLIKEN ATOMIC CHARGES
-----------------------
   0 O :   -0.375839
   1 C :   -0.235595
   2 C :   -0.134797
   3 H :    0.184898
   4 H :    0.184905
   5 H :    0.188207
   6 H :    0.188222
Sum of atomic charges:   -0.0000000

LOEWDIN ATOMIC CHARGES
----------------------
   0 O :   -0.028890
   1 C :    0.106541
   2 C :   -0.101192
   3 H :   -0.002555
   4 H :   -0.002554
   5 H :    0.014324
   6 H :    0.014326

  Mayer bond orders larger than 0.100000
B(  0-O ,  1-C ) :   0.8610 B(  0-O ,  2-C ) :   0.7910 B(  1-C ,  2-C ) :   0.7996
B(  1-C ,  3-H ) :   1.0005 B(  1-C ,  4-H ) :   1.0005 B(  2-C ,  5-H ) :   1.0323
B(  2-C ,  6-H ) :   1.0323

Dispersion correction           -0.005198900
FINAL SINGLE POINT ENERGY      -153.882058783926

DIPOLE MOMENT
-------------

Method             : SCF
Type of density    : Electron Density
Multiplicity       :   1
Irrep              :   0
Energy             :  -153.8768598836006447 Eh
Relativity type    :
Basis              : AO
                                X                 Y                 Z
Electronic contribution:     -0.020320085       1.662997771      -0.000036098
Nuclear contribution   :      0.076563484      -2.350622440       0.000059365
                        -----------------------------------------
Total Dipole Moment    :      0.056243399      -0.687624670       0.000023267
                        -----------------------------------------
Magnitude (a.u.)       :      0.689921015
Magnitude (Debye)      :      1.753639856

Rotational constants in cm-1:             0.918680             0.693909             0.470909
Rotational constants in MHz :         27541.327574         20802.882969         14117.504682

                             ****ORCA TERMINATED NORMALLY****
TOTAL RUN TIME: 0 days 0 hours 1 minutes 34 seconds 870 msec
