                         Program Version 6.0.0  -   RELEASE  -
|  1> ! Engrad def2-TZVPPD wB97M-D3BJ
|  2> %pal nprocs 8 end%pal nprocs 64 end
|  3> %tddft
|  4>  Iroot 2 Nroots 3
|  5> sf true
|  6> end
|  7> *xyz 0 3
|  8> O   2.83693993 -0.30935892 -1.90510386
|  9> O   -1.70001785 1.28077372 -2.02143188
| 10> O   -0.76969581 -2.84214944 -0.97703892
| 11> O   -3.19997445 -0.2490638 1.96690659
| 12> N   0.08126547 -1.54270195 0.77870796
| 13> N   -1.17053706 0.79205284 1.89116351
| 14> N   1.05154128 -1.47870128 -1.35411674
| 15> N   -2.33212477 0.33674264 -0.05202795
| 16> C   2.07266016 -0.19152859 0.38174096
| 17> C   -0.17482526 1.46978118 -0.24970293
| 18> C   0.91749568 -0.43819026 1.25489381
| 19> C   0.13202986 0.98716723 1.17669955
| 20> C   3.196932 0.60435314 0.94249815
| 21> C   0.84874897 2.32469208 -0.94930063
| 22> C   2.08949166 -0.63675019 -1.03386424
| 23> C   -1.42968611 1.04711695 -0.85478129
| 24> C   0.01902793 -2.01885343 -0.5312559
| 25> C   -2.27697859 0.26403019 1.37489609
| 26> H   1.17107879 -0.51430115 2.31377529
| 27> H   0.72211746 1.76601619 1.7369904
| 28> H   3.3163013 0.31527979 2.02969598
| 29> H   4.10298769 0.44245205 0.41435857
| 30> H   3.03909727 1.68461295 0.83083538
| 31> H   0.42175489 2.92488207 -1.77420832
| 32> H   1.13837206 3.11345894 -0.30706823
| 33> H   1.62128641 1.67718605 -1.47239947
| 34> H   -0.72015199 -1.73290725 1.35325037
| 35> H   -1.20983203 0.80607674 2.88457117
| 36> H   1.2102913 -2.003278 -2.21186966
| 37> H   -2.90219948 -0.31847799 -0.50457249
| 38> *
| 39>
| 40>                          ****END OF INPUT****

CARTESIAN COORDINATES (ANGSTROEM)
---------------------------------
  O      2.836940   -0.309359   -1.905104
  O     -1.700018    1.280774   -2.021432
  O     -0.769696   -2.842149   -0.977039
  O     -3.199974   -0.249064    1.966907
  N      0.081265   -1.542702    0.778708
  N     -1.170537    0.792053    1.891164
  N      1.051541   -1.478701   -1.354117
  N     -2.332125    0.336743   -0.052028
  C      2.072660   -0.191529    0.381741
  C     -0.174825    1.469781   -0.249703
  C      0.917496   -0.438190    1.254894
  C      0.132030    0.987167    1.176700
  C      3.196932    0.604353    0.942498
  C      0.848749    2.324692   -0.949301
  C      2.089492   -0.636750   -1.033864
  C     -1.429686    1.047117   -0.854781
  C      0.019028   -2.018853   -0.531256
  C     -2.276979    0.264030    1.374896
  H      1.171079   -0.514301    2.313775
  H      0.722117    1.766016    1.736990
  H      3.316301    0.315280    2.029696
  H      4.102988    0.442452    0.414359
  H      3.039097    1.684613    0.830835
  H      0.421755    2.924882   -1.774208
  H      1.138372    3.113459   -0.307068
  H      1.621286    1.677186   -1.472399
  H     -0.720152   -1.732907    1.353250
  H     -1.209832    0.806077    2.884571
  H      1.210291   -2.003278   -2.211870
  H     -2.902199   -0.318478   -0.504572

 Total Charge           Charge          ....    0
 Multiplicity           Mult            ....    3
 Number of Electrons    NEL             ....  132
 Basis Dimension        Dim             ....  882

ORBITAL ENERGIES
----------------
                 SPIN UP ORBITALS
  NO   OCC          E(Eh)            E(eV)
   0   1.0000     -19.338107      -526.2167
   1   1.0000     -19.332098      -526.0531
   2   1.0000     -19.329516      -525.9829
   3   1.0000     -19.321588      -525.7671
   4   1.0000     -14.570153      -396.4740
   5   1.0000     -14.568047      -396.4167
   6   1.0000     -14.563174      -396.2841
   7   1.0000     -14.548670      -395.8894
   8   1.0000     -10.520306      -286.2721
   9   1.0000     -10.504759      -285.8490
  10   1.0000     -10.486607      -285.3551
  11   1.0000     -10.476678      -285.0849
  12   1.0000     -10.463506      -284.7265
  13   1.0000     -10.456544      -284.5370
  14   1.0000     -10.424845      -283.6745
  15   1.0000     -10.422368      -283.6070
  16   1.0000     -10.383102      -282.5386
  17   1.0000     -10.372414      -282.2477
  18   1.0000      -1.227289       -33.3962
  19   1.0000      -1.217407       -33.1273
  20   1.0000      -1.202456       -32.7205
  21   1.0000      -1.192220       -32.4420
  22   1.0000      -1.119742       -30.4697
  23   1.0000      -1.098158       -29.8824
  24   1.0000      -1.059293       -28.8248
  25   1.0000      -1.050457       -28.5844
  26   1.0000      -0.990495       -26.9527
  27   1.0000      -0.951054       -25.8795
  28   1.0000      -0.888746       -24.1840
  29   1.0000      -0.843425       -22.9508
  30   1.0000      -0.824335       -22.4313
  31   1.0000      -0.801805       -21.8182
  32   1.0000      -0.788894       -21.4669
  33   1.0000      -0.776370       -21.1261
  34   1.0000      -0.699390       -19.0314
  35   1.0000      -0.693170       -18.8621
  36   1.0000      -0.689435       -18.7605
  37   1.0000      -0.677785       -18.4435
  38   1.0000      -0.656188       -17.8558
  39   1.0000      -0.640189       -17.4204
  40   1.0000      -0.628544       -17.1036
  41   1.0000      -0.607163       -16.5218
  42   1.0000      -0.593917       -16.1613
  43   1.0000      -0.585855       -15.9419
  44   1.0000      -0.580218       -15.7885
  45   1.0000      -0.571983       -15.5645
  46   1.0000      -0.565861       -15.3979
  47   1.0000      -0.562755       -15.3134
  48   1.0000      -0.557527       -15.1711
  49   1.0000      -0.555498       -15.1159
  50   1.0000      -0.553607       -15.0644
  51   1.0000      -0.539405       -14.6779
  52   1.0000      -0.534027       -14.5316
  53   1.0000      -0.526221       -14.3192
  54   1.0000      -0.516379       -14.0514
  55   1.0000      -0.510096       -13.8804
  56   1.0000      -0.480688       -13.0802
  57   1.0000      -0.428158       -11.6508
  58   1.0000      -0.419715       -11.4210
  59   1.0000      -0.415976       -11.3193
  60   1.0000      -0.410029       -11.1575
  61   1.0000      -0.399814       -10.8795
  62   1.0000      -0.396867       -10.7993
  63   1.0000      -0.393297       -10.7021
  64   1.0000      -0.383856       -10.4453
  65   1.0000      -0.346034        -9.4161
  66   1.0000      -0.329118        -8.9557
  67   0.0000       0.005756         0.1566
  68   0.0000       0.028654         0.7797
  69   0.0000       0.030839         0.8392
  70   0.0000       0.036974         1.0061
  71   0.0000       0.053831         1.4648

                 SPIN DOWN ORBITALS
  NO   OCC          E(Eh)            E(eV)
   0   1.0000     -19.335134      -526.1357
   1   1.0000     -19.332040      -526.0515
   2   1.0000     -19.324693      -525.8516
   3   1.0000     -19.321371      -525.7612
   4   1.0000     -14.570048      -396.4712
   5   1.0000     -14.567516      -396.4023
   6   1.0000     -14.562208      -396.2578
   7   1.0000     -14.548277      -395.8787
   8   1.0000     -10.520365      -286.2737
   9   1.0000     -10.504799      -285.8501
  10   1.0000     -10.487385      -285.3762
  11   1.0000     -10.477941      -285.1193
  12   1.0000     -10.462648      -284.7031
  13   1.0000     -10.456312      -284.5307
  14   1.0000     -10.413327      -283.3610
  15   1.0000     -10.410869      -283.2941
  16   1.0000     -10.383734      -282.5558
  17   1.0000     -10.372939      -282.2620
  18   1.0000      -1.223747       -33.2999
  19   1.0000      -1.216169       -33.0937
  20   1.0000      -1.201274       -32.6883
  21   1.0000      -1.185858       -32.2688
  22   1.0000      -1.117209       -30.4008
  23   1.0000      -1.096246       -29.8304
  24   1.0000      -1.057363       -28.7723
  25   1.0000      -1.048771       -28.5385
  26   1.0000      -0.977193       -26.5908
  27   1.0000      -0.933587       -25.4042
  28   1.0000      -0.882911       -24.0252
  29   1.0000      -0.838461       -22.8157
  30   1.0000      -0.815201       -22.1827
  31   1.0000      -0.796051       -21.6617
  32   1.0000      -0.787203       -21.4209
  33   1.0000      -0.774877       -21.0855
  34   1.0000      -0.695318       -18.9206
  35   1.0000      -0.686548       -18.6819
  36   1.0000      -0.683352       -18.5949
  37   1.0000      -0.670282       -18.2393
  38   1.0000      -0.646972       -17.6050
  39   1.0000      -0.636136       -17.3102
  40   1.0000      -0.619317       -16.8525
  41   1.0000      -0.602361       -16.3911
  42   1.0000      -0.588401       -16.0112
  43   1.0000      -0.579141       -15.7592
  44   1.0000      -0.573300       -15.6003
  45   1.0000      -0.568537       -15.4707
  46   1.0000      -0.559547       -15.2260
  47   1.0000      -0.558117       -15.1871
  48   1.0000      -0.549881       -14.9630
  49   1.0000      -0.549498       -14.9526
  50   1.0000      -0.545844       -14.8532
  51   1.0000      -0.527360       -14.3502
  52   1.0000      -0.525660       -14.3039
  53   1.0000      -0.520003       -14.1500
  54   1.0000      -0.511973       -13.9315
  55   1.0000      -0.499032       -13.5794
  56   1.0000      -0.476691       -12.9714
  57   1.0000      -0.424860       -11.5610
  58   1.0000      -0.416213       -11.3257
  59   1.0000      -0.410961       -11.1828
  60   1.0000      -0.398083       -10.8324
  61   1.0000      -0.394490       -10.7346
  62   1.0000      -0.387640       -10.5482
  63   1.0000      -0.382665       -10.4128
  64   1.0000      -0.375703       -10.2234
  65   0.0000      -0.060570        -1.6482
  66   0.0000      -0.055762        -1.5174
  67   0.0000       0.005177         0.1409
  68   0.0000       0.028225         0.7680
  69   0.0000       0.030730         0.8362

----------------------------------------------------------------------------------------------------
          SPIN FLIP ABSORPTION SPECTRUM VIA TRANSITION ELECTRIC DIPOLE MOMENTS
----------------------------------------------------------------------------------------------------
     Transition      Energy     Energy  Wavelength fosc(D2)      D2        DX        DY        DZ
                      (eV)      (cm-1)    (nm)                 (au**2)    (au)      (au)      (au)
----------------------------------------------------------------------------------------------------
  1-3A  ->  2-3A    0.052910     426.7  23433.2   0.000000028   0.00002   0.00024   0.00457  -0.00073
  1-3A  ->  3-3A    1.984779   16008.3   624.7   0.000003988   0.00008   0.00709  -0.00544   0.00144

Dispersion correction             ... done (  0.1 sec)

MULLIKEN ATOMIC CHARGES AND SPIN DENSITIES
------------------------------------------
   0 O :   -0.662456    0.111234
   1 O :   -0.664393   -0.172478
   2 O :   -0.650417    0.002660
   3 O :   -0.637043    0.001378
   4 N :   -0.178385    0.009732
   5 N :   -0.213163   -0.014217
   6 N :    0.030947    0.015500
   7 N :    0.031802   -0.016864
   8 C :   -0.142337    0.436790
   9 C :    1.249997    0.305984
  10 C :    0.622248    0.078033
  11 C :   -0.067981   -0.471933
  12 C :   -1.375424    0.036335
  13 C :   -1.427929   -0.060115
  14 C :    0.482010    0.100745
  15 C :   -0.118512   -0.424756
  16 C :    0.340777   -0.002023
  17 C :    0.431677    0.025069
  18 H :    0.450248    0.021065
  19 H :    0.493002   -0.005315
  20 H :    0.332668    0.003701
  21 H :    0.365536    0.010973
  22 H :    0.234133    0.017957
  23 H :    0.323812   -0.019290
  24 H :    0.348551    0.013331
  25 H :    0.229856   -0.000614
  26 H :    0.052779   -0.003669
  27 H :    0.029185    0.001715
  28 H :    0.076678   -0.003913
  29 H :    0.012133    0.002985
Sum of atomic charges       :   -0.0000000

LOEWDIN ATOMIC CHARGES AND SPIN DENSITIES
-----------------------------------------
   0 O :    0.108058    0.092504
   1 O :    0.081902   -0.153685
   2 O :    0.084025    0.002108
   3 O :    0.086198    0.001013
   4 N :    0.292991    0.000389
   5 N :    0.275878    0.001983
   6 N :    0.321861    0.018546
   7 N :    0.339880   -0.018949
   8 C :   -0.062528    0.507196
   9 C :    0.021108   -0.490625
  10 C :   -0.094097    0.030022
  11 C :   -0.052237   -0.006242
  12 C :    0.188252    0.074886
  13 C :    0.200498   -0.063157
  14 C :   -0.447867    0.080171
  15 C :   -0.415111   -0.085045
  16 C :   -0.422161   -0.000582
  17 C :   -0.512203    0.001020
  18 H :    0.052775    0.005166
  19 H :    0.072329   -0.005205
  20 H :    0.034272    0.006688
  21 H :   -0.021300    0.005612
  22 H :    0.000521    0.026133
  23 H :    0.016064   -0.002332
  24 H :   -0.029831   -0.006978
  25 H :    0.025157   -0.020901
  26 H :   -0.046663    0.000131
  27 H :   -0.043201    0.000397
  28 H :   -0.002576    0.001428
  29 H :   -0.051996   -0.001689

  Mayer bond orders larger than 0.100000
B(  0-O ,  8-C ) :  -0.1047 B(  0-O , 14-C ) :   1.5166 B(  1-O , 15-C ) :   1.3579
B(  2-O , 16-C ) :   1.5714 B(  3-O , 17-C ) :   1.6143 B(  4-N ,  8-C ) :   0.2371
B(  4-N ,  9-C ) :   0.1281 B(  4-N , 10-C ) :   0.5102 B(  4-N , 16-C ) :   0.9939
B(  4-N , 26-H ) :   1.0709 B(  5-N ,  9-C ) :   0.2134 B(  5-N , 11-C ) :   0.1944
B(  5-N , 17-C ) :   1.1453 B(  5-N , 27-H ) :   1.1191 B(  6-N , 10-C ) :   0.1115
B(  6-N , 14-C ) :   1.0949 B(  6-N , 16-C ) :   0.9704 B(  6-N , 28-H ) :   1.0565
B(  7-N ,  9-C ) :  -0.1684 B(  7-N , 11-C ) :   0.1664 B(  7-N , 15-C ) :   0.9890
B(  7-N , 17-C ) :   0.8572 B(  7-N , 29-H ) :   1.1445 B(  8-C ,  9-C ) :   0.1303
B(  8-C , 11-C ) :   0.3973 B(  8-C , 12-C ) :   0.5759 B(  8-C , 14-C ) :   0.5656
B(  8-C , 16-C ) :   0.1520 B(  8-C , 18-H ) :  -0.2128 B(  9-C , 11-C ) :   0.3247
B(  9-C , 13-C ) :   0.2798 B(  9-C , 15-C ) :   0.2264 B(  9-C , 19-H ) :  -0.1014
B(  9-C , 24-H ) :  -0.1346 B( 10-C , 11-C ) :   0.4705 B( 10-C , 12-C ) :  -0.1197
B( 10-C , 16-C ) :  -0.1574 B( 10-C , 18-H ) :   0.9289 B( 11-C , 13-C ) :  -0.1413
B( 11-C , 15-C ) :   0.2440 B( 11-C , 17-C ) :  -0.1337 B( 11-C , 19-H ) :   0.8454
B( 12-C , 20-H ) :   0.9744 B( 12-C , 21-H ) :   0.9374 B( 12-C , 22-H ) :   0.9255
B( 13-C , 15-C ) :  -0.1070 B( 13-C , 23-H ) :   1.0025 B( 13-C , 24-H ) :   1.0202
B( 13-C , 25-H ) :   0.8870 B( 15-C , 17-C ) :  -0.1241

Dispersion correction           -0.059910238
FINAL SINGLE POINT ENERGY      -908.774000490974

DIPOLE MOMENT
-------------

Method             : TDA/CIS
Type of density    : Electron Density
Level              : Relaxed density
State              :   2
Multiplicity       :   3
Irrep              :   0
Energy             :     0.0000000000000000 Eh
Relativity type    :
Basis              : AO
                                X                 Y                 Z
Electronic contribution:     -9.010571779      -7.075823417      -3.011342284
Nuclear contribution   :     11.196701550       8.119039214       5.189861713
                        -----------------------------------------
Total Dipole Moment    :      2.186129771       1.043215797       2.178519429
                        -----------------------------------------
Magnitude (a.u.)       :      3.257822813
Magnitude (Debye)      :      8.280727510

Rotational constants in cm-1:             0.020741             0.013231             0.012477
Rotational constants in MHz :           621.800691           396.658868           374.065520

                             ****ORCA TERMINATED NORMALLY****
TOTAL RUN TIME: 0 days 0 hours 5 minutes 8 seconds 364 msec
