                         Program Version 6.0.0  -   RELEASE  -
|  1> ! Engrad def2-TZVPPD wB97M-D3BJ
|  2> %pal nprocs 8 end%pal nprocs 64 end
|  3> %tddft Nroots 2 Iroot 2
|  4> sf true
|  5> end
|  6> *xyz 0 3
|  7> O   3.11971429 0.59655379 -0.87174171
|  8> O   -0.73767734 1.61634944 -2.21048274
|  9> O   0.18936313 -2.92030031 -0.79137606
| 10> O   -3.00465886 -1.70008488 -0.49178678
| 11> N   0.28795574 -1.58082772 1.05814287
| 12> N   -2.06289736 -0.20596375 1.0196949
| 13> N   1.83324706 -1.28499366 -0.64139062
| 14> N   -1.47281038 -0.22352621 -1.20793226
| 15> C   1.71888894 0.39399286 1.02807093
| 16> C   -0.81523964 1.58042659 0.12324709
| 17> C   0.43043523 -0.19740788 1.51792277
| 18> C   -0.88489976 0.58731688 1.23456944
| 19> C   2.20029453 1.59870357 1.63915314
| 20> C   -0.70913042 3.09130025 0.32861666
| 21> C   2.35268166 -0.08190572 -0.16678589
| 22> C   -0.97713419 1.05071193 -1.18632051
| 23> C   0.72464463 -2.038712 -0.14549038
| 24> C   -2.21974145 -0.82636434 -0.18015393
| 25> H   0.48272309 -0.30776367 2.60677378
| 26> H   -1.0191401 1.13286402 2.16798388
| 27> H   3.22876549 1.8309926 1.45681116
| 28> H   1.62886596 2.36426727 1.19891563
| 29> H   1.96058362 1.48129177 2.75566273
| 30> H   -1.69584934 3.26056471 0.73331175
| 31> H   -0.0791155 3.24379907 1.19154532
| 32> H   -0.39415974 3.58946875 -0.52439422
| 33> H   -0.58845103 -2.02799623 1.16926314
| 34> H   -2.57969346 -0.57206202 1.79360934
| 35> H   2.01930401 -1.49671476 -1.62026192
| 36> H   -1.51088097 -0.60658936 -2.11504948
| 37> *
| 38>
| 39>                          ****END OF INPUT****

CARTESIAN COORDINATES (ANGSTROEM)
---------------------------------
  O      3.119714    0.596554   -0.871742
  O     -0.737677    1.616349   -2.210483
  O      0.189363   -2.920300   -0.791376
  O     -3.004659   -1.700085   -0.491787
  N      0.287956   -1.580828    1.058143
  N     -2.062897   -0.205964    1.019695
  N      1.833247   -1.284994   -0.641391
  N     -1.472810   -0.223526   -1.207932
  C      1.718889    0.393993    1.028071
  C     -0.815240    1.580427    0.123247
  C      0.430435   -0.197408    1.517923
  C     -0.884900    0.587317    1.234569
  C      2.200295    1.598704    1.639153
  C     -0.709130    3.091300    0.328617
  C      2.352682   -0.081906   -0.166786
  C     -0.977134    1.050712   -1.186321
  C      0.724645   -2.038712   -0.145490
  C     -2.219741   -0.826364   -0.180154
  H      0.482723   -0.307764    2.606774
  H     -1.019140    1.132864    2.167984
  H      3.228765    1.830993    1.456811
  H      1.628866    2.364267    1.198916
  H      1.960584    1.481292    2.755663
  H     -1.695849    3.260565    0.733312
  H     -0.079115    3.243799    1.191545
  H     -0.394160    3.589469   -0.524394
  H     -0.588451   -2.027996    1.169263
  H     -2.579693   -0.572062    1.793609
  H      2.019304   -1.496715   -1.620262
  H     -1.510881   -0.606589   -2.115049

 Total Charge           Charge          ....    0
 Multiplicity           Mult            ....    3
 Number of Electrons    NEL             ....  132
 Basis Dimension        Dim             ....  882

ORBITAL ENERGIES
----------------
                 SPIN UP ORBITALS
  NO   OCC          E(Eh)            E(eV)
   0   1.0000     -19.333456      -526.0901
   1   1.0000     -19.326628      -525.9043
   2   1.0000     -19.324627      -525.8498
   3   1.0000     -19.323944      -525.8313
   4   1.0000     -14.576991      -396.6601
   5   1.0000     -14.557627      -396.1332
   6   1.0000     -14.555901      -396.0862
   7   1.0000     -14.550690      -395.9444
   8   1.0000     -10.509675      -285.9828
   9   1.0000     -10.505992      -285.8826
  10   1.0000     -10.481130      -285.2061
  11   1.0000     -10.465522      -284.7813
  12   1.0000     -10.450627      -284.3760
  13   1.0000     -10.450126      -284.3624
  14   1.0000     -10.417736      -283.4810
  15   1.0000     -10.413605      -283.3686
  16   1.0000     -10.376036      -282.3463
  17   1.0000     -10.373337      -282.2728
  18   1.0000      -1.227084       -33.3907
  19   1.0000      -1.212926       -33.0054
  20   1.0000      -1.202232       -32.7144
  21   1.0000      -1.185431       -32.2572
  22   1.0000      -1.132261       -30.8104
  23   1.0000      -1.100720       -29.9521
  24   1.0000      -1.064933       -28.9783
  25   1.0000      -1.051269       -28.6065
  26   1.0000      -0.995791       -27.0969
  27   1.0000      -0.963049       -26.2059
  28   1.0000      -0.903403       -24.5828
  29   1.0000      -0.847979       -23.0747
  30   1.0000      -0.837453       -22.7882
  31   1.0000      -0.807770       -21.9805
  32   1.0000      -0.791287       -21.5320
  33   1.0000      -0.776476       -21.1290
  34   1.0000      -0.701438       -19.0871
  35   1.0000      -0.700273       -19.0554
  36   1.0000      -0.686299       -18.6751
  37   1.0000      -0.672395       -18.2968
  38   1.0000      -0.663571       -18.0567
  39   1.0000      -0.654758       -17.8169
  40   1.0000      -0.627475       -17.0745
  41   1.0000      -0.600007       -16.3270
  42   1.0000      -0.591661       -16.0999
  43   1.0000      -0.589770       -16.0485
  44   1.0000      -0.583080       -15.8664
  45   1.0000      -0.579740       -15.7755
  46   1.0000      -0.569999       -15.5105
  47   1.0000      -0.565816       -15.3966
  48   1.0000      -0.562882       -15.3168
  49   1.0000      -0.556074       -15.1315
  50   1.0000      -0.542046       -14.7498
  51   1.0000      -0.535376       -14.5683
  52   1.0000      -0.532548       -14.4914
  53   1.0000      -0.523550       -14.2465
  54   1.0000      -0.519469       -14.1355
  55   1.0000      -0.510752       -13.8983
  56   1.0000      -0.497995       -13.5511
  57   1.0000      -0.428083       -11.6487
  58   1.0000      -0.422193       -11.4885
  59   1.0000      -0.411652       -11.2016
  60   1.0000      -0.401809       -10.9338
  61   1.0000      -0.399419       -10.8687
  62   1.0000      -0.396538       -10.7903
  63   1.0000      -0.389196       -10.5906
  64   1.0000      -0.386945       -10.5293
  65   1.0000      -0.340960        -9.2780
  66   1.0000      -0.332551        -9.0492
  67   0.0000       0.002220         0.0604
  68   0.0000       0.028185         0.7670
  69   0.0000       0.030513         0.8303
  70   0.0000       0.039552         1.0763
  71   0.0000       0.055394         1.5073

                 SPIN DOWN ORBITALS
  NO   OCC          E(Eh)            E(eV)
   0   1.0000     -19.328821      -525.9640
   1   1.0000     -19.324539      -525.8474
   2   1.0000     -19.323636      -525.8229
   3   1.0000     -19.322212      -525.7841
   4   1.0000     -14.576318      -396.6418
   5   1.0000     -14.556944      -396.1146
   6   1.0000     -14.555748      -396.0820
   7   1.0000     -14.550311      -395.9341
   8   1.0000     -10.509701      -285.9835
   9   1.0000     -10.506032      -285.8837
  10   1.0000     -10.482164      -285.2342
  11   1.0000     -10.466522      -284.8086
  12   1.0000     -10.450606      -284.3755
  13   1.0000     -10.449770      -284.3527
  14   1.0000     -10.406493      -283.1751
  15   1.0000     -10.401921      -283.0507
  16   1.0000     -10.376384      -282.3558
  17   1.0000     -10.373800      -282.2855
  18   1.0000      -1.224536       -33.3213
  19   1.0000      -1.211572       -32.9686
  20   1.0000      -1.198003       -32.5993
  21   1.0000      -1.179276       -32.0897
  22   1.0000      -1.129840       -30.7445
  23   1.0000      -1.098549       -29.8930
  24   1.0000      -1.062894       -28.9228
  25   1.0000      -1.049268       -28.5520
  26   1.0000      -0.982743       -26.7418
  27   1.0000      -0.946352       -25.7515
  28   1.0000      -0.898102       -24.4386
  29   1.0000      -0.842703       -22.9311
  30   1.0000      -0.827826       -22.5263
  31   1.0000      -0.802656       -21.8414
  32   1.0000      -0.788946       -21.4683
  33   1.0000      -0.774666       -21.0797
  34   1.0000      -0.696904       -18.9637
  35   1.0000      -0.694613       -18.9014
  36   1.0000      -0.679822       -18.4989
  37   1.0000      -0.662664       -18.0320
  38   1.0000      -0.654568       -17.8117
  39   1.0000      -0.650041       -17.6885
  40   1.0000      -0.622116       -16.9286
  41   1.0000      -0.595301       -16.1990
  42   1.0000      -0.583003       -15.8643
  43   1.0000      -0.582883       -15.8611
  44   1.0000      -0.576414       -15.6850
  45   1.0000      -0.572329       -15.5739
  46   1.0000      -0.565337       -15.3836
  47   1.0000      -0.561282       -15.2733
  48   1.0000      -0.558482       -15.1971
  49   1.0000      -0.547691       -14.9034
  50   1.0000      -0.535598       -14.5744
  51   1.0000      -0.527169       -14.3450
  52   1.0000      -0.523272       -14.2390
  53   1.0000      -0.517665       -14.0864
  54   1.0000      -0.510078       -13.8799
  55   1.0000      -0.501039       -13.6340
  56   1.0000      -0.492756       -13.4086
  57   1.0000      -0.422763       -11.5040
  58   1.0000      -0.418701       -11.3934
  59   1.0000      -0.405593       -11.0367
  60   1.0000      -0.393818       -10.7163
  61   1.0000      -0.387272       -10.5382
  62   1.0000      -0.384401       -10.4601
  63   1.0000      -0.383004       -10.4221
  64   1.0000      -0.381100       -10.3702
  65   0.0000      -0.062883        -1.7111
  66   0.0000      -0.045939        -1.2501
  67   0.0000       0.001786         0.0486
  68   0.0000       0.028100         0.7646
  69   0.0000       0.030286         0.8241

----------------------------------------------------------------------------------------------------
          SPIN FLIP ABSORPTION SPECTRUM VIA TRANSITION ELECTRIC DIPOLE MOMENTS
----------------------------------------------------------------------------------------------------
     Transition      Energy     Energy  Wavelength fosc(D2)      D2        DX        DY        DZ
                      (eV)      (cm-1)    (nm)                 (au**2)    (au)      (au)      (au)
----------------------------------------------------------------------------------------------------
  1-3A  ->  2-3A    0.060470     487.7  20503.3   0.000000084   0.00006   0.00268   0.00572  -0.00413

Dispersion correction             ... done (  0.1 sec)

MULLIKEN ATOMIC CHARGES AND SPIN DENSITIES
------------------------------------------
   0 O :   -0.683224    0.138332
   1 O :   -0.688562   -0.129338
   2 O :   -0.607236    0.001635
   3 O :   -0.639347   -0.006414
   4 N :   -0.258774    0.015299
   5 N :   -0.373128   -0.019611
   6 N :   -0.075904    0.023275
   7 N :    0.070707   -0.012572
   8 C :    0.046341    0.391433
   9 C :    1.097646    0.626363
  10 C :    0.176081    0.004777
  11 C :    0.182778   -0.541565
  12 C :   -1.184244    0.035326
  13 C :   -1.180492    0.044728
  14 C :    0.410282    0.012402
  15 C :   -0.330841   -0.661826
  16 C :    0.421292   -0.004097
  17 C :    0.327839    0.027320
  18 H :    0.678812    0.042266
  19 H :    0.464230   -0.021023
  20 H :    0.335677    0.011156
  21 H :    0.184190    0.027893
  22 H :    0.348420    0.004677
  23 H :    0.443897   -0.007255
  24 H :    0.317281    0.011100
  25 H :    0.309643   -0.019587
  26 H :    0.103350   -0.000040
  27 H :    0.067689    0.000904
  28 H :    0.053759   -0.000394
  29 H :   -0.018158    0.004835
Sum of atomic charges       :    0.0000000

LOEWDIN ATOMIC CHARGES AND SPIN DENSITIES
-----------------------------------------
   0 O :    0.079807    0.120526
   1 O :    0.117374   -0.117639
   2 O :    0.093805    0.001897
   3 O :    0.101492   -0.005953
   4 N :    0.287282   -0.001961
   5 N :    0.289237   -0.012213
   6 N :    0.319025    0.019118
   7 N :    0.339701   -0.014398
   8 C :   -0.043764    0.391393
   9 C :    0.021015   -0.391077
  10 C :   -0.079813    0.029046
  11 C :   -0.117849   -0.024374
  12 C :    0.192066    0.063329
  13 C :    0.255621   -0.049164
  14 C :   -0.379801    0.059696
  15 C :   -0.467086   -0.078648
  16 C :   -0.463374   -0.000539
  17 C :   -0.475152   -0.001150
  18 H :    0.048979    0.007507
  19 H :    0.055217   -0.000202
  20 H :    0.002810    0.003494
  21 H :   -0.050995    0.020814
  22 H :    0.056637    0.009142
  23 H :    0.007802   -0.020769
  24 H :   -0.025950   -0.006945
  25 H :   -0.027981   -0.000028
  26 H :   -0.073829   -0.000035
  27 H :   -0.024623   -0.001163
  28 H :   -0.009086    0.001687
  29 H :   -0.028566   -0.001391

  Mayer bond orders larger than 0.100000
B(  0-O , 14-C ) :   1.3354 B(  1-O , 15-C ) :   1.3707 B(  2-O , 16-C ) :   1.5473
B(  3-O , 17-C ) :   1.5683 B(  4-N ,  8-C ) :   0.1986 B(  4-N , 10-C ) :   0.1766
B(  4-N , 16-C ) :   1.0473 B(  4-N , 26-H ) :   1.0118 B(  5-N ,  9-C ) :   0.3295
B(  5-N , 10-C ) :   0.1640 B(  5-N , 11-C ) :  -0.2083 B(  5-N , 17-C ) :   1.1877
B(  5-N , 27-H ) :   1.0725 B(  6-N ,  8-C ) :  -0.1311 B(  6-N , 10-C ) :   0.1014
B(  6-N , 14-C ) :   1.0494 B(  6-N , 16-C ) :   0.8714 B(  6-N , 28-H ) :   1.0907
B(  7-N , 11-C ) :   0.1502 B(  7-N , 15-C ) :   0.9629 B(  7-N , 17-C ) :   0.9743
B(  7-N , 29-H ) :   1.1191 B(  8-C , 12-C ) :   0.3461 B(  8-C , 14-C ) :   0.8937
B(  8-C , 16-C ) :   0.1123 B(  8-C , 18-H ) :  -0.3613 B(  8-C , 20-H ) :  -0.1037
B(  8-C , 22-H ) :  -0.1216 B(  9-C , 13-C ) :   0.7201 B( 10-C , 11-C ) :   0.6100
B( 10-C , 16-C ) :  -0.1030 B( 10-C , 18-H ) :   0.7587 B( 11-C , 13-C ) :  -0.1014
B( 11-C , 15-C ) :   0.2280 B( 11-C , 17-C ) :  -0.2531 B( 11-C , 19-H ) :   0.9262
B( 12-C , 20-H ) :   0.9906 B( 12-C , 21-H ) :   0.8981 B( 12-C , 22-H ) :   1.0496
B( 13-C , 23-H ) :   0.8063 B( 13-C , 24-H ) :   0.8450 B( 13-C , 25-H ) :   1.0133
B( 15-C , 17-C ) :  -0.1433

Dispersion correction           -0.060627338
FINAL SINGLE POINT ENERGY      -908.760153516498

DIPOLE MOMENT
-------------

Method             : TDA/CIS
Type of density    : Electron Density
Level              : Relaxed density
State              :   2
Multiplicity       :   3
Irrep              :   0
Energy             :     0.0000000000000000 Eh
Relativity type    :
Basis              : AO
                                X                 Y                 Z
Electronic contribution:     -1.734559828     -10.130436569      -7.257362496
Nuclear contribution   :      1.502250708      11.585716607      10.324173907
                        -----------------------------------------
Total Dipole Moment    :     -0.232309120       1.455280038       3.066811412
                        -----------------------------------------
Magnitude (a.u.)       :      3.402519618
Magnitude (Debye)      :      8.648517560

Rotational constants in cm-1:             0.019179             0.015793             0.012462
Rotational constants in MHz :           574.980230           473.466014           373.611159

                             ****ORCA TERMINATED NORMALLY****
TOTAL RUN TIME: 0 days 0 hours 4 minutes 34 seconds 760 msec
