                         Program Version 6.0.0  -   RELEASE  -
|  1> ! opt def2-TZVPPD wB97M-D3BJ
|  2> %pal nprocs 8 end%pal nprocs 64 end
|  3>  %geom Constraints
|  4>  {B 9 8 2.6 C}
|  5>  {A 8 9 11 98.0 C}
|  6>  end
|  7>  end
|  8> *xyz 0 1
|  9> O   2.98579685529314 0.88758230159078 -0.86184571092411
| 10> O   -0.03983205397054 0.68929041702508 -2.10362336723772
| 11> O   0.93431434349854 -3.13274393337945 -0.68767288184107
| 12> O   -3.75829998830163 -0.84727300865116 -0.0472717177755
| 13> N   0.21184538946282 -1.54604804365365 0.7617588924445
| 14> N   -2.13631993928911 0.03188773433438 1.27350571071531
| 15> N   2.02598672506387 -1.14318467211666 -0.64531219127023
| 16> N   -1.91814233924584 0.03137116037665 -1.04498946748291
| 17> C   1.18097737274226 0.71693507080484 0.70173889017321
| 18> C   -0.20686880480777 1.27024627933494 0.21345042231937
| 19> C   0.41441080275909 -0.34173258966541 1.52336266615173
| 20> C   -0.82922175114212 0.58960593673968 1.44434972027296
| 21> C   1.92822011286806 1.69488653817281 1.5963734975385
| 22> C   -0.37809776891576 2.77134929626422 0.04819649358288
| 23> C   2.1403947470937 0.1972384729179 -0.35038567829864
| 24> C   -0.67361678962426 0.6214190571346 -1.0793014500539
| 25> C   1.04142578622994 -2.02697492875068 -0.21027082435993
| 26> C   -2.68467002550422 -0.30396816036989 0.07167054343891
| 27> H   0.80817443950001 -0.54572267081061 2.51895215321335
| 28> H   -0.83785272399001 1.27240685039143 2.28901317073582
| 29> H   2.31167340578204 2.52284411740894 1.00913016264629
| 30> H   1.28982602448342 2.08257620823614 2.38710022492991
| 31> H   2.77390820759972 1.19140411795486 2.06045858523949
| 32> H   -1.41857211141493 3.00964947214868 -0.16882755561625
| 33> H   -0.09065531563179 3.29799318042223 0.95389844358819
| 34> H   0.23426221611057 3.12492645074476 -0.77764887675592
| 35> H   -0.46772570547622 -2.21560145172536 1.0787081584806
| 36> H   -2.71769301149571 -0.17090724573546 2.06627440900372
| 37> H   2.60065167263658 -1.49057255715425 -1.3966820077142
| 38> H   -2.27169977231386 -0.32388339999036 -1.91951041514436
| 39> *
| 40>
| 41>                          ****END OF INPUT****
 Total Charge           Charge          ....    0
 Multiplicity           Mult            ....    1
 Number of Electrons    NEL             ....  132
Dispersion correction           -0.055477028
FINAL SINGLE POINT ENERGY      -908.670374801710
Dispersion correction             ... done (  0.1 sec)
Dispersion correction           -0.055963557
FINAL SINGLE POINT ENERGY      -908.696966993255
Dispersion correction             ... done (  0.1 sec)
Dispersion correction           -0.056655630
FINAL SINGLE POINT ENERGY      -908.713674178670
Dispersion correction             ... done (  0.1 sec)
FINAL SINGLE POINT ENERGY      -908.728032065036
FINAL SINGLE POINT ENERGY      -908.743562047010
FINAL SINGLE POINT ENERGY      -908.762397614909
FINAL SINGLE POINT ENERGY      -908.769281723435
FINAL SINGLE POINT ENERGY      -908.782282077390
FINAL SINGLE POINT ENERGY      -908.796890060313
FINAL SINGLE POINT ENERGY      -908.809801079672
FINAL SINGLE POINT ENERGY      -908.914666380301
FINAL SINGLE POINT ENERGY      -908.914765280338
FINAL SINGLE POINT ENERGY      -908.914808756427
FINAL SINGLE POINT ENERGY      -908.914849267096
FINAL SINGLE POINT ENERGY      -908.914878516497
FINAL SINGLE POINT ENERGY      -908.914903009355
FINAL SINGLE POINT ENERGY      -908.914916595982
Dispersion correction             ... done (  0.1 sec)
Dispersion correction           -0.061737831
FINAL SINGLE POINT ENERGY      -908.914924813067
Dispersion correction             ... done (  0.1 sec)
Dispersion correction           -0.061712028
FINAL SINGLE POINT ENERGY      -908.914927741076
Dispersion correction             ... done (  0.1 sec)
                    ***********************HURRAY********************

CARTESIAN COORDINATES (ANGSTROEM)
---------------------------------
  O      2.848484    1.266077   -0.506712
  O     -0.488657    0.507713   -1.978078
  O      1.325421   -2.861937   -1.641671
  O     -3.037283   -1.482735    1.196965
  N      0.666730   -1.953088    0.339976
  N     -2.214251    0.603712    1.604180
  N      2.090766   -0.794747   -1.042850
  N     -1.867530   -0.396847   -0.433913
  C      1.261706    0.274812    0.958487
  C     -0.741951    1.676364    0.074740
  C      0.666121   -0.899936    1.220870
  C     -1.468495    1.691077    1.197657
  C      1.470942    1.312533    2.018850
  C     -0.003740    2.878584   -0.429516
  C      2.120485    0.334329   -0.233812
  C     -0.983030    0.586777   -0.875248
  C      1.354330   -1.943399   -0.857134
  C     -2.424081   -0.507493    0.819520
  H      0.131473   -1.077659    2.141901
  H     -1.448129    2.519861    1.887918
  H      1.358413    2.318714    1.630648
  H      0.771367    1.165453    2.838740
  H      2.483330    1.237225    2.413172
  H     -0.451040    3.218613   -1.361630
  H     -0.054284    3.687322    0.296299
  H      1.039104    2.659036   -0.636318
  H      0.129070   -2.780766    0.526724
  H     -2.681013    0.596820    2.492967
  H      2.606852   -0.740504   -1.906474
  H     -2.008510   -1.180912   -1.051656

 Multiplicity           Mult            ....    1
 Number of Electrons    NEL             ....  132
 Basis Dimension        Dim             ....  882

ORBITAL ENERGIES
----------------

  NO   OCC          E(Eh)            E(eV)
   0   2.0000     -19.329778      -525.9900
   1   2.0000     -19.326822      -525.9096
   2   2.0000     -19.319500      -525.7103
   3   2.0000     -19.317639      -525.6597
   4   2.0000     -14.586971      -396.9317
   5   2.0000     -14.577404      -396.6713
   6   2.0000     -14.571963      -396.5233
   7   2.0000     -14.561707      -396.2442
   8   2.0000     -10.516006      -286.1551
   9   2.0000     -10.504865      -285.8519
  10   2.0000     -10.480993      -285.2023
  11   2.0000     -10.475978      -285.0659
  12   2.0000     -10.428487      -283.7736
  13   2.0000     -10.426900      -283.7304
  14   2.0000     -10.380741      -282.4743
  15   2.0000     -10.380680      -282.4727
  16   2.0000     -10.360477      -281.9229
  17   2.0000     -10.349738      -281.6307
  18   2.0000      -1.229415       -33.4541
  19   2.0000      -1.218651       -33.1612
  20   2.0000      -1.197529       -32.5864
  21   2.0000      -1.189014       -32.3547
  22   2.0000      -1.125000       -30.6128
  23   2.0000      -1.116949       -30.3937
  24   2.0000      -1.072742       -29.1908
  25   2.0000      -1.063054       -28.9272
  26   2.0000      -0.966910       -26.3110
  27   2.0000      -0.948994       -25.8234
  28   2.0000      -0.849073       -23.1044
  29   2.0000      -0.846667       -23.0390
  30   2.0000      -0.812883       -22.1197
  31   2.0000      -0.807392       -21.9703
  32   2.0000      -0.795946       -21.6588
  33   2.0000      -0.788277       -21.4501
  34   2.0000      -0.697007       -18.9665
  35   2.0000      -0.695734       -18.9319
  36   2.0000      -0.691904       -18.8277
  37   2.0000      -0.687264       -18.7014
  38   2.0000      -0.643773       -17.5180
  39   2.0000      -0.639655       -17.4059
  40   2.0000      -0.635996       -17.3063
  41   2.0000      -0.600805       -16.3487
  42   2.0000      -0.599238       -16.3061
  43   2.0000      -0.591757       -16.1025
  44   2.0000      -0.571298       -15.5458
  45   2.0000      -0.567727       -15.4486
  46   2.0000      -0.558990       -15.2109
  47   2.0000      -0.553084       -15.0502
  48   2.0000      -0.550508       -14.9801
  49   2.0000      -0.535886       -14.5822
  50   2.0000      -0.523980       -14.2582
  51   2.0000      -0.519586       -14.1387
  52   2.0000      -0.515671       -14.0321
  53   2.0000      -0.508712       -13.8428
  54   2.0000      -0.504703       -13.7337
  55   2.0000      -0.496616       -13.5136
  56   2.0000      -0.477472       -12.9927
  57   2.0000      -0.472146       -12.8478
  58   2.0000      -0.421924       -11.4811
  59   2.0000      -0.410837       -11.1794
  60   2.0000      -0.406597       -11.0641
  61   2.0000      -0.391987       -10.6665
  62   2.0000      -0.390454       -10.6248
  63   2.0000      -0.383862       -10.4454
  64   2.0000      -0.363594        -9.8939
  65   2.0000      -0.324789        -8.8380
  66   0.0000       0.008573         0.2333
  67   0.0000       0.013514         0.3677
  68   0.0000       0.024894         0.6774
  69   0.0000       0.032453         0.8831
  70   0.0000       0.040010         1.0887

MULLIKEN ATOMIC CHARGES
-----------------------
   0 O :   -0.686166
   1 O :   -0.655351
   2 O :   -0.655988
   3 O :   -0.669781
   4 N :   -0.051814
   5 N :    0.012838
   6 N :    0.012464
   7 N :   -0.030766
   8 C :    0.959367
   9 C :    0.393906
  10 C :   -0.228234
  11 C :    0.222991
  12 C :   -1.554166
  13 C :   -1.525686
  14 C :    0.352954
  15 C :    0.572844
  16 C :    0.492595
  17 C :    0.462521
  18 H :    0.286286
  19 H :    0.209987
  20 H :    0.265096
  21 H :    0.336883
  22 H :    0.403125
  23 H :    0.379316
  24 H :    0.346530
  25 H :    0.236902
  26 H :    0.027576
  27 H :    0.021588
  28 H :    0.023762
  29 H :    0.038422
Sum of atomic charges:    0.0000000

LOEWDIN ATOMIC CHARGES
----------------------
   0 O :    0.087971
   1 O :    0.110661
   2 O :    0.091598
   3 O :    0.077063
   4 N :    0.288233
   5 N :    0.286550
   6 N :    0.345060
   7 N :    0.337113
   8 C :   -0.155776
   9 C :   -0.170126
  10 C :    0.042617
  11 C :    0.036170
  12 C :    0.181717
  13 C :    0.188524
  14 C :   -0.393428
  15 C :   -0.399025
  16 C :   -0.472255
  17 C :   -0.493489
  18 H :    0.040940
  19 H :    0.039699
  20 H :   -0.017890
  21 H :   -0.003104
  22 H :    0.009456
  23 H :    0.008242
  24 H :   -0.000788
  25 H :   -0.025789
  26 H :   -0.015660
  27 H :   -0.019345
  28 H :   -0.001512
  29 H :   -0.003428

  Mayer bond orders larger than 0.100000
B(  0-O , 14-C ) :   1.4074 B(  1-O , 15-C ) :   1.4326 B(  2-O , 16-C ) :   1.5659
B(  3-O , 17-C ) :   1.5513 B(  4-N , 10-C ) :   0.8848 B(  4-N , 16-C ) :   1.0259
B(  4-N , 26-H ) :   1.1469 B(  5-N , 11-C ) :   0.9733 B(  5-N , 17-C ) :   1.0387
B(  5-N , 27-H ) :   1.1333 B(  6-N , 14-C ) :   1.0848 B(  6-N , 16-C ) :   0.9736
B(  6-N , 28-H ) :   1.0983 B(  7-N , 15-C ) :   1.0192 B(  7-N , 17-C ) :   0.9595
B(  7-N , 29-H ) :   1.0917 B(  8-C ,  9-C ) :   0.1098 B(  8-C , 10-C ) :   0.9334
B(  8-C , 12-C ) :   0.2826 B(  8-C , 14-C ) :   0.6406 B(  8-C , 15-C ) :  -0.1763
B(  8-C , 18-H ) :  -0.1341 B(  8-C , 20-H ) :  -0.1382 B(  9-C , 11-C ) :   0.9717
B(  9-C , 13-C ) :   0.5428 B(  9-C , 15-C ) :   0.6514 B(  9-C , 24-H ) :  -0.1190
B( 10-C , 12-C ) :  -0.1323 B( 10-C , 18-H ) :   1.1232 B( 11-C , 13-C ) :  -0.2626
B( 11-C , 19-H ) :   1.0958 B( 12-C , 20-H ) :   1.0417 B( 12-C , 21-H ) :   1.0502
B( 12-C , 22-H ) :   0.7989 B( 13-C , 23-H ) :   0.8353 B( 13-C , 24-H ) :   1.0621
B( 13-C , 25-H ) :   0.9622

Dispersion correction           -0.061701315
FINAL SINGLE POINT ENERGY      -908.914928737927

DIPOLE MOMENT
-------------

Method             : SCF
Type of density    : Electron Density
Multiplicity       :   1
Irrep              :   0
Energy             :  -908.8532274225489118 Eh
Relativity type    :
Basis              : AO
                                X                 Y                 Z
Electronic contribution:     -2.146218233      -9.858421407      -5.716512102
Nuclear contribution   :      1.369518774      10.857253745       7.947982530
                        -----------------------------------------
Total Dipole Moment    :     -0.776699460       0.998832339       2.231470429
                        -----------------------------------------
Magnitude (a.u.)       :      2.565226767
Magnitude (Debye)      :      6.520288265

Rotational constants in cm-1:             0.019629             0.015249             0.011887
Rotational constants in MHz :           588.466617           457.163303           356.349297

                             ****ORCA TERMINATED NORMALLY****
TOTAL RUN TIME: 0 days 1 hours 16 minutes 20 seconds 630 msec
