                         Program Version 6.0.0  -   RELEASE  -
|  1> ! EnGrad wB97M-D3BJ def2-TZVPPD
|  2> %pal nprocs 8 end%pal nprocs 16 end
|  3> %tddft
|  4>  sf true
|  5>  nroots 2 Iroot 1 end
|  6> *xyz 0 3
|  7> O   0.13380741814321 0.87370059812104 -0.00025542654105
|  8> C   0.6743155710013 -0.37254056583595 0.00012630547559
|  9> C   -0.72927815397037 -0.56961185040498 -0.00015343347587
| 10> H   1.22790858764226 -0.65078168902298 0.89866970484813
| 11> H   1.22753271753198 -0.65096199073241 -0.89865079044189
| 12> H   -1.26634042500595 -0.67495493336245 -0.92741459338332
| 13> H   -1.26574571534243 -0.67324956876227 0.92767823351842
| 14> *
| 15>
| 16>                          ****END OF INPUT****

CARTESIAN COORDINATES (ANGSTROEM)
---------------------------------
  O      0.133807    0.873701   -0.000255
  C      0.674316   -0.372541    0.000126
  C     -0.729278   -0.569612   -0.000153
  H      1.227909   -0.650782    0.898670
  H      1.227533   -0.650962   -0.898651
  H     -1.266340   -0.674955   -0.927415
  H     -1.265746   -0.673250    0.927678

 Total Charge           Charge          ....    0
 Multiplicity           Mult            ....    3
 Number of Electrons    NEL             ....   24
 Basis Dimension        Dim             ....  182

ORBITAL ENERGIES
----------------
                 SPIN UP ORBITALS
  NO   OCC          E(Eh)            E(eV)
   0   1.0000     -19.438139      -528.9386
   1   1.0000     -10.412135      -283.3286
   2   1.0000     -10.338242      -281.3179
   3   1.0000      -1.256321       -34.1862
   4   1.0000      -0.859241       -23.3811
   5   1.0000      -0.757185       -20.6041
   6   1.0000      -0.665923       -18.1207
   7   1.0000      -0.629793       -17.1375
   8   1.0000      -0.553942       -15.0735
   9   1.0000      -0.498595       -13.5675
  10   1.0000      -0.477983       -13.0066
  11   1.0000      -0.459459       -12.5025
  12   1.0000      -0.196972        -5.3599
  13   0.0000       0.039138         1.0650
  14   0.0000       0.063044         1.7155
  15   0.0000       0.071577         1.9477
  16   0.0000       0.086100         2.3429
  17   0.0000       0.112847         3.0707

                 SPIN DOWN ORBITALS
  NO   OCC          E(Eh)            E(eV)
   0   1.0000     -19.405963      -528.0631
   1   1.0000     -10.412850      -283.3480
   2   1.0000     -10.326962      -281.0109
   3   1.0000      -1.190197       -32.3869
   4   1.0000      -0.824588       -22.4382
   5   1.0000      -0.737695       -20.0737
   6   1.0000      -0.615625       -16.7520
   7   1.0000      -0.594383       -16.1740
   8   1.0000      -0.520894       -14.1743
   9   1.0000      -0.472127       -12.8472
  10   1.0000      -0.414828       -11.2880
  11   0.0000      -0.095402        -2.5960
  12   0.0000       0.035308         0.9608
  13   0.0000       0.056647         1.5415
  14   0.0000       0.060216         1.6386
  15   0.0000       0.067313         1.8317

----------------------------------------------------------------------------------------------------
          SPIN FLIP ABSORPTION SPECTRUM VIA TRANSITION ELECTRIC DIPOLE MOMENTS
----------------------------------------------------------------------------------------------------
     Transition      Energy     Energy  Wavelength fosc(D2)      D2        DX        DY        DZ
                      (eV)      (cm-1)    (nm)                 (au**2)    (au)      (au)      (au)
----------------------------------------------------------------------------------------------------
  1-3A  ->  2-3A    4.937044   39819.9   251.1   0.003934309   0.03253   0.00046   0.00033  -0.18035

Dispersion correction             ... done (  0.0 sec)

MULLIKEN ATOMIC CHARGES AND SPIN DENSITIES
------------------------------------------
   0 O :   -0.427216    0.046861
   1 C :   -0.127541   -0.082473
   2 C :   -0.400662   -0.010032
   3 H :    0.210047    0.026136
   4 H :    0.209955    0.026152
   5 H :    0.267703   -0.003338
   6 H :    0.267714   -0.003307
Sum of atomic charges       :   -0.0000000

LOEWDIN ATOMIC CHARGES AND SPIN DENSITIES
-----------------------------------------
   0 O :   -0.058938    0.004550
   1 C :   -0.217593   -0.009088
   2 C :    0.213255    0.003159
   3 H :    0.027707    0.004493
   4 H :    0.027714    0.004504
   5 H :    0.003943   -0.003802
   6 H :    0.003914   -0.003817

  Mayer bond orders larger than 0.100000
B(  0-O ,  1-C ) :   0.7679 B(  0-O ,  2-C ) :   0.8945 B(  1-C ,  2-C ) :   0.7731
B(  1-C ,  3-H ) :   1.0337 B(  1-C ,  4-H ) :   1.0335 B(  2-C ,  5-H ) :   0.9275
B(  2-C ,  6-H ) :   0.9276

Dispersion correction           -0.005253737
FINAL SINGLE POINT ENERGY      -153.848615042422

DIPOLE MOMENT
-------------

Method             : TDA/CIS
Type of density    : Electron Density
Level              : Relaxed density
State              :   1
Multiplicity       :   3
Irrep              :   0
Energy             :     0.0000000000000000 Eh
Relativity type    :
Basis              : AO
                                X                 Y                 Z
Electronic contribution:     -0.039228298       1.306237120      -0.000442336
Nuclear contribution   :     -0.189946398      -2.472427383       0.000614308
                        -----------------------------------------
Total Dipole Moment    :     -0.229174696      -1.166190263       0.000171971
                        -----------------------------------------
Magnitude (a.u.)       :      1.188495183
Magnitude (Debye)      :      3.020914679

Rotational constants in cm-1:             0.920174             0.640650             0.444695
Rotational constants in MHz :         27586.116016         19206.197521         13331.625794

                             ****ORCA TERMINATED NORMALLY****
TOTAL RUN TIME: 0 days 0 hours 0 minutes 17 seconds 464 msec
