                         Program Version 6.0.0  -   RELEASE  -
|  1> ! Engrad def2-TZVPPD wB97M-D3BJ
|  2> %pal nprocs 8 end%pal nprocs 64 end
|  3> %tddft
|  4>  Iroot 2 Nroots 3
|  5> sf true
|  6> end
|  7> *xyz 0 3
|  8> O   2.6307623 -0.53245083 -2.2982035
|  9> O   -2.14107168 1.01052215 -1.68207414
| 10> O   -0.97366483 -2.81450086 -0.84517785
| 11> O   -2.52540895 0.38266747 2.90677458
| 12> N   0.1174104 -1.47593275 0.67560236
| 13> N   -0.64675134 1.21084267 1.97774445
| 14> N   0.73856084 -1.5626767 -1.57239651
| 15> N   -2.33607808 0.53993205 0.63057082
| 16> C   2.08710663 -0.38373423 0.03420019
| 17> C   -0.250711 1.28853651 -0.35038878
| 18> C   0.99854809 -0.46708721 1.03144964
| 19> C   0.32568328 0.99495836 0.96571257
| 20> C   3.33191572 0.3519039 0.20114096
| 21> C   0.5898212 1.9862995 -1.36657917
| 22> C   1.89215433 -0.83330683 -1.31101929
| 23> C   -1.67028029 0.96614102 -0.55844193
| 24> C   -0.13479785 -2.00625074 -0.58984522
| 25> C   -1.88572043 0.67018999 1.9037015
| 26> H   1.4119048 -0.72895997 1.98180696
| 27> H   1.19027448 1.62592437 1.1203903
| 28> H   4.06699595 -0.03712233 -0.45348453
| 29> H   3.26096474 1.51013652 -0.07060553
| 30> H   3.68845009 0.33846474 1.17316736
| 31> H   0.03725055 2.15997605 -2.28731406
| 32> H   1.00072373 2.96095888 -1.00092008
| 33> H   1.39456604 1.40257815 -1.7030459
| 34> H   -0.56318243 -1.7340961 1.37877657
| 35> H   -0.2357568 1.24228242 2.90481757
| 36> H   0.53415457 -1.6863249 -2.53021376
| 37> H   -3.23896193 0.06993076 0.54741296
| 38> *
| 39>
| 40>                          ****END OF INPUT****

CARTESIAN COORDINATES (ANGSTROEM)
---------------------------------
  O      2.630762   -0.532451   -2.298204
  O     -2.141072    1.010522   -1.682074
  O     -0.973665   -2.814501   -0.845178
  O     -2.525409    0.382667    2.906775
  N      0.117410   -1.475933    0.675602
  N     -0.646751    1.210843    1.977744
  N      0.738561   -1.562677   -1.572397
  N     -2.336078    0.539932    0.630571
  C      2.087107   -0.383734    0.034200
  C     -0.250711    1.288537   -0.350389
  C      0.998548   -0.467087    1.031450
  C      0.325683    0.994958    0.965713
  C      3.331916    0.351904    0.201141
  C      0.589821    1.986300   -1.366579
  C      1.892154   -0.833307   -1.311019
  C     -1.670280    0.966141   -0.558442
  C     -0.134798   -2.006251   -0.589845
  C     -1.885720    0.670190    1.903701
  H      1.411905   -0.728960    1.981807
  H      1.190274    1.625924    1.120390
  H      4.066996   -0.037122   -0.453485
  H      3.260965    1.510137   -0.070606
  H      3.688450    0.338465    1.173167
  H      0.037251    2.159976   -2.287314
  H      1.000724    2.960959   -1.000920
  H      1.394566    1.402578   -1.703046
  H     -0.563182   -1.734096    1.378777
  H     -0.235757    1.242282    2.904818
  H      0.534155   -1.686325   -2.530214
  H     -3.238962    0.069931    0.547413

 Total Charge           Charge          ....    0
 Multiplicity           Mult            ....    3
 Number of Electrons    NEL             ....  132
 Basis Dimension        Dim             ....  882

ORBITAL ENERGIES
----------------
                 SPIN UP ORBITALS
  NO   OCC          E(Eh)            E(eV)
   0   1.0000     -19.346462      -526.4440
   1   1.0000     -19.334447      -526.1170
   2   1.0000     -19.324308      -525.8412
   3   1.0000     -19.322482      -525.7915
   4   1.0000     -14.571629      -396.5142
   5   1.0000     -14.563662      -396.2974
   6   1.0000     -14.561893      -396.2493
   7   1.0000     -14.560705      -396.2169
   8   1.0000     -10.509847      -285.9875
   9   1.0000     -10.507302      -285.9182
  10   1.0000     -10.493426      -285.5407
  11   1.0000     -10.483921      -285.2820
  12   1.0000     -10.442846      -284.1643
  13   1.0000     -10.437853      -284.0284
  14   1.0000     -10.420240      -283.5492
  15   1.0000     -10.418128      -283.4917
  16   1.0000     -10.374591      -282.3070
  17   1.0000     -10.365057      -282.0475
  18   1.0000      -1.226870       -33.3848
  19   1.0000      -1.222047       -33.2536
  20   1.0000      -1.200785       -32.6750
  21   1.0000      -1.182453       -32.1762
  22   1.0000      -1.130231       -30.7552
  23   1.0000      -1.108808       -30.1722
  24   1.0000      -1.072294       -29.1786
  25   1.0000      -1.064359       -28.9627
  26   1.0000      -0.989795       -26.9337
  27   1.0000      -0.958592       -26.0846
  28   1.0000      -0.890474       -24.2310
  29   1.0000      -0.849203       -23.1080
  30   1.0000      -0.831348       -22.6221
  31   1.0000      -0.814769       -22.1710
  32   1.0000      -0.792329       -21.5604
  33   1.0000      -0.786154       -21.3923
  34   1.0000      -0.707260       -19.2455
  35   1.0000      -0.700512       -19.0619
  36   1.0000      -0.695623       -18.9289
  37   1.0000      -0.684746       -18.6329
  38   1.0000      -0.663017       -18.0416
  39   1.0000      -0.651201       -17.7201
  40   1.0000      -0.633348       -17.2343
  41   1.0000      -0.602007       -16.3815
  42   1.0000      -0.597200       -16.2506
  43   1.0000      -0.591980       -16.1086
  44   1.0000      -0.576601       -15.6901
  45   1.0000      -0.572954       -15.5909
  46   1.0000      -0.569395       -15.4940
  47   1.0000      -0.564387       -15.3578
  48   1.0000      -0.563674       -15.3384
  49   1.0000      -0.556440       -15.1415
  50   1.0000      -0.552763       -15.0415
  51   1.0000      -0.542736       -14.7686
  52   1.0000      -0.536203       -14.5908
  53   1.0000      -0.519532       -14.1372
  54   1.0000      -0.511144       -13.9089
  55   1.0000      -0.506387       -13.7795
  56   1.0000      -0.491134       -13.3644
  57   1.0000      -0.432460       -11.7678
  58   1.0000      -0.419946       -11.4273
  59   1.0000      -0.417451       -11.3594
  60   1.0000      -0.409062       -11.1312
  61   1.0000      -0.408173       -11.1070
  62   1.0000      -0.398273       -10.8375
  63   1.0000      -0.393013       -10.6944
  64   1.0000      -0.379692       -10.3319
  65   1.0000      -0.348296        -9.4776
  66   1.0000      -0.327467        -8.9108
  67   0.0000       0.008458         0.2302
  68   0.0000       0.028586         0.7779
  69   0.0000       0.033828         0.9205
  70   0.0000       0.035040         0.9535
  71   0.0000       0.053881         1.4662

                 SPIN DOWN ORBITALS
  NO   OCC          E(Eh)            E(eV)
   0   1.0000     -19.341577      -526.3111
   1   1.0000     -19.329910      -525.9936
   2   1.0000     -19.324282      -525.8404
   3   1.0000     -19.322239      -525.7849
   4   1.0000     -14.571357      -396.5068
   5   1.0000     -14.562615      -396.2689
   6   1.0000     -14.561296      -396.2330
   7   1.0000     -14.560698      -396.2167
   8   1.0000     -10.509901      -285.9889
   9   1.0000     -10.507343      -285.9193
  10   1.0000     -10.494576      -285.5719
  11   1.0000     -10.484771      -285.3051
  12   1.0000     -10.442330      -284.1502
  13   1.0000     -10.437402      -284.0161
  14   1.0000     -10.409566      -283.2587
  15   1.0000     -10.406855      -283.1849
  16   1.0000     -10.375292      -282.3260
  17   1.0000     -10.365575      -282.0616
  18   1.0000      -1.225886       -33.3580
  19   1.0000      -1.220332       -33.2069
  20   1.0000      -1.194777       -32.5115
  21   1.0000      -1.176538       -32.0152
  22   1.0000      -1.127360       -30.6770
  23   1.0000      -1.106641       -30.1132
  24   1.0000      -1.070363       -29.1261
  25   1.0000      -1.062031       -28.8993
  26   1.0000      -0.976544       -26.5731
  27   1.0000      -0.941610       -25.6225
  28   1.0000      -0.885273       -24.0895
  29   1.0000      -0.844961       -22.9926
  30   1.0000      -0.822998       -22.3949
  31   1.0000      -0.809396       -22.0248
  32   1.0000      -0.790697       -21.5159
  33   1.0000      -0.784153       -21.3379
  34   1.0000      -0.702900       -19.1269
  35   1.0000      -0.694120       -18.8880
  36   1.0000      -0.688861       -18.7449
  37   1.0000      -0.677712       -18.4415
  38   1.0000      -0.650233       -17.6937
  39   1.0000      -0.648020       -17.6335
  40   1.0000      -0.629262       -17.1231
  41   1.0000      -0.596793       -16.2396
  42   1.0000      -0.591578       -16.0977
  43   1.0000      -0.585659       -15.9366
  44   1.0000      -0.569590       -15.4993
  45   1.0000      -0.567208       -15.4345
  46   1.0000      -0.562682       -15.3114
  47   1.0000      -0.560967       -15.2647
  48   1.0000      -0.558134       -15.1876
  49   1.0000      -0.547737       -14.9047
  50   1.0000      -0.537440       -14.6245
  51   1.0000      -0.534998       -14.5580
  52   1.0000      -0.530254       -14.4289
  53   1.0000      -0.508766       -13.8442
  54   1.0000      -0.506825       -13.7914
  55   1.0000      -0.494181       -13.4473
  56   1.0000      -0.486754       -13.2452
  57   1.0000      -0.427429       -11.6309
  58   1.0000      -0.416716       -11.3394
  59   1.0000      -0.412674       -11.2294
  60   1.0000      -0.398811       -10.8522
  61   1.0000      -0.393470       -10.7069
  62   1.0000      -0.389472       -10.5981
  63   1.0000      -0.387652       -10.5485
  64   1.0000      -0.367202        -9.9921
  65   0.0000      -0.070854        -1.9280
  66   0.0000      -0.055785        -1.5180
  67   0.0000       0.007967         0.2168
  68   0.0000       0.028226         0.7681
  69   0.0000       0.033826         0.9204

----------------------------------------------------------------------------------------------------
          SPIN FLIP ABSORPTION SPECTRUM VIA TRANSITION ELECTRIC DIPOLE MOMENTS
----------------------------------------------------------------------------------------------------
     Transition      Energy     Energy  Wavelength fosc(D2)      D2        DX        DY        DZ
                      (eV)      (cm-1)    (nm)                 (au**2)    (au)      (au)      (au)
----------------------------------------------------------------------------------------------------
  1-3A  ->  2-3A    0.088616     714.7  13991.1   0.000005452   0.00251  -0.03905   0.02869   0.01277
  1-3A  ->  3-3A    2.044179   16487.4   606.5   0.018979182   0.37897  -0.53400   0.09179   0.29220

Dispersion correction             ... done (  0.1 sec)

MULLIKEN ATOMIC CHARGES AND SPIN DENSITIES
------------------------------------------
   0 O :   -0.723538    0.152926
   1 O :   -0.652273   -0.156427
   2 O :   -0.626166    0.001534
   3 O :   -0.666081   -0.001421
   4 N :   -0.244370   -0.010942
   5 N :   -0.354574   -0.019037
   6 N :    0.065041    0.011029
   7 N :    0.042222   -0.011095
   8 C :    0.015409    0.322034
   9 C :    0.842940    0.342737
  10 C :    0.680112    0.089180
  11 C :   -0.041967   -0.503515
  12 C :   -1.622051    0.011842
  13 C :   -1.217871   -0.048931
  14 C :    0.519029    0.112912
  15 C :   -0.120674   -0.372858
  16 C :    0.379205   -0.012764
  17 C :    0.419554    0.011277
  18 H :    0.596259    0.042371
  19 H :    0.621795   -0.017425
  20 H :    0.390263    0.012649
  21 H :    0.264750    0.032804
  22 H :    0.404042    0.006638
  23 H :    0.305841   -0.013822
  24 H :    0.338807    0.014275
  25 H :    0.208565    0.012867
  26 H :    0.032335   -0.007845
  27 H :    0.103079    0.002865
  28 H :   -0.010667   -0.007765
  29 H :    0.050983    0.003903
Sum of atomic charges       :    0.0000000

LOEWDIN ATOMIC CHARGES AND SPIN DENSITIES
-----------------------------------------
   0 O :    0.040431    0.128605
   1 O :    0.086237   -0.141006
   2 O :    0.118187    0.000834
   3 O :    0.073277   -0.001393
   4 N :    0.274169   -0.002457
   5 N :    0.274306   -0.002000
   6 N :    0.351181    0.011692
   7 N :    0.326566   -0.013391
   8 C :   -0.058352    0.414117
   9 C :    0.010757   -0.418126
  10 C :   -0.102853    0.019933
  11 C :   -0.126424   -0.024366
  12 C :    0.187183    0.070031
  13 C :    0.216657   -0.058259
  14 C :   -0.372411    0.071790
  15 C :   -0.367144   -0.070548
  16 C :   -0.462988   -0.002032
  17 C :   -0.523968   -0.000158
  18 H :    0.053491    0.004634
  19 H :    0.040449   -0.004095
  20 H :   -0.020100    0.005769
  21 H :    0.084666    0.034205
  22 H :   -0.042517    0.004301
  23 H :    0.008368    0.001285
  24 H :    0.041460   -0.016634
  25 H :   -0.062347   -0.013232
  26 H :   -0.016413   -0.000054
  27 H :   -0.012672   -0.000189
  28 H :   -0.026402    0.001680
  29 H :    0.007205   -0.000936

  Mayer bond orders larger than 0.100000
B(  0-O , 14-C ) :   1.3161 B(  1-O , 15-C ) :   1.3891 B(  2-O , 16-C ) :   1.5772
B(  3-O , 17-C ) :   1.5729 B(  4-N ,  8-C ) :   0.2861 B(  4-N ,  9-C ) :   0.1602
B(  4-N , 10-C ) :   0.3531 B(  4-N , 16-C ) :   0.9828 B(  4-N , 26-H ) :   1.1119
B(  5-N ,  9-C ) :   0.2849 B(  5-N , 11-C ) :  -0.1848 B(  5-N , 17-C ) :   1.2212
B(  5-N , 19-H ) :  -0.1492 B(  5-N , 27-H ) :   1.0341 B(  6-N ,  8-C ) :  -0.2035
B(  6-N , 10-C ) :   0.1318 B(  6-N , 14-C ) :   1.1134 B(  6-N , 16-C ) :   0.9296
B(  6-N , 28-H ) :   1.1460 B(  7-N ,  9-C ) :  -0.1143 B(  7-N , 11-C ) :   0.1189
B(  7-N , 15-C ) :   1.0238 B(  7-N , 17-C ) :   0.9605 B(  7-N , 29-H ) :   1.1116
B(  8-C ,  9-C ) :   0.1312 B(  8-C , 11-C ) :   0.4102 B(  8-C , 12-C ) :   0.3030
B(  8-C , 14-C ) :   0.7861 B(  8-C , 16-C ) :   0.1309 B(  8-C , 18-H ) :  -0.3015
B(  8-C , 20-H ) :  -0.1046 B(  8-C , 22-H ) :  -0.1276 B(  9-C , 11-C ) :   0.2785
B(  9-C , 13-C ) :   0.4732 B(  9-C , 15-C ) :   0.2589 B(  9-C , 19-H ) :  -0.1317
B( 10-C , 11-C ) :   0.5436 B( 10-C , 12-C ) :  -0.1960 B( 10-C , 16-C ) :  -0.1483
B( 10-C , 18-H ) :   0.8606 B( 11-C , 13-C ) :  -0.1594 B( 11-C , 15-C ) :   0.1253
B( 11-C , 17-C ) :  -0.2141 B( 11-C , 18-H ) :  -0.1338 B( 11-C , 19-H ) :   0.7340
B( 12-C , 20-H ) :   0.8986 B( 12-C , 21-H ) :   0.8682 B( 12-C , 22-H ) :   1.0384
B( 13-C , 15-C ) :  -0.1082 B( 13-C , 23-H ) :   1.0177 B( 13-C , 24-H ) :   0.9512
B( 13-C , 25-H ) :   0.8591

Dispersion correction           -0.060792589
FINAL SINGLE POINT ENERGY      -908.776148307058

DIPOLE MOMENT
-------------

Method             : TDA/CIS
Type of density    : Electron Density
Level              : Relaxed density
State              :   2
Multiplicity       :   3
Irrep              :   0
Energy             :     0.0000000000000000 Eh
Relativity type    :
Basis              : AO
                                X                 Y                 Z
Electronic contribution:     -9.862386458      -6.178018618       0.097619108
Nuclear contribution   :     11.797598637       7.154279481       1.252092706
                        -----------------------------------------
Total Dipole Moment    :      1.935212179       0.976260863       1.349711813
                        -----------------------------------------
Magnitude (a.u.)       :      2.553400366
Magnitude (Debye)      :      6.490227943

Rotational constants in cm-1:             0.021942             0.012870             0.012190
Rotational constants in MHz :           657.801367           385.831797           365.455420

                             ****ORCA TERMINATED NORMALLY****
TOTAL RUN TIME: 0 days 0 hours 4 minutes 52 seconds 383 msec
