                         Program Version 6.0.0  -   RELEASE  -
|  1> ! Engrad def2-TZVPPD wB97M-D3BJ
|  2> %pal nprocs 8 end%pal nprocs 64 end
|  3> %tddft Nroots 2 Iroot 2
|  4> sf true
|  5> end
|  6> *xyz 0 3
|  7> O   3.26760565 0.57917976 -0.7705886
|  8> O   -1.09195604 1.29022286 -2.48877643
|  9> O   0.58820104 -3.00127855 -0.65296602
| 10> O   -3.30182307 -1.63148046 0.00947752
| 11> N   0.33230547 -1.50154984 1.08956141
| 12> N   -2.01407443 -0.02320182 1.15806078
| 13> N   1.90950038 -1.24561459 -0.62378551
| 14> N   -1.80690638 -0.40072724 -1.11690021
| 15> C   1.7121749 0.44996269 1.04707871
| 16> C   -0.68554556 1.54552746 -0.10568747
| 17> C   0.46503752 -0.16613918 1.56868268
| 18> C   -0.81895879 0.81053368 1.18855874
| 19> C   2.27834494 1.76195968 1.60210586
| 20> C   -0.28413377 3.00443972 -0.15322282
| 21> C   2.39976334 -0.02915323 -0.14479304
| 22> C   -1.20518772 0.9138894 -1.31967777
| 23> C   0.87574748 -1.95142071 -0.11487677
| 24> C   -2.46654558 -0.73265599 0.01810822
| 25> H   0.44134836 -0.25181349 2.62504339
| 26> H   -0.86806665 1.53607039 1.98458137
| 27> H   2.1764815 2.48048703 0.81525753
| 28> H   1.74415328 2.21651777 2.48615369
| 29> H   3.36195112 1.65996091 1.78803058
| 30> H   -1.20529207 3.59531752 -0.34647127
| 31> H   0.1191951 3.28210524 0.79575121
| 32> H   0.3592835 3.24800633 -1.02747307
| 33> H   -0.52478677 -2.01486389 1.23600619
| 34> H   -2.73027113 -0.0013153 1.88641302
| 35> H   2.38172888 -1.56709776 -1.48551546
| 36> H   -1.97399766 -1.01895739 -1.88213259
| 37> *
| 38>
| 39>                          ****END OF INPUT****

CARTESIAN COORDINATES (ANGSTROEM)
---------------------------------
  O      3.267606    0.579180   -0.770589
  O     -1.091956    1.290223   -2.488776
  O      0.588201   -3.001279   -0.652966
  O     -3.301823   -1.631480    0.009478
  N      0.332305   -1.501550    1.089561
  N     -2.014074   -0.023202    1.158061
  N      1.909500   -1.245615   -0.623786
  N     -1.806906   -0.400727   -1.116900
  C      1.712175    0.449963    1.047079
  C     -0.685546    1.545527   -0.105687
  C      0.465038   -0.166139    1.568683
  C     -0.818959    0.810534    1.188559
  C      2.278345    1.761960    1.602106
  C     -0.284134    3.004440   -0.153223
  C      2.399763   -0.029153   -0.144793
  C     -1.205188    0.913889   -1.319678
  C      0.875747   -1.951421   -0.114877
  C     -2.466546   -0.732656    0.018108
  H      0.441348   -0.251813    2.625043
  H     -0.868067    1.536070    1.984581
  H      2.176481    2.480487    0.815258
  H      1.744153    2.216518    2.486154
  H      3.361951    1.659961    1.788031
  H     -1.205292    3.595318   -0.346471
  H      0.119195    3.282105    0.795751
  H      0.359283    3.248006   -1.027473
  H     -0.524787   -2.014864    1.236006
  H     -2.730271   -0.001315    1.886413
  H      2.381729   -1.567098   -1.485515
  H     -1.973998   -1.018957   -1.882133

 Total Charge           Charge          ....    0
 Multiplicity           Mult            ....    3
 Number of Electrons    NEL             ....  132
 Basis Dimension        Dim             ....  882

ORBITAL ENERGIES
----------------
                 SPIN UP ORBITALS
  NO   OCC          E(Eh)            E(eV)
   0   1.0000     -19.346354      -526.4410
   1   1.0000     -19.335724      -526.1518
   2   1.0000     -19.320481      -525.7370
   3   1.0000     -19.312139      -525.5100
   4   1.0000     -14.565836      -396.3565
   5   1.0000     -14.562441      -396.2642
   6   1.0000     -14.557521      -396.1303
   7   1.0000     -14.556681      -396.1074
   8   1.0000     -10.505022      -285.8562
   9   1.0000     -10.499119      -285.6956
  10   1.0000     -10.493705      -285.5482
  11   1.0000     -10.483917      -285.2819
  12   1.0000     -10.455402      -284.5060
  13   1.0000     -10.446162      -284.2545
  14   1.0000     -10.431327      -283.8508
  15   1.0000     -10.424833      -283.6741
  16   1.0000     -10.385970      -282.6166
  17   1.0000     -10.382496      -282.5221
  18   1.0000      -1.216872       -33.1128
  19   1.0000      -1.211396       -32.9638
  20   1.0000      -1.190665       -32.3996
  21   1.0000      -1.189590       -32.3704
  22   1.0000      -1.114381       -30.3238
  23   1.0000      -1.093196       -29.7474
  24   1.0000      -1.063572       -28.9413
  25   1.0000      -1.049590       -28.5608
  26   1.0000      -0.979964       -26.6662
  27   1.0000      -0.951783       -25.8993
  28   1.0000      -0.887003       -24.1366
  29   1.0000      -0.841989       -22.9117
  30   1.0000      -0.831507       -22.6265
  31   1.0000      -0.804486       -21.8912
  32   1.0000      -0.784504       -21.3474
  33   1.0000      -0.770059       -20.9544
  34   1.0000      -0.696468       -18.9519
  35   1.0000      -0.694886       -18.9088
  36   1.0000      -0.685308       -18.6482
  37   1.0000      -0.668106       -18.1801
  38   1.0000      -0.658553       -17.9201
  39   1.0000      -0.648269       -17.6403
  40   1.0000      -0.623637       -16.9700
  41   1.0000      -0.598644       -16.2899
  42   1.0000      -0.591451       -16.0942
  43   1.0000      -0.584187       -15.8965
  44   1.0000      -0.575686       -15.6652
  45   1.0000      -0.570854       -15.5337
  46   1.0000      -0.563316       -15.3286
  47   1.0000      -0.558884       -15.2080
  48   1.0000      -0.556947       -15.1553
  49   1.0000      -0.549149       -14.9431
  50   1.0000      -0.548231       -14.9181
  51   1.0000      -0.537630       -14.6297
  52   1.0000      -0.529169       -14.3994
  53   1.0000      -0.522762       -14.2251
  54   1.0000      -0.515418       -14.0252
  55   1.0000      -0.511213       -13.9108
  56   1.0000      -0.503317       -13.6960
  57   1.0000      -0.424915       -11.5625
  58   1.0000      -0.420474       -11.4417
  59   1.0000      -0.408111       -11.1053
  60   1.0000      -0.403304       -10.9744
  61   1.0000      -0.398260       -10.8372
  62   1.0000      -0.392733       -10.6868
  63   1.0000      -0.389396       -10.5960
  64   1.0000      -0.383804       -10.4438
  65   1.0000      -0.341317        -9.2877
  66   1.0000      -0.334800        -9.1104
  67   0.0000       0.005732         0.1560
  68   0.0000       0.028412         0.7731
  69   0.0000       0.031236         0.8500
  70   0.0000       0.035991         0.9794
  71   0.0000       0.054474         1.4823

                 SPIN DOWN ORBITALS
  NO   OCC          E(Eh)            E(eV)
   0   1.0000     -19.341405      -526.3064
   1   1.0000     -19.331842      -526.0462
   2   1.0000     -19.320205      -525.7295
   3   1.0000     -19.311980      -525.5057
   4   1.0000     -14.565206      -396.3394
   5   1.0000     -14.561660      -396.2429
   6   1.0000     -14.557249      -396.1229
   7   1.0000     -14.556532      -396.1034
   8   1.0000     -10.505061      -285.8572
   9   1.0000     -10.499181      -285.6972
  10   1.0000     -10.494818      -285.5785
  11   1.0000     -10.484808      -285.3061
  12   1.0000     -10.454573      -284.4834
  13   1.0000     -10.445857      -284.2462
  14   1.0000     -10.420184      -283.5476
  15   1.0000     -10.413439      -283.3641
  16   1.0000     -10.386422      -282.6289
  17   1.0000     -10.383001      -282.5358
  18   1.0000      -1.215125       -33.0652
  19   1.0000      -1.208879       -32.8953
  20   1.0000      -1.185439       -32.2574
  21   1.0000      -1.184829       -32.2408
  22   1.0000      -1.111640       -30.2493
  23   1.0000      -1.090788       -29.6819
  24   1.0000      -1.061665       -28.8894
  25   1.0000      -1.048031       -28.5184
  26   1.0000      -0.966011       -26.2865
  27   1.0000      -0.934832       -25.4381
  28   1.0000      -0.881877       -23.9971
  29   1.0000      -0.837356       -22.7856
  30   1.0000      -0.822614       -22.3845
  31   1.0000      -0.798715       -21.7341
  32   1.0000      -0.782828       -21.3018
  33   1.0000      -0.768439       -20.9103
  34   1.0000      -0.691018       -18.8036
  35   1.0000      -0.689513       -18.7626
  36   1.0000      -0.679327       -18.4854
  37   1.0000      -0.661711       -18.0061
  38   1.0000      -0.651246       -17.7213
  39   1.0000      -0.641970       -17.4689
  40   1.0000      -0.615132       -16.7386
  41   1.0000      -0.594701       -16.1826
  42   1.0000      -0.585134       -15.9223
  43   1.0000      -0.574266       -15.6266
  44   1.0000      -0.568907       -15.4807
  45   1.0000      -0.564489       -15.3605
  46   1.0000      -0.556179       -15.1344
  47   1.0000      -0.553676       -15.0663
  48   1.0000      -0.552630       -15.0378
  49   1.0000      -0.544498       -14.8166
  50   1.0000      -0.535437       -14.5700
  51   1.0000      -0.531410       -14.4604
  52   1.0000      -0.521256       -14.1841
  53   1.0000      -0.516492       -14.0545
  54   1.0000      -0.504246       -13.7212
  55   1.0000      -0.502612       -13.6768
  56   1.0000      -0.496374       -13.5070
  57   1.0000      -0.420109       -11.4317
  58   1.0000      -0.414429       -11.2772
  59   1.0000      -0.403068       -10.9680
  60   1.0000      -0.387860       -10.5542
  61   1.0000      -0.387722       -10.5505
  62   1.0000      -0.385512       -10.4903
  63   1.0000      -0.385025       -10.4771
  64   1.0000      -0.374843       -10.2000
  65   0.0000      -0.069106        -1.8805
  66   0.0000      -0.056439        -1.5358
  67   0.0000       0.005393         0.1467
  68   0.0000       0.028351         0.7715
  69   0.0000       0.031095         0.8461

----------------------------------------------------------------------------------------------------
          SPIN FLIP ABSORPTION SPECTRUM VIA TRANSITION ELECTRIC DIPOLE MOMENTS
----------------------------------------------------------------------------------------------------
     Transition      Energy     Energy  Wavelength fosc(D2)      D2        DX        DY        DZ
                      (eV)      (cm-1)    (nm)                 (au**2)    (au)      (au)      (au)
----------------------------------------------------------------------------------------------------
  1-3A  ->  2-3A    0.005384      43.4  230284.3   0.000000064   0.00049   0.00043  -0.01268   0.01806

Dispersion correction             ... done (  0.1 sec)

MULLIKEN ATOMIC CHARGES AND SPIN DENSITIES
------------------------------------------
   0 O :   -0.679686    0.145531
   1 O :   -0.672811   -0.183232
   2 O :   -0.666074    0.003290
   3 O :   -0.659928   -0.004792
   4 N :   -0.251540    0.015014
   5 N :   -0.281151    0.001174
   6 N :   -0.045322    0.025061
   7 N :    0.098509   -0.013148
   8 C :   -0.116922    0.443819
   9 C :    1.461800    0.340322
  10 C :    0.100801    0.022522
  11 C :   -0.059696   -0.471285
  12 C :   -1.378035   -0.005402
  13 C :   -1.654786    0.084010
  14 C :    0.741459    0.074808
  15 C :   -0.175412   -0.523432
  16 C :    0.461172   -0.007527
  17 C :    0.344678    0.031726
  18 H :    0.561104    0.044183
  19 H :    0.538084   -0.022749
  20 H :    0.304962    0.034284
  21 H :    0.293997    0.001400
  22 H :    0.372181    0.021876
  23 H :    0.395076   -0.034391
  24 H :    0.422375    0.000312
  25 H :    0.284685   -0.023420
  26 H :    0.106079   -0.000212
  27 H :    0.067980   -0.002568
  28 H :    0.061827   -0.002685
  29 H :    0.024594    0.005510
Sum of atomic charges       :    0.0000000

LOEWDIN ATOMIC CHARGES AND SPIN DENSITIES
-----------------------------------------
   0 O :    0.084066    0.124432
   1 O :    0.071563   -0.160112
   2 O :    0.084839    0.003295
   3 O :    0.072083   -0.004523
   4 N :    0.282435   -0.006603
   5 N :    0.256204   -0.005261
   6 N :    0.307736    0.023404
   7 N :    0.320881   -0.012533
   8 C :   -0.010081    0.496745
   9 C :    0.006255   -0.464617
  10 C :   -0.092061    0.030125
  11 C :   -0.084166   -0.013259
  12 C :    0.185764    0.061813
  13 C :    0.192778   -0.066175
  14 C :   -0.382363    0.077866
  15 C :   -0.343328   -0.083913
  16 C :   -0.492550   -0.000309
  17 C :   -0.490421   -0.000294
  18 H :    0.027830    0.007505
  19 H :    0.039058   -0.001894
  20 H :   -0.040379    0.018119
  21 H :    0.025119   -0.000908
  22 H :    0.014296    0.015893
  23 H :    0.029071   -0.026433
  24 H :   -0.039277    0.000626
  25 H :    0.031264   -0.012939
  26 H :   -0.038130   -0.000468
  27 H :   -0.021549   -0.000183
  28 H :    0.025258    0.001677
  29 H :   -0.022196   -0.001075

  Mayer bond orders larger than 0.100000
B(  0-O , 14-C ) :   1.3010 B(  1-O , 15-C ) :   1.3585 B(  2-O , 16-C ) :   1.5093
B(  3-O , 17-C ) :   1.5542 B(  4-N ,  8-C ) :   0.2066 B(  4-N , 10-C ) :   0.4356
B(  4-N , 16-C ) :   0.9954 B(  4-N , 26-H ) :   1.0331 B(  5-N ,  9-C ) :   0.1859
B(  5-N , 10-C ) :   0.2004 B(  5-N , 11-C ) :   0.2327 B(  5-N , 17-C ) :   1.1007
B(  5-N , 27-H ) :   1.1025 B(  6-N , 14-C ) :   1.0340 B(  6-N , 16-C ) :   0.9683
B(  6-N , 28-H ) :   1.0881 B(  7-N , 11-C ) :   0.1640 B(  7-N , 15-C ) :   0.9285
B(  7-N , 17-C ) :   1.0274 B(  7-N , 29-H ) :   1.1001 B(  8-C ,  9-C ) :   0.1011
B(  8-C , 10-C ) :   0.1389 B(  8-C , 11-C ) :   0.2655 B(  8-C , 12-C ) :   0.3609
B(  8-C , 14-C ) :   0.8137 B(  8-C , 16-C ) :   0.1524 B(  8-C , 18-H ) :  -0.2644
B(  8-C , 21-H ) :  -0.1121 B(  9-C , 11-C ) :   0.2058 B(  9-C , 13-C ) :   0.2866
B(  9-C , 15-C ) :   0.3379 B(  9-C , 24-H ) :  -0.1095 B(  9-C , 25-H ) :  -0.1220
B( 10-C , 11-C ) :   0.6238 B( 10-C , 16-C ) :  -0.1602 B( 10-C , 18-H ) :   0.8417
B( 11-C , 13-C ) :  -0.1672 B( 11-C , 15-C ) :   0.2434 B( 11-C , 17-C ) :  -0.2560
B( 11-C , 19-H ) :   0.7848 B( 12-C , 20-H ) :   0.9356 B( 12-C , 21-H ) :   1.0556
B( 12-C , 22-H ) :   0.9170 B( 13-C , 23-H ) :   0.8226 B( 13-C , 24-H ) :   0.9099
B( 13-C , 25-H ) :   1.0670 B( 15-C , 17-C ) :  -0.1279

Dispersion correction           -0.058181913
FINAL SINGLE POINT ENERGY      -908.778517988505

DIPOLE MOMENT
-------------

Method             : TDA/CIS
Type of density    : Electron Density
Level              : Relaxed density
State              :   2
Multiplicity       :   3
Irrep              :   0
Energy             :     0.0000000000000000 Eh
Relativity type    :
Basis              : AO
                                X                 Y                 Z
Electronic contribution:     -2.943396364     -10.604132730      -5.869828886
Nuclear contribution   :      3.068714939      12.652481773       8.421231655
                        -----------------------------------------
Total Dipole Moment    :      0.125318575       2.048349043       2.551402770
                        -----------------------------------------
Magnitude (a.u.)       :      3.274308269
Magnitude (Debye)      :      8.322630209

Rotational constants in cm-1:             0.019162             0.014286             0.011744
Rotational constants in MHz :           574.459661           428.282862           352.090831

                             ****ORCA TERMINATED NORMALLY****
TOTAL RUN TIME: 0 days 0 hours 4 minutes 41 seconds 58 msec
