                         Program Version 6.0.0  -   RELEASE  -
|  1> ! Engrad def2-TZVPPD wB97M-D3BJ
|  2> %pal nprocs 8 end%pal nprocs 64 end
|  3> %tddft
|  4>  Iroot 1 Nroots 3
|  5> sf true
|  6> end
|  7> *xyz 0 3
|  8> O   2.75646228 -0.96147601 -2.48609679
|  9> O   -2.51515079 1.38896668 -1.25746458
| 10> O   -1.27828047 -2.45608498 -1.08559873
| 11> O   -2.43818866 0.82683245 3.1419529
| 12> N   0.10662128 -1.54785379 0.44769889
| 13> N   -0.36480372 0.99734142 2.16895021
| 14> N   0.79453039 -1.74134267 -1.74736708
| 15> N   -2.48226229 0.9519688 0.9128358
| 16> C   2.23597552 -0.50698987 -0.1974075
| 17> C   -0.32770795 1.28943841 -0.22929115
| 18> C   1.09718252 -0.47895239 0.74527558
| 19> C   0.45535872 0.94563293 0.94110301
| 20> C   3.66485844 -0.31676746 0.20696444
| 21> C   0.40325463 1.72112982 -1.48845814
| 22> C   1.95247822 -1.07595517 -1.51649922
| 23> C   -1.79322513 1.2580629 -0.26237997
| 24> C   -0.24559437 -1.91374244 -0.82049864
| 25> C   -1.79649817 0.85286445 2.12349298
| 26> H   1.44471168 -0.64156682 1.73386207
| 27> H   1.27224134 1.60190392 1.05284429
| 28> H   4.10531082 -1.2731835 0.47558339
| 29> H   4.36197243 0.09445322 -0.57939991
| 30> H   3.63185369 0.34251048 1.10008057
| 31> H   -0.09713115 2.59209813 -1.89950644
| 32> H   1.40231197 2.04162061 -1.12074224
| 33> H   0.33602119 0.9432399 -2.2244048
| 34> H   -0.6641791 -1.43123262 1.04961158
| 35> H   0.00056718 1.30309231 3.09885374
| 36> H   0.56233764 -2.0825914 -2.65345068
| 37> H   -3.44937693 0.91977725 0.8397584
| 38> *
| 39>
| 40>                          ****END OF INPUT****

CARTESIAN COORDINATES (ANGSTROEM)
---------------------------------
  O      2.756462   -0.961476   -2.486097
  O     -2.515151    1.388967   -1.257465
  O     -1.278280   -2.456085   -1.085599
  O     -2.438189    0.826832    3.141953
  N      0.106621   -1.547854    0.447699
  N     -0.364804    0.997341    2.168950
  N      0.794530   -1.741343   -1.747367
  N     -2.482262    0.951969    0.912836
  C      2.235976   -0.506990   -0.197407
  C     -0.327708    1.289438   -0.229291
  C      1.097183   -0.478952    0.745276
  C      0.455359    0.945633    0.941103
  C      3.664858   -0.316767    0.206964
  C      0.403255    1.721130   -1.488458
  C      1.952478   -1.075955   -1.516499
  C     -1.793225    1.258063   -0.262380
  C     -0.245594   -1.913742   -0.820499
  C     -1.796498    0.852864    2.123493
  H      1.444712   -0.641567    1.733862
  H      1.272241    1.601904    1.052844
  H      4.105311   -1.273184    0.475583
  H      4.361972    0.094453   -0.579400
  H      3.631854    0.342510    1.100081
  H     -0.097131    2.592098   -1.899506
  H      1.402312    2.041621   -1.120742
  H      0.336021    0.943240   -2.224405
  H     -0.664179   -1.431233    1.049612
  H      0.000567    1.303092    3.098854
  H      0.562338   -2.082591   -2.653451
  H     -3.449377    0.919777    0.839758

 Total Charge           Charge          ....    0
 Multiplicity           Mult            ....    3
 Number of Electrons    NEL             ....  132
 Basis Dimension        Dim             ....  882

ORBITAL ENERGIES
----------------
                 SPIN UP ORBITALS
  NO   OCC          E(Eh)            E(eV)
   0   1.0000     -19.333424      -526.0892
   1   1.0000     -19.328079      -525.9438
   2   1.0000     -19.326698      -525.9062
   3   1.0000     -19.324328      -525.8417
   4   1.0000     -14.572210      -396.5300
   5   1.0000     -14.567553      -396.4033
   6   1.0000     -14.565761      -396.3545
   7   1.0000     -14.560303      -396.2060
   8   1.0000     -10.515058      -286.1293
   9   1.0000     -10.506550      -285.8978
  10   1.0000     -10.484385      -285.2946
  11   1.0000     -10.483869      -285.2806
  12   1.0000     -10.447798      -284.2990
  13   1.0000     -10.442592      -284.1574
  14   1.0000     -10.425695      -283.6976
  15   1.0000     -10.424423      -283.6630
  16   1.0000     -10.388056      -282.6734
  17   1.0000     -10.377320      -282.3812
  18   1.0000      -1.226575       -33.3768
  19   1.0000      -1.221102       -33.2279
  20   1.0000      -1.192307       -32.4443
  21   1.0000      -1.181319       -32.1453
  22   1.0000      -1.116772       -30.3889
  23   1.0000      -1.093215       -29.7479
  24   1.0000      -1.068758       -29.0824
  25   1.0000      -1.056407       -28.7463
  26   1.0000      -0.985307       -26.8116
  27   1.0000      -0.960582       -26.1388
  28   1.0000      -0.891816       -24.2675
  29   1.0000      -0.845091       -22.9961
  30   1.0000      -0.828191       -22.5362
  31   1.0000      -0.807847       -21.9826
  32   1.0000      -0.787816       -21.4376
  33   1.0000      -0.778761       -21.1912
  34   1.0000      -0.706656       -19.2291
  35   1.0000      -0.696548       -18.9540
  36   1.0000      -0.692253       -18.8372
  37   1.0000      -0.688669       -18.7396
  38   1.0000      -0.653852       -17.7922
  39   1.0000      -0.644090       -17.5266
  40   1.0000      -0.631396       -17.1812
  41   1.0000      -0.605199       -16.4683
  42   1.0000      -0.599416       -16.3109
  43   1.0000      -0.591953       -16.1079
  44   1.0000      -0.572994       -15.5920
  45   1.0000      -0.571130       -15.5412
  46   1.0000      -0.567668       -15.4470
  47   1.0000      -0.563324       -15.3288
  48   1.0000      -0.562722       -15.3124
  49   1.0000      -0.557726       -15.1765
  50   1.0000      -0.551421       -15.0049
  51   1.0000      -0.537481       -14.6256
  52   1.0000      -0.530414       -14.4333
  53   1.0000      -0.519455       -14.1351
  54   1.0000      -0.511658       -13.9229
  55   1.0000      -0.506475       -13.7819
  56   1.0000      -0.505469       -13.7545
  57   1.0000      -0.425645       -11.5824
  58   1.0000      -0.419373       -11.4117
  59   1.0000      -0.409525       -11.1437
  60   1.0000      -0.405480       -11.0337
  61   1.0000      -0.402379       -10.9493
  62   1.0000      -0.395268       -10.7558
  63   1.0000      -0.388352       -10.5676
  64   1.0000      -0.385540       -10.4911
  65   1.0000      -0.356962        -9.7134
  66   1.0000      -0.328573        -8.9409
  67   0.0000       0.006019         0.1638
  68   0.0000       0.028961         0.7881
  69   0.0000       0.033564         0.9133
  70   0.0000       0.034380         0.9355
  71   0.0000       0.053518         1.4563

                 SPIN DOWN ORBITALS
  NO   OCC          E(Eh)            E(eV)
   0   1.0000     -19.328884      -525.9657
   1   1.0000     -19.326671      -525.9055
   2   1.0000     -19.324243      -525.8394
   3   1.0000     -19.323735      -525.8256
   4   1.0000     -14.572060      -396.5259
   5   1.0000     -14.567133      -396.3918
   6   1.0000     -14.565316      -396.3424
   7   1.0000     -14.560117      -396.2009
   8   1.0000     -10.515092      -286.1302
   9   1.0000     -10.506594      -285.8990
  10   1.0000     -10.485470      -285.3241
  11   1.0000     -10.485007      -285.3115
  12   1.0000     -10.447324      -284.2861
  13   1.0000     -10.441991      -284.1410
  14   1.0000     -10.414086      -283.3817
  15   1.0000     -10.413078      -283.3542
  16   1.0000     -10.388602      -282.6882
  17   1.0000     -10.377701      -282.3916
  18   1.0000      -1.226005       -33.3613
  19   1.0000      -1.220088       -33.2003
  20   1.0000      -1.186864       -32.2962
  21   1.0000      -1.176161       -32.0050
  22   1.0000      -1.113569       -30.3018
  23   1.0000      -1.090527       -29.6748
  24   1.0000      -1.066380       -29.0177
  25   1.0000      -1.054779       -28.7020
  26   1.0000      -0.972869       -26.4731
  27   1.0000      -0.943103       -25.6631
  28   1.0000      -0.885169       -24.0867
  29   1.0000      -0.839751       -22.8508
  30   1.0000      -0.819820       -22.3084
  31   1.0000      -0.803238       -21.8572
  32   1.0000      -0.786013       -21.3885
  33   1.0000      -0.777330       -21.1522
  34   1.0000      -0.700179       -19.0528
  35   1.0000      -0.690869       -18.7995
  36   1.0000      -0.686108       -18.6700
  37   1.0000      -0.682721       -18.5778
  38   1.0000      -0.644587       -17.5401
  39   1.0000      -0.638176       -17.3656
  40   1.0000      -0.625782       -17.0284
  41   1.0000      -0.599898       -16.3241
  42   1.0000      -0.592921       -16.1342
  43   1.0000      -0.587722       -15.9927
  44   1.0000      -0.566752       -15.4221
  45   1.0000      -0.562688       -15.3115
  46   1.0000      -0.559784       -15.2325
  47   1.0000      -0.557907       -15.1814
  48   1.0000      -0.555982       -15.1290
  49   1.0000      -0.550194       -14.9715
  50   1.0000      -0.544018       -14.8035
  51   1.0000      -0.529520       -14.4090
  52   1.0000      -0.521186       -14.1822
  53   1.0000      -0.511480       -13.9181
  54   1.0000      -0.506222       -13.7750
  55   1.0000      -0.501364       -13.6428
  56   1.0000      -0.496087       -13.4992
  57   1.0000      -0.423030       -11.5112
  58   1.0000      -0.416348       -11.3294
  59   1.0000      -0.406499       -11.0614
  60   1.0000      -0.391137       -10.6434
  61   1.0000      -0.390914       -10.6373
  62   1.0000      -0.387354       -10.5404
  63   1.0000      -0.383787       -10.4434
  64   1.0000      -0.378707       -10.3051
  65   0.0000      -0.070392        -1.9155
  66   0.0000      -0.049944        -1.3591
  67   0.0000       0.005731         0.1560
  68   0.0000       0.029600         0.8055
  69   0.0000       0.033200         0.9034

----------------------------------------------------------------------------------------------------
          SPIN FLIP ABSORPTION SPECTRUM VIA TRANSITION ELECTRIC DIPOLE MOMENTS
----------------------------------------------------------------------------------------------------
     Transition      Energy     Energy  Wavelength fosc(D2)      D2        DX        DY        DZ
                      (eV)      (cm-1)    (nm)                 (au**2)    (au)      (au)      (au)
----------------------------------------------------------------------------------------------------
  1-3A  ->  2-3A    0.139970    1128.9  8857.9   0.000046031   0.01342   0.09064  -0.04034  -0.05983
  1-3A  ->  3-3A    2.121865   17114.0   584.3   0.000241329   0.00464  -0.00234  -0.01609   0.06617

Dispersion correction             ... done (  0.1 sec)

MULLIKEN ATOMIC CHARGES AND SPIN DENSITIES
------------------------------------------
   0 O :   -0.717590    0.035856
   1 O :   -0.709456   -0.036261
   2 O :   -0.618825   -0.001400
   3 O :   -0.633937   -0.000176
   4 N :   -0.336020   -0.013713
   5 N :   -0.234670    0.003495
   6 N :    0.044217    0.003273
   7 N :    0.078439   -0.004851
   8 C :    0.344600    0.408296
   9 C :    0.837932    0.409955
  10 C :    0.548137   -0.179279
  11 C :   -0.134697   -0.278677
  12 C :   -1.491767    0.023341
  13 C :   -1.541489    0.003722
  14 C :    0.180073   -0.114014
  15 C :    0.186519   -0.296864
  16 C :    0.404780    0.002502
  17 C :    0.343829    0.019775
  18 H :    0.594318    0.006284
  19 H :    0.668850   -0.018792
  20 H :    0.329623    0.010975
  21 H :    0.294503    0.003958
  22 H :    0.346712    0.004552
  23 H :    0.432128    0.000680
  24 H :    0.362395   -0.001810
  25 H :    0.259784    0.005203
  26 H :    0.057018   -0.000345
  27 H :    0.109698   -0.000710
  28 H :    0.010078    0.001679
  29 H :   -0.015183    0.003346
Sum of atomic charges       :    0.0000000

LOEWDIN ATOMIC CHARGES AND SPIN DENSITIES
-----------------------------------------
   0 O :    0.033249    0.031123
   1 O :    0.069258   -0.030476
   2 O :    0.120053   -0.001189
   3 O :    0.081594   -0.000416
   4 N :    0.317283   -0.000376
   5 N :    0.269946   -0.000320
   6 N :    0.332796    0.001528
   7 N :    0.341773   -0.006034
   8 C :   -0.036678    0.115978
   9 C :   -0.007684   -0.095192
  10 C :   -0.085082    0.001669
  11 C :   -0.129985   -0.011372
  12 C :    0.186155    0.015961
  13 C :    0.228314   -0.011521
  14 C :   -0.397415    0.011846
  15 C :   -0.373493   -0.022097
  16 C :   -0.481117   -0.001010
  17 C :   -0.448767   -0.000364
  18 H :    0.029152    0.000329
  19 H :    0.026931   -0.002274
  20 H :    0.003143    0.006483
  21 H :    0.030792    0.002303
  22 H :    0.004271    0.000635
  23 H :    0.008450   -0.002535
  24 H :    0.019721    0.001040
  25 H :   -0.006012   -0.003436
  26 H :   -0.071877    0.000104
  27 H :    0.004137    0.000044
  28 H :   -0.017323    0.000201
  29 H :   -0.051585   -0.000633

  Mayer bond orders larger than 0.100000
B(  0-O , 14-C ) :   1.3480 B(  1-O , 15-C ) :   1.2415 B(  2-O , 16-C ) :   1.5225
B(  3-O , 17-C ) :   1.6017 B(  4-N ,  8-C ) :   0.3016 B(  4-N , 10-C ) :   0.1110
B(  4-N , 16-C ) :   1.0641 B(  4-N , 18-H ) :  -0.1574 B(  4-N , 26-H ) :   1.0454
B(  5-N ,  9-C ) :   0.1182 B(  5-N , 10-C ) :   0.1350 B(  5-N , 11-C ) :   0.4587
B(  5-N , 17-C ) :   1.1345 B(  5-N , 19-H ) :  -0.1150 B(  5-N , 27-H ) :   1.0728
B(  6-N , 10-C ) :   0.1022 B(  6-N , 14-C ) :   1.0078 B(  6-N , 16-C ) :   0.9246
B(  6-N , 28-H ) :   1.1271 B(  7-N , 15-C ) :   1.0853 B(  7-N , 17-C ) :   0.9950
B(  7-N , 29-H ) :   1.1334 B(  8-C ,  9-C ) :   0.2307 B(  8-C , 10-C ) :   0.3836
B(  8-C , 11-C ) :   0.1964 B(  8-C , 12-C ) :   0.4467 B(  8-C , 13-C ) :   0.1030
B(  8-C , 14-C ) :   0.6899 B(  8-C , 18-H ) :  -0.1646 B(  8-C , 22-H ) :  -0.1227
B(  9-C , 10-C ) :   0.1540 B(  9-C , 11-C ) :   0.6538 B(  9-C , 13-C ) :   0.1818
B(  9-C , 15-C ) :   0.5904 B(  9-C , 17-C ) :   0.1015 B(  9-C , 19-H ) :  -0.1758
B(  9-C , 24-H ) :  -0.1548 B( 10-C , 11-C ) :   0.3848 B( 10-C , 12-C ) :  -0.1902
B( 10-C , 13-C ) :  -0.1004 B( 10-C , 14-C ) :  -0.1204 B( 10-C , 18-H ) :   0.7141
B( 11-C , 17-C ) :  -0.2282 B( 11-C , 19-H ) :   0.7141 B( 12-C , 20-H ) :   0.8788
B( 12-C , 21-H ) :   0.9980 B( 12-C , 22-H ) :   0.9702 B( 13-C , 14-C ) :   0.1077
B( 13-C , 23-H ) :   0.8099 B( 13-C , 24-H ) :   1.0475 B( 13-C , 25-H ) :   0.9779
B( 15-C , 17-C ) :  -0.1245

Dispersion correction           -0.057986859
FINAL SINGLE POINT ENERGY      -908.773131950614

DIPOLE MOMENT
-------------

Method             : TDA/CIS
Type of density    : Electron Density
Level              : Relaxed density
State              :   1
Multiplicity       :   3
Irrep              :   0
Energy             :     0.0000000000000000 Eh
Relativity type    :
Basis              : AO
                                X                 Y                 Z
Electronic contribution:    -10.067696452      -3.710973588       0.199530925
Nuclear contribution   :     12.137877979       4.662278395       1.124478924
                        -----------------------------------------
Total Dipole Moment    :      2.070181527       0.951304808       1.324009849
                        -----------------------------------------
Magnitude (a.u.)       :      2.635077697
Magnitude (Debye)      :      6.697835221

Rotational constants in cm-1:             0.022959             0.011430             0.010477
Rotational constants in MHz :           688.288760           342.652745           314.103780

                             ****ORCA TERMINATED NORMALLY****
TOTAL RUN TIME: 0 days 0 hours 5 minutes 34 seconds 482 msec
