                         Program Version 6.0.0  -   RELEASE  -
|  1> ! Opt wB97M-D3BJ def2-TZVPPD
|  2> %pal nprocs 8 end %pal nprocs 64 end
|  3> %geom
|  4> Constraints
|  5>     {A 2 1 0 84.54545454545455 C }
|  6> end
|  7> MaxIter 500
|  8> end
|  9> *xyz 0 1
| 10> O   -0.0007 0.8141 0.0
| 11> C   0.7509 -0.4065 0.0
| 12> C   -0.7502 -0.4076 0.0
| 13> H   1.2625 -0.6786 0.9136
| 14> H   1.2625 -0.6787 -0.9136
| 15> H   -1.2614 -0.6806 -0.9136
| 16> H   -1.2614 -0.6805 0.9136
| 17> *
| 18>
| 19>                          ****END OF INPUT****
 Total Charge           Charge          ....    0
 Multiplicity           Mult            ....    1
 Number of Electrons    NEL             ....   24
Dispersion correction           -0.005440752
FINAL SINGLE POINT ENERGY      -153.820190293418
Dispersion correction             ... done (  0.1 sec)
Dispersion correction           -0.005471415
FINAL SINGLE POINT ENERGY      -153.833681846838
Dispersion correction             ... done (  0.1 sec)
Dispersion correction           -0.005498669
FINAL SINGLE POINT ENERGY      -153.838380856284
Dispersion correction             ... done (  0.1 sec)
FINAL SINGLE POINT ENERGY      -153.839593353446
FINAL SINGLE POINT ENERGY      -153.839892276734
FINAL SINGLE POINT ENERGY      -153.839993445297
FINAL SINGLE POINT ENERGY      -153.840025726874
FINAL SINGLE POINT ENERGY      -153.840038287242
Dispersion correction             ... done (  0.1 sec)
Dispersion correction           -0.005515325
FINAL SINGLE POINT ENERGY      -153.840044864482
Dispersion correction             ... done (  0.2 sec)
Dispersion correction           -0.005515571
FINAL SINGLE POINT ENERGY      -153.840047278346
Dispersion correction             ... done (  0.2 sec)
                    ***********************HURRAY********************

CARTESIAN COORDINATES (ANGSTROEM)
---------------------------------
  O      0.230378    0.941558   -0.001424
  C      0.650218   -0.336053   -0.000277
  C     -0.733812   -0.648887    0.000386
  H      1.207736   -0.643683    0.891100
  H      1.207823   -0.645010   -0.891097
  H     -1.280433   -0.694432   -0.927245
  H     -1.279710   -0.691893    0.928557

 Multiplicity           Mult            ....    1
 Number of Electrons    NEL             ....   24
 Basis Dimension        Dim             ....  182

ORBITAL ENERGIES
----------------

  NO   OCC          E(Eh)            E(eV)
   0   2.0000     -19.340724      -526.2879
   1   2.0000     -10.423885      -283.6483
   2   2.0000     -10.396727      -282.9093
   3   2.0000      -1.153812       -31.3968
   4   2.0000      -0.857979       -23.3468
   5   2.0000      -0.736545       -20.0424
   6   2.0000      -0.626165       -17.0388
   7   2.0000      -0.583066       -15.8660
   8   2.0000      -0.511242       -13.9116
   9   2.0000      -0.504013       -13.7149
  10   2.0000      -0.395175       -10.7533
  11   2.0000      -0.367462        -9.9991
  12   0.0000       0.004430         0.1206
  13   0.0000       0.041991         1.1426
  14   0.0000       0.060697         1.6517
  15   0.0000       0.076690         2.0868
  16   0.0000       0.099291         2.7018

MULLIKEN ATOMIC CHARGES
-----------------------
   0 O :   -0.464372
   1 C :   -0.084374
   2 C :   -0.309939
   3 H :    0.214349
   4 H :    0.214383
   5 H :    0.214938
   6 H :    0.215014
Sum of atomic charges:   -0.0000000

LOEWDIN ATOMIC CHARGES
----------------------
   0 O :   -0.020151
   1 C :   -0.312893
   2 C :    0.293669
   3 H :    0.024793
   4 H :    0.024794
   5 H :   -0.005103
   6 H :   -0.005109

  Mayer bond orders larger than 0.100000
B(  0-O ,  1-C ) :   0.6695 B(  0-O ,  2-C ) :   0.9467 B(  1-C ,  2-C ) :   0.7678
B(  1-C ,  3-H ) :   1.0507 B(  1-C ,  4-H ) :   1.0506 B(  2-C ,  5-H ) :   0.9658
B(  2-C ,  6-H ) :   0.9658

Dispersion correction           -0.005515432
FINAL SINGLE POINT ENERGY      -153.840047841849

DIPOLE MOMENT
-------------

Method             : SCF
Type of density    : Electron Density
Multiplicity       :   1
Irrep              :   0
Energy             :  -153.8345324095231490 Eh
Relativity type    :
Basis              : AO
                                X                 Y                 Z
Electronic contribution:      0.043325014       1.457250655      -0.001805229
Nuclear contribution   :     -0.349124284      -2.541677352       0.002936262
                        -----------------------------------------
Total Dipole Moment    :     -0.305799270      -1.084426697       0.001131033
                        -----------------------------------------
Magnitude (a.u.)       :      1.126719013
Magnitude (Debye)      :      2.863892133

Rotational constants in cm-1:             1.006368             0.547118             0.412273
Rotational constants in MHz :         30170.163938         16402.184175         12359.642902

                             ****ORCA TERMINATED NORMALLY****
TOTAL RUN TIME: 0 days 0 hours 2 minutes 29 seconds 796 msec
