                         Program Version 6.0.0  -   RELEASE  -
|  1> ! Opt wB97M-D3BJ def2-TZVPPD
|  2> %pal nprocs 8 end %pal nprocs 64 end
|  3> %geom
|  4> Constraints
|  5>     {A 2 1 0 100.0 C }
|  6> end
|  7> MaxIter 500
|  8> end
|  9> *xyz 0 1
| 10> O   -0.0007 0.8141 0.0
| 11> C   0.7509 -0.4065 0.0
| 12> C   -0.7502 -0.4076 0.0
| 13> H   1.2625 -0.6786 0.9136
| 14> H   1.2625 -0.6787 -0.9136
| 15> H   -1.2614 -0.6806 -0.9136
| 16> H   -1.2614 -0.6805 0.9136
| 17> *
| 18>
| 19>                          ****END OF INPUT****
 Total Charge           Charge          ....    0
 Multiplicity           Mult            ....    1
 Number of Electrons    NEL             ....   24
Dispersion correction           -0.005781733
FINAL SINGLE POINT ENERGY      -153.743112079525
Dispersion correction             ... done (  0.1 sec)
Dispersion correction           -0.005695533
FINAL SINGLE POINT ENERGY      -153.780379866099
Dispersion correction             ... done (  0.2 sec)
Dispersion correction           -0.005648778
FINAL SINGLE POINT ENERGY      -153.791576288836
Dispersion correction             ... done (  0.1 sec)
FINAL SINGLE POINT ENERGY      -153.796411315330
FINAL SINGLE POINT ENERGY      -153.797609544792
FINAL SINGLE POINT ENERGY      -153.797867931402
FINAL SINGLE POINT ENERGY      -153.797996903157
FINAL SINGLE POINT ENERGY      -153.798081237522
FINAL SINGLE POINT ENERGY      -153.798137494524
FINAL SINGLE POINT ENERGY      -153.798194540018
FINAL SINGLE POINT ENERGY      -153.798235804753
FINAL SINGLE POINT ENERGY      -153.798257024363
FINAL SINGLE POINT ENERGY      -153.798265766248
Dispersion correction             ... done (  0.1 sec)
Dispersion correction           -0.005654462
FINAL SINGLE POINT ENERGY      -153.798268745547
Dispersion correction             ... done (  0.1 sec)
Dispersion correction           -0.005655088
FINAL SINGLE POINT ENERGY      -153.798269463066
Dispersion correction             ... done (  0.2 sec)
                    ***********************HURRAY********************

CARTESIAN COORDINATES (ANGSTROEM)
---------------------------------
  O      0.410765    1.052503   -0.002848
  C      0.616403   -0.270253   -0.000517
  C     -0.744695   -0.734576    0.000848
  H      1.168162   -0.628096    0.881926
  H      1.167713   -0.631371   -0.881888
  H     -1.308644   -0.755279   -0.922080
  H     -1.307505   -0.751328    0.924558

 Multiplicity           Mult            ....    1
 Number of Electrons    NEL             ....   24
 Basis Dimension        Dim             ....  182

ORBITAL ENERGIES
----------------

  NO   OCC          E(Eh)            E(eV)
   0   2.0000     -19.329724      -525.9885
   1   2.0000     -10.445402      -284.2338
   2   2.0000     -10.397155      -282.9210
   3   2.0000      -1.128499       -30.7080
   4   2.0000      -0.882645       -24.0180
   5   2.0000      -0.733622       -19.9629
   6   2.0000      -0.624882       -17.0039
   7   2.0000      -0.574061       -15.6210
   8   2.0000      -0.517957       -14.0943
   9   2.0000      -0.511744       -13.9253
  10   2.0000      -0.369480       -10.0541
  11   2.0000      -0.354126        -9.6363
  12   0.0000      -0.057586        -1.5670
  13   0.0000       0.036595         0.9958
  14   0.0000       0.061211         1.6656
  15   0.0000       0.076363         2.0780
  16   0.0000       0.098260         2.6738

MULLIKEN ATOMIC CHARGES
-----------------------
   0 O :   -0.509810
   1 C :   -0.108065
   2 C :   -0.245450
   3 H :    0.214707
   4 H :    0.214771
   5 H :    0.216889
   6 H :    0.216956
Sum of atomic charges:   -0.0000000

LOEWDIN ATOMIC CHARGES
----------------------
   0 O :   -0.017218
   1 C :   -0.401042
   2 C :    0.389970
   3 H :    0.022346
   4 H :    0.022342
   5 H :   -0.008195
   6 H :   -0.008203

  Mayer bond orders larger than 0.100000
B(  0-O ,  1-C ) :   0.7283 B(  0-O ,  2-C ) :   0.8980 B(  1-C ,  2-C ) :   0.7826
B(  1-C ,  3-H ) :   1.0421 B(  1-C ,  4-H ) :   1.0420 B(  2-C ,  5-H ) :   0.9673
B(  2-C ,  6-H ) :   0.9673

Dispersion correction           -0.005655426
FINAL SINGLE POINT ENERGY      -153.798269612488

DIPOLE MOMENT
-------------

Method             : SCF
Type of density    : Electron Density
Multiplicity       :   1
Irrep              :   0
Energy             :  -153.7926141865377474 Eh
Relativity type    :
Basis              : AO
                                X                 Y                 Z
Electronic contribution:      0.099776049       1.414192480      -0.003011388
Nuclear contribution   :     -0.662963919      -2.748987517       0.005658257
                        -----------------------------------------
Total Dipole Moment    :     -0.563187870      -1.334795037       0.002646868
                        -----------------------------------------
Magnitude (a.u.)       :      1.448746139
Magnitude (Debye)      :      3.682420039

Rotational constants in cm-1:             1.184859             0.433432             0.362159
Rotational constants in MHz :         35521.179971         12993.974955         10857.258499

                             ****ORCA TERMINATED NORMALLY****
TOTAL RUN TIME: 0 days 0 hours 3 minutes 45 seconds 818 msec
