                         Program Version 6.0.0  -   RELEASE  -
|  1> ! EnGrad wB97M-D3BJ def2-TZVPPD
|  2> %pal nprocs 8 end%pal nprocs 16 end
|  3> %tddft
|  4>  sf true
|  5>  nroots 2 Iroot 2 end
|  6> *xyz 0 3
|  7> O   -0.00088044472167 0.78249647040915 -4.411262075e-05
|  8> C   0.73109923939042 -0.43833304582829 7.985516316e-05
|  9> C   -0.73049955055027 -0.43927130899723 -7.703166944e-05
| 10> H   1.26354055509581 -0.65479162224611 0.91747390881575
| 11> H   1.26339436689592 -0.6548980892996 -0.91739206766672
| 12> H   -1.26230259386134 -0.65681608203431 -0.91759985796758
| 13> H   -1.26215157224887 -0.65678632200361 0.91755930594559
| 14> *
| 15>
| 16>                          ****END OF INPUT****

CARTESIAN COORDINATES (ANGSTROEM)
---------------------------------
  O     -0.000880    0.782496   -0.000044
  C      0.731099   -0.438333    0.000080
  C     -0.730500   -0.439271   -0.000077
  H      1.263541   -0.654792    0.917474
  H      1.263394   -0.654898   -0.917392
  H     -1.262303   -0.656816   -0.917600
  H     -1.262152   -0.656786    0.917559

 Total Charge           Charge          ....    0
 Multiplicity           Mult            ....    3
 Number of Electrons    NEL             ....   24
 Basis Dimension        Dim             ....  182

ORBITAL ENERGIES
----------------
                 SPIN UP ORBITALS
  NO   OCC          E(Eh)            E(eV)
   0   1.0000     -19.522429      -531.2323
   1   1.0000     -10.442751      -284.1617
   2   1.0000     -10.442311      -284.1497
   3   1.0000      -1.348791       -36.7025
   4   1.0000      -0.886698       -24.1283
   5   1.0000      -0.822024       -22.3684
   6   1.0000      -0.726091       -19.7580
   7   1.0000      -0.688276       -18.7289
   8   1.0000      -0.612525       -16.6676
   9   1.0000      -0.536818       -14.6076
  10   1.0000      -0.536228       -14.5915
  11   1.0000      -0.493669       -13.4334
  12   1.0000      -0.116501        -3.1701
  13   0.0000       0.028540         0.7766
  14   0.0000       0.051389         1.3984
  15   0.0000       0.064313         1.7500
  16   0.0000       0.085090         2.3154
  17   0.0000       0.091632         2.4934

                 SPIN DOWN ORBITALS
  NO   OCC          E(Eh)            E(eV)
   0   1.0000     -19.491432      -530.3888
   1   1.0000     -10.440981      -284.1135
   2   1.0000     -10.440519      -284.1010
   3   1.0000      -1.285159       -34.9709
   4   1.0000      -0.855626       -23.2828
   5   1.0000      -0.807646       -21.9772
   6   1.0000      -0.664494       -18.0818
   7   1.0000      -0.658872       -17.9288
   8   1.0000      -0.583833       -15.8869
   9   1.0000      -0.521869       -14.2008
  10   1.0000      -0.477826       -13.0023
  11   0.0000      -0.155919        -4.2428
  12   0.0000       0.037085         1.0091
  13   0.0000       0.048886         1.3302
  14   0.0000       0.064362         1.7514
  15   0.0000       0.076235         2.0745

----------------------------------------------------------------------------------------------------
          SPIN FLIP ABSORPTION SPECTRUM VIA TRANSITION ELECTRIC DIPOLE MOMENTS
----------------------------------------------------------------------------------------------------
     Transition      Energy     Energy  Wavelength fosc(D2)      D2        DX        DY        DZ
                      (eV)      (cm-1)    (nm)                 (au**2)    (au)      (au)      (au)
----------------------------------------------------------------------------------------------------
  1-3A  ->  2-3A    7.019762   56618.2   176.6   0.005747289   0.03342   0.00000   0.00004   0.18281

Dispersion correction             ... done (  0.0 sec)

MULLIKEN ATOMIC CHARGES AND SPIN DENSITIES
------------------------------------------
   0 O :    0.768067    1.090361
   1 C :   -1.840396   -2.144250
   2 C :   -1.829149   -2.145908
   3 H :    0.725915    0.801052
   4 H :    0.726837    0.802072
   5 H :    0.724485    0.798533
   6 H :    0.724242    0.798141
Sum of atomic charges       :    0.0000000

LOEWDIN ATOMIC CHARGES AND SPIN DENSITIES
-----------------------------------------
   0 O :    0.349496    0.635043
   1 C :   -0.159079   -0.211575
   2 C :   -0.158227   -0.214116
   3 H :   -0.008410   -0.051865
   4 H :   -0.008453   -0.051937
   5 H :   -0.007686   -0.052804
   6 H :   -0.007641   -0.052745

  Mayer bond orders larger than 0.100000
B(  0-O ,  1-C ) :  -1.2736 B(  0-O ,  2-C ) :  -1.2627 B(  0-O ,  3-H ) :   0.6624
B(  0-O ,  4-H ) :   0.6632 B(  0-O ,  5-H ) :   0.6612 B(  0-O ,  6-H ) :   0.6609
B(  1-C ,  2-C ) :  11.3138 B(  1-C ,  3-H ) :  -1.1034 B(  1-C ,  4-H ) :  -1.1066
B(  1-C ,  5-H ) :  -3.1869 B(  1-C ,  6-H ) :  -3.1849 B(  2-C ,  3-H ) :  -3.1851
B(  2-C ,  4-H ) :  -3.1885 B(  2-C ,  5-H ) :  -1.0890 B(  2-C ,  6-H ) :  -1.0879
B(  3-H ,  4-H ) :   0.6749 B(  3-H ,  5-H ) :   0.9422 B(  3-H ,  6-H ) :   1.0563
B(  4-H ,  5-H ) :   1.0579 B(  4-H ,  6-H ) :   0.9425 B(  5-H ,  6-H ) :   0.6710

Dispersion correction           -0.005225146
FINAL SINGLE POINT ENERGY      -153.621211802304

DIPOLE MOMENT
-------------

Method             : TDA/CIS
Type of density    : Electron Density
Level              : Relaxed density
State              :   2
Multiplicity       :   3
Irrep              :   0
Energy             :     0.0000000000000000 Eh
Relativity type    :
Basis              : AO
                                X                 Y                 Z
Electronic contribution:     -0.011981239       2.716651904       0.000623598
Nuclear contribution   :      0.002689188      -2.392578662       0.000091982
                        -----------------------------------------
Total Dipole Moment    :     -0.009292051       0.324073242       0.000715580
                        -----------------------------------------
Magnitude (a.u.)       :      0.324207219
Magnitude (Debye)      :      0.824069260

Rotational constants in cm-1:             0.862729             0.744143             0.476134
Rotational constants in MHz :         25863.978378         22308.847486         14274.140454

                             ****ORCA TERMINATED NORMALLY****
TOTAL RUN TIME: 0 days 0 hours 0 minutes 27 seconds 471 msec
