                         Program Version 6.0.0  -   RELEASE  -
|  1> ! Engrad def2-TZVPPD wB97M-D3BJ
|  2> %pal nprocs 8 end%pal nprocs 32 end
|  3> %tddft Nroots 2 Iroot 1
|  4> sf true
|  5> end
|  6> *xyz 0 3
|  7> O   0.81558726 1.41666861 -0.00513547
|  8> C   0.51733771 0.19065971 0.23426124
|  9> C   -0.45545567 -0.80828428 -0.24343448
| 10> H   1.19409219 -0.21537477 0.9525104
| 11> H   0.09612493 -1.66433358 -0.66105784
| 12> H   -1.17483779 -0.46566202 -1.0094715
| 13> H   -1.02728515 -1.1722298 0.62133186
| 14> *
| 15>
| 16>                          ****END OF INPUT****

CARTESIAN COORDINATES (ANGSTROEM)
---------------------------------
  O      0.815587    1.416669   -0.005135
  C      0.517338    0.190660    0.234261
  C     -0.455456   -0.808284   -0.243434
  H      1.194092   -0.215375    0.952510
  H      0.096125   -1.664334   -0.661058
  H     -1.174838   -0.465662   -1.009472
  H     -1.027285   -1.172230    0.621332

 Total Charge           Charge          ....    0
 Multiplicity           Mult            ....    3
 Number of Electrons    NEL             ....   24
 Basis Dimension        Dim             ....  182

ORBITAL ENERGIES
----------------
                 SPIN UP ORBITALS
  NO   OCC          E(Eh)            E(eV)
   0   1.0000     -19.418720      -528.4102
   1   1.0000     -10.385163      -282.5947
   2   1.0000     -10.368846      -282.1507
   3   1.0000      -1.212021       -32.9808
   4   1.0000      -0.889739       -24.2110
   5   1.0000      -0.723385       -19.6843
   6   1.0000      -0.619537       -16.8585
   7   1.0000      -0.583500       -15.8779
   8   1.0000      -0.568317       -15.4647
   9   1.0000      -0.510978       -13.9044
  10   1.0000      -0.507406       -13.8072
  11   1.0000      -0.443684       -12.0732
  12   1.0000      -0.239729        -6.5234
  13   0.0000       0.037815         1.0290
  14   0.0000       0.059427         1.6171
  15   0.0000       0.079423         2.1612
  16   0.0000       0.088476         2.4076
  17   0.0000       0.106185         2.8894

                 SPIN DOWN ORBITALS
  NO   OCC          E(Eh)            E(eV)
   0   1.0000     -19.390326      -527.6376
   1   1.0000     -10.373726      -282.2834
   2   1.0000     -10.367909      -282.1251
   3   1.0000      -1.148212       -31.2444
   4   1.0000      -0.871171       -23.7058
   5   1.0000      -0.681182       -18.5359
   6   1.0000      -0.576715       -15.6932
   7   1.0000      -0.535608       -14.5746
   8   1.0000      -0.533599       -14.5200
   9   1.0000      -0.488980       -13.3058
  10   1.0000      -0.459082       -12.4923
  11   0.0000      -0.077137        -2.0990
  12   0.0000       0.038990         1.0610
  13   0.0000       0.059653         1.6232
  14   0.0000       0.074475         2.0266
  15   0.0000       0.079378         2.1600

----------------------------------------------------------------------------------------------------
          SPIN FLIP ABSORPTION SPECTRUM VIA TRANSITION ELECTRIC DIPOLE MOMENTS
----------------------------------------------------------------------------------------------------
     Transition      Energy     Energy  Wavelength fosc(D2)      D2        DX        DY        DZ
                      (eV)      (cm-1)    (nm)                 (au**2)    (au)      (au)      (au)
----------------------------------------------------------------------------------------------------
  1-3A  ->  2-3A    3.931062   31706.2   315.4   0.000165876   0.00172  -0.03044   0.00625   0.02751

Dispersion correction             ... done (  0.1 sec)

MULLIKEN ATOMIC CHARGES AND SPIN DENSITIES
------------------------------------------
   0 O :   -0.551893    0.049200
   1 C :    0.221491   -0.171771
   2 C :   -0.641998    0.030938
   3 H :    0.290929    0.086847
   4 H :    0.227145   -0.000139
   5 H :    0.224074    0.004143
   6 H :    0.230252    0.000783
Sum of atomic charges       :    0.0000000

LOEWDIN ATOMIC CHARGES AND SPIN DENSITIES
-----------------------------------------
   0 O :   -0.025623    0.011469
   1 C :   -0.149655   -0.010566
   2 C :    0.166252   -0.000571
   3 H :   -0.006470   -0.000316
   4 H :    0.004747   -0.000559
   5 H :    0.008514    0.001220
   6 H :    0.002235   -0.000678

  Mayer bond orders larger than 0.100000
B(  0-O ,  1-C ) :   1.7272 B(  1-C ,  2-C ) :   0.7686 B(  1-C ,  3-H ) :   0.9428
B(  2-C ,  4-H ) :   0.9821 B(  2-C ,  5-H ) :   0.9854 B(  2-C ,  6-H ) :   0.9848

Dispersion correction           -0.005443496
FINAL SINGLE POINT ENERGY      -153.902834535743

DIPOLE MOMENT
-------------

Method             : TDA/CIS
Type of density    : Electron Density
Level              : Relaxed density
State              :   1
Multiplicity       :   3
Irrep              :   0
Energy             :     0.0000000000000000 Eh
Relativity type    :
Basis              : AO
                                X                 Y                 Z
Electronic contribution:      1.459488133       2.823982857       0.216062671
Nuclear contribution   :     -1.944359224      -4.279890896      -0.066001015
                        -----------------------------------------
Total Dipole Moment    :     -0.484871091      -1.455908038       0.150061656
                        -----------------------------------------
Magnitude (a.u.)       :      1.541845223
Magnitude (Debye)      :      3.919059105

Rotational constants in cm-1:             2.300630             0.297745             0.277408
Rotational constants in MHz :         68971.166583          8926.163449          8316.489692

                             ****ORCA TERMINATED NORMALLY****
TOTAL RUN TIME: 0 days 0 hours 0 minutes 16 seconds 65 msec
