                         Program Version 6.0.0  -   RELEASE  -
|  1> ! Engrad def2-TZVPPD wB97M-D3BJ
|  2> %pal nprocs 8 end%pal nprocs 64 end
|  3> %tddft
|  4>  Iroot 1 Nroots 3
|  5> sf true
|  6> end
|  7> *xyz 0 3
|  8> O   3.52289761 -0.08169184 -1.35428884
|  9> O   -1.74088878 0.76449581 -2.3018953
| 10> O   0.08836396 -3.06373643 -0.72951613
| 11> O   -3.65663617 -0.29806744 1.68823522
| 12> N   0.30657546 -1.41137641 0.80521326
| 13> N   -1.51327291 0.42715584 1.63709716
| 14> N   1.61427575 -1.3913475 -1.11343398
| 15> N   -2.77523959 0.29454451 -0.31029276
| 16> C   2.12970843 0.2580466 0.61256185
| 17> C   -0.59353341 1.31414918 -0.38646454
| 18> C   0.83579475 -0.15483504 1.2121418
| 19> C   -0.32471512 1.00241519 1.01552258
| 20> C   3.06575888 1.21568153 1.25930312
| 21> C   0.38940519 2.10851971 -1.18250323
| 22> C   2.51886512 -0.35684202 -0.69221642
| 23> C   -1.73553942 0.80387866 -1.10509803
| 24> C   0.65415998 -2.07492511 -0.32960974
| 25> C   -2.72136269 0.15882237 1.05937538
| 26> H   0.9146271 -0.21671232 2.30188446
| 27> H   0.01394543 1.84854565 1.56854481
| 28> H   4.02184242 0.86561173 1.52945845
| 29> H   3.35127236 2.19700193 0.87750047
| 30> H   2.57942011 1.51189724 2.22042935
| 31> H   -0.0341425 2.75048413 -1.93442104
| 32> H   1.0785773 2.64349536 -0.56023069
| 33> H   0.95847145 1.42039935 -1.85742294
| 34> H   -0.42742319 -1.83183221 1.32694236
| 35> H   -1.52208858 0.47694206 2.65159611
| 36> H   1.72591338 -1.90030931 -1.95744102
| 37> H   -3.57002278 -0.16154979 -0.7718234
| 38> *
| 39>
| 40>                          ****END OF INPUT****

CARTESIAN COORDINATES (ANGSTROEM)
---------------------------------
  O      3.522898   -0.081692   -1.354289
  O     -1.740889    0.764496   -2.301895
  O      0.088364   -3.063736   -0.729516
  O     -3.656636   -0.298067    1.688235
  N      0.306575   -1.411376    0.805213
  N     -1.513273    0.427156    1.637097
  N      1.614276   -1.391347   -1.113434
  N     -2.775240    0.294545   -0.310293
  C      2.129708    0.258047    0.612562
  C     -0.593533    1.314149   -0.386465
  C      0.835795   -0.154835    1.212142
  C     -0.324715    1.002415    1.015523
  C      3.065759    1.215682    1.259303
  C      0.389405    2.108520   -1.182503
  C      2.518865   -0.356842   -0.692216
  C     -1.735539    0.803879   -1.105098
  C      0.654160   -2.074925   -0.329610
  C     -2.721363    0.158822    1.059375
  H      0.914627   -0.216712    2.301884
  H      0.013945    1.848546    1.568545
  H      4.021842    0.865612    1.529458
  H      3.351272    2.197002    0.877500
  H      2.579420    1.511897    2.220429
  H     -0.034142    2.750484   -1.934421
  H      1.078577    2.643495   -0.560231
  H      0.958471    1.420399   -1.857423
  H     -0.427423   -1.831832    1.326942
  H     -1.522089    0.476942    2.651596
  H      1.725913   -1.900309   -1.957441
  H     -3.570023   -0.161550   -0.771823

 Total Charge           Charge          ....    0
 Multiplicity           Mult            ....    3
 Number of Electrons    NEL             ....  132
 Basis Dimension        Dim             ....  882

ORBITAL ENERGIES
----------------
                 SPIN UP ORBITALS
  NO   OCC          E(Eh)            E(eV)
   0   1.0000     -19.342440      -526.3345
   1   1.0000     -19.334779      -526.1261
   2   1.0000     -19.319031      -525.6976
   3   1.0000     -19.317420      -525.6537
   4   1.0000     -14.565206      -396.3394
   5   1.0000     -14.564213      -396.3124
   6   1.0000     -14.558945      -396.1690
   7   1.0000     -14.558346      -396.1527
   8   1.0000     -10.506826      -285.9053
   9   1.0000     -10.502984      -285.8007
  10   1.0000     -10.495306      -285.5918
  11   1.0000     -10.479794      -285.1697
  12   1.0000     -10.451437      -284.3980
  13   1.0000     -10.447179      -284.2822
  14   1.0000     -10.433392      -283.9070
  15   1.0000     -10.414116      -283.3825
  16   1.0000     -10.382772      -282.5296
  17   1.0000     -10.368464      -282.1402
  18   1.0000      -1.222393       -33.2630
  19   1.0000      -1.214678       -33.0531
  20   1.0000      -1.202787       -32.7295
  21   1.0000      -1.191098       -32.4114
  22   1.0000      -1.120533       -30.4913
  23   1.0000      -1.097821       -29.8732
  24   1.0000      -1.064457       -28.9654
  25   1.0000      -1.051292       -28.6071
  26   1.0000      -0.982973       -26.7480
  27   1.0000      -0.957297       -26.0494
  28   1.0000      -0.889449       -24.2031
  29   1.0000      -0.849642       -23.1199
  30   1.0000      -0.826851       -22.4998
  31   1.0000      -0.805172       -21.9098
  32   1.0000      -0.785711       -21.3803
  33   1.0000      -0.777102       -21.1460
  34   1.0000      -0.704390       -19.1674
  35   1.0000      -0.701184       -19.0802
  36   1.0000      -0.691600       -18.8194
  37   1.0000      -0.682554       -18.5732
  38   1.0000      -0.651765       -17.7354
  39   1.0000      -0.635914       -17.3041
  40   1.0000      -0.625946       -17.0328
  41   1.0000      -0.601974       -16.3805
  42   1.0000      -0.595918       -16.2158
  43   1.0000      -0.587156       -15.9773
  44   1.0000      -0.575730       -15.6664
  45   1.0000      -0.571607       -15.5542
  46   1.0000      -0.568937       -15.4815
  47   1.0000      -0.561716       -15.2851
  48   1.0000      -0.560868       -15.2620
  49   1.0000      -0.554409       -15.0862
  50   1.0000      -0.553903       -15.0725
  51   1.0000      -0.543276       -14.7833
  52   1.0000      -0.532893       -14.5007
  53   1.0000      -0.523364       -14.2415
  54   1.0000      -0.510842       -13.9007
  55   1.0000      -0.506381       -13.7793
  56   1.0000      -0.502235       -13.6665
  57   1.0000      -0.422590       -11.4993
  58   1.0000      -0.418968       -11.4007
  59   1.0000      -0.409570       -11.1450
  60   1.0000      -0.404049       -10.9947
  61   1.0000      -0.399598       -10.8736
  62   1.0000      -0.393537       -10.7087
  63   1.0000      -0.390391       -10.6231
  64   1.0000      -0.387678       -10.5492
  65   1.0000      -0.354961        -9.6590
  66   1.0000      -0.317227        -8.6322
  67   0.0000       0.004988         0.1357
  68   0.0000       0.028618         0.7787
  69   0.0000       0.031178         0.8484
  70   0.0000       0.035103         0.9552
  71   0.0000       0.053795         1.4638

                 SPIN DOWN ORBITALS
  NO   OCC          E(Eh)            E(eV)
   0   1.0000     -19.338713      -526.2331
   1   1.0000     -19.330860      -526.0194
   2   1.0000     -19.318970      -525.6959
   3   1.0000     -19.317277      -525.6498
   4   1.0000     -14.564997      -396.3337
   5   1.0000     -14.563590      -396.2954
   6   1.0000     -14.558308      -396.1517
   7   1.0000     -14.558295      -396.1513
   8   1.0000     -10.506857      -285.9061
   9   1.0000     -10.503018      -285.8017
  10   1.0000     -10.496366      -285.6206
  11   1.0000     -10.480713      -285.1947
  12   1.0000     -10.450789      -284.3804
  13   1.0000     -10.446488      -284.2634
  14   1.0000     -10.421904      -283.5944
  15   1.0000     -10.402942      -283.0784
  16   1.0000     -10.383429      -282.5475
  17   1.0000     -10.368979      -282.1543
  18   1.0000      -1.219428       -33.1823
  19   1.0000      -1.213713       -33.0268
  20   1.0000      -1.199393       -32.6372
  21   1.0000      -1.186021       -32.2733
  22   1.0000      -1.118151       -30.4264
  23   1.0000      -1.095999       -29.8237
  24   1.0000      -1.062747       -28.9188
  25   1.0000      -1.049809       -28.5668
  26   1.0000      -0.969456       -26.3802
  27   1.0000      -0.940074       -25.5807
  28   1.0000      -0.883891       -24.0519
  29   1.0000      -0.844278       -22.9740
  30   1.0000      -0.818078       -22.2610
  31   1.0000      -0.799592       -21.7580
  32   1.0000      -0.784232       -21.3400
  33   1.0000      -0.775534       -21.1033
  34   1.0000      -0.699030       -19.0216
  35   1.0000      -0.694723       -18.9044
  36   1.0000      -0.686970       -18.6934
  37   1.0000      -0.676153       -18.3991
  38   1.0000      -0.642074       -17.4717
  39   1.0000      -0.628209       -17.0944
  40   1.0000      -0.620241       -16.8776
  41   1.0000      -0.597906       -16.2699
  42   1.0000      -0.590790       -16.0762
  43   1.0000      -0.580760       -15.8033
  44   1.0000      -0.570026       -15.5112
  45   1.0000      -0.567095       -15.4314
  46   1.0000      -0.560821       -15.2607
  47   1.0000      -0.554202       -15.0806
  48   1.0000      -0.551355       -15.0031
  49   1.0000      -0.548147       -14.9158
  50   1.0000      -0.540998       -14.7213
  51   1.0000      -0.537980       -14.6392
  52   1.0000      -0.526081       -14.3154
  53   1.0000      -0.514580       -14.0024
  54   1.0000      -0.505307       -13.7501
  55   1.0000      -0.501565       -13.6483
  56   1.0000      -0.492254       -13.3949
  57   1.0000      -0.418324       -11.3832
  58   1.0000      -0.414462       -11.2781
  59   1.0000      -0.401187       -10.9169
  60   1.0000      -0.393428       -10.7057
  61   1.0000      -0.391057       -10.6412
  62   1.0000      -0.388391       -10.5687
  63   1.0000      -0.386377       -10.5139
  64   1.0000      -0.378275       -10.2934
  65   0.0000      -0.072573        -1.9748
  66   0.0000      -0.045628        -1.2416
  67   0.0000       0.004600         0.1252
  68   0.0000       0.028177         0.7667
  69   0.0000       0.030733         0.8363

----------------------------------------------------------------------------------------------------
          SPIN FLIP ABSORPTION SPECTRUM VIA TRANSITION ELECTRIC DIPOLE MOMENTS
----------------------------------------------------------------------------------------------------
     Transition      Energy     Energy  Wavelength fosc(D2)      D2        DX        DY        DZ
                      (eV)      (cm-1)    (nm)                 (au**2)    (au)      (au)      (au)
----------------------------------------------------------------------------------------------------
  1-3A  ->  2-3A    0.229116    1847.9  5411.4   0.000136943   0.02440   0.15196  -0.03251  -0.01569
  1-3A  ->  3-3A    2.375080   19156.3   522.0   0.029001340   0.49840  -0.70016   0.04923  -0.07590

Dispersion correction             ... done (  0.1 sec)

MULLIKEN ATOMIC CHARGES AND SPIN DENSITIES
------------------------------------------
   0 O :   -0.661522    0.014359
   1 O :   -0.644060   -0.011251
   2 O :   -0.660434   -0.000172
   3 O :   -0.663151   -0.000111
   4 N :   -0.215521   -0.008156
   5 N :   -0.240850   -0.001676
   6 N :    0.116608    0.001233
   7 N :   -0.053415   -0.005997
   8 C :    0.556208    0.376013
   9 C :    0.745989    0.379297
  10 C :    0.069817   -0.208593
  11 C :    0.134475   -0.242693
  12 C :   -1.358816   -0.022696
  13 C :   -1.586431    0.021867
  14 C :    0.145889   -0.108698
  15 C :    0.254936   -0.188118
  16 C :    0.466512    0.004416
  17 C :    0.468749    0.017053
  18 H :    0.538266    0.000269
  19 H :    0.546603   -0.029932
  20 H :    0.329147    0.004776
  21 H :    0.230604    0.005864
  22 H :    0.329822    0.002774
  23 H :    0.394170    0.000070
  24 H :    0.329603   -0.001209
  25 H :    0.273261   -0.003549
  26 H :    0.008236   -0.000208
  27 H :    0.062280    0.001059
  28 H :    0.013513    0.001041
  29 H :    0.069511    0.002964
Sum of atomic charges       :   -0.0000000

LOEWDIN ATOMIC CHARGES AND SPIN DENSITIES
-----------------------------------------
   0 O :    0.063619    0.011763
   1 O :    0.113180   -0.008991
   2 O :    0.093521   -0.000318
   3 O :    0.074375   -0.000232
   4 N :    0.279328   -0.002358
   5 N :    0.259913   -0.000720
   6 N :    0.341125    0.000420
   7 N :    0.326441   -0.005130
   8 C :   -0.029495    0.056361
   9 C :   -0.020999   -0.033107
  10 C :   -0.095034   -0.005220
  11 C :   -0.075064   -0.008914
  12 C :    0.183427    0.008393
  13 C :    0.211571   -0.004650
  14 C :   -0.369584    0.004251
  15 C :   -0.419937   -0.010090
  16 C :   -0.466919   -0.000696
  17 C :   -0.493401   -0.000655
  18 H :    0.056737   -0.000324
  19 H :    0.037641   -0.002111
  20 H :   -0.023970    0.002381
  21 H :    0.006038    0.002505
  22 H :    0.011149   -0.000076
  23 H :    0.002095   -0.000684
  24 H :   -0.014459    0.000233
  25 H :    0.032636   -0.001582
  26 H :   -0.036059   -0.000144
  27 H :   -0.015573   -0.000004
  28 H :   -0.043966    0.000081
  29 H :    0.011665   -0.000379

  Mayer bond orders larger than 0.100000
B(  0-O , 14-C ) :   1.4191 B(  1-O , 15-C ) :   1.4265 B(  2-O , 16-C ) :   1.5359
B(  3-O , 17-C ) :   1.5970 B(  4-N ,  8-C ) :   0.1030 B(  4-N , 10-C ) :   0.4682
B(  4-N , 16-C ) :   1.0657 B(  4-N , 26-H ) :   1.1794 B(  5-N , 11-C ) :   0.4888
B(  5-N , 17-C ) :   1.1118 B(  5-N , 27-H ) :   1.1496 B(  6-N ,  8-C ) :  -0.1149
B(  6-N , 10-C ) :   0.1849 B(  6-N , 14-C ) :   1.0072 B(  6-N , 16-C ) :   0.9305
B(  6-N , 28-H ) :   1.1043 B(  7-N , 15-C ) :   1.0116 B(  7-N , 17-C ) :   0.9624
B(  7-N , 29-H ) :   1.0908 B(  8-C ,  9-C ) :   0.2837 B(  8-C , 10-C ) :   0.5832
B(  8-C , 11-C ) :   0.1257 B(  8-C , 12-C ) :   0.3492 B(  8-C , 14-C ) :   0.5454
B(  8-C , 16-C ) :   0.1016 B(  8-C , 18-H ) :  -0.1214 B(  8-C , 22-H ) :  -0.1721
B(  9-C , 11-C ) :   0.8899 B(  9-C , 13-C ) :   0.1666 B(  9-C , 15-C ) :   0.6292
B(  9-C , 19-H ) :  -0.1297 B(  9-C , 24-H ) :  -0.1839 B(  9-C , 25-H ) :  -0.1052
B( 10-C , 11-C ) :   0.4186 B( 10-C , 16-C ) :  -0.1193 B( 10-C , 18-H ) :   0.7300
B( 11-C , 13-C ) :  -0.1424 B( 11-C , 17-C ) :  -0.1428 B( 11-C , 18-H ) :  -0.1063
B( 11-C , 19-H ) :   0.7372 B( 12-C , 20-H ) :   0.9203 B( 12-C , 21-H ) :   0.8944
B( 12-C , 22-H ) :   1.0398 B( 13-C , 14-C ) :   0.1017 B( 13-C , 23-H ) :   0.8642
B( 13-C , 24-H ) :   1.0967 B( 13-C , 25-H ) :   0.9467

Dispersion correction           -0.057333803
FINAL SINGLE POINT ENERGY      -908.791171859504

DIPOLE MOMENT
-------------

Method             : TDA/CIS
Type of density    : Electron Density
Level              : Relaxed density
State              :   1
Multiplicity       :   3
Irrep              :   0
Energy             :     0.0000000000000000 Eh
Relativity type    :
Basis              : AO
                                X                 Y                 Z
Electronic contribution:     -7.597370553      -7.742127655      -3.300605433
Nuclear contribution   :      8.574813480       9.452916023       5.291491300
                        -----------------------------------------
Total Dipole Moment    :      0.977442927       1.710788368       1.990885867
                        -----------------------------------------
Magnitude (a.u.)       :      2.801038745
Magnitude (Debye)      :      7.119674680

Rotational constants in cm-1:             0.021736             0.011497             0.011063
Rotational constants in MHz :           651.627460           344.670717           331.664207

                             ****ORCA TERMINATED NORMALLY****
TOTAL RUN TIME: 0 days 0 hours 5 minutes 0 seconds 93 msec
