                         Program Version 6.0.0  -   RELEASE  -
|  1> ! Engrad def2-TZVPPD wB97M-D3BJ
|  2> %pal nprocs 8 end%pal nprocs 64 end
|  3> %tddft Nroots 2 Iroot 2
|  4> sf true
|  5> end
|  6> *xyz 0 3
|  7> O   3.26089446 0.49216574 -0.66168612
|  8> O   -0.63868609 1.31988827 -2.45866281
|  9> O   0.33499257 -2.9825361 -0.59720017
| 10> O   -3.42465249 -1.38607371 -0.12300432
| 11> N   0.20516352 -1.55208342 1.11063625
| 12> N   -2.06266541 -0.03582673 1.10876111
| 13> N   1.74964603 -1.19749739 -0.68560832
| 14> N   -1.79329475 -0.25365479 -1.27849268
| 15> C   1.63092531 0.45549783 0.97495865
| 16> C   -0.56222028 1.4593258 -0.08796876
| 17> C   0.42366027 -0.13390167 1.57374858
| 18> C   -0.87093984 0.78956173 1.16300822
| 19> C   2.17730728 1.59808901 1.74470115
| 20> C   -0.00860898 2.85088039 -0.08855451
| 21> C   2.33225348 -0.06929462 -0.1792796
| 22> C   -1.01582823 0.85923052 -1.35630683
| 23> C   0.75677783 -2.00132135 -0.07396304
| 24> C   -2.50330448 -0.62453947 -0.09556493
| 25> H   0.45141054 -0.14555148 2.6501901
| 26> H   -0.97116912 1.52413755 1.88437081
| 27> H   2.50523226 1.21874074 2.74073141
| 28> H   3.02057623 2.0733149 1.24521842
| 29> H   1.35042359 2.2991712 2.10218489
| 30> H   -0.55200371 3.44815512 -0.90897378
| 31> H   -0.19765799 3.43510573 0.83708539
| 32> H   0.98879549 2.98294383 -0.33536676
| 33> H   -0.58819094 -2.1228283 1.38128258
| 34> H   -2.6107037 -0.12643816 1.92534179
| 35> H   1.89799008 -1.66698909 -1.62856021
| 36> H   -2.26106997 -0.50785809 -2.22957316
| 37> *
| 38>
| 39>                          ****END OF INPUT****

CARTESIAN COORDINATES (ANGSTROEM)
---------------------------------
  O      3.260894    0.492166   -0.661686
  O     -0.638686    1.319888   -2.458663
  O      0.334993   -2.982536   -0.597200
  O     -3.424652   -1.386074   -0.123004
  N      0.205164   -1.552083    1.110636
  N     -2.062665   -0.035827    1.108761
  N      1.749646   -1.197497   -0.685608
  N     -1.793295   -0.253655   -1.278493
  C      1.630925    0.455498    0.974959
  C     -0.562220    1.459326   -0.087969
  C      0.423660   -0.133902    1.573749
  C     -0.870940    0.789562    1.163008
  C      2.177307    1.598089    1.744701
  C     -0.008609    2.850880   -0.088555
  C      2.332253   -0.069295   -0.179280
  C     -1.015828    0.859231   -1.356307
  C      0.756778   -2.001321   -0.073963
  C     -2.503304   -0.624539   -0.095565
  H      0.451411   -0.145551    2.650190
  H     -0.971169    1.524138    1.884371
  H      2.505232    1.218741    2.740731
  H      3.020576    2.073315    1.245218
  H      1.350424    2.299171    2.102185
  H     -0.552004    3.448155   -0.908974
  H     -0.197658    3.435106    0.837085
  H      0.988795    2.982944   -0.335367
  H     -0.588191   -2.122828    1.381283
  H     -2.610704   -0.126438    1.925342
  H      1.897990   -1.666989   -1.628560
  H     -2.261070   -0.507858   -2.229573

 Total Charge           Charge          ....    0
 Multiplicity           Mult            ....    3
 Number of Electrons    NEL             ....  132
 Basis Dimension        Dim             ....  882

ORBITAL ENERGIES
----------------
                 SPIN UP ORBITALS
  NO   OCC          E(Eh)            E(eV)
   0   1.0000     -19.330270      -526.0034
   1   1.0000     -19.327333      -525.9235
   2   1.0000     -19.325955      -525.8860
   3   1.0000     -19.317122      -525.6456
   4   1.0000     -14.575317      -396.6145
   5   1.0000     -14.565635      -396.3511
   6   1.0000     -14.561868      -396.2486
   7   1.0000     -14.553516      -396.0213
   8   1.0000     -10.517342      -286.1914
   9   1.0000     -10.498077      -285.6672
  10   1.0000     -10.478941      -285.1465
  11   1.0000     -10.475933      -285.0646
  12   1.0000     -10.443032      -284.1694
  13   1.0000     -10.436787      -283.9994
  14   1.0000     -10.415064      -283.4083
  15   1.0000     -10.409346      -283.2527
  16   1.0000     -10.379191      -282.4321
  17   1.0000     -10.372226      -282.2426
  18   1.0000      -1.224762       -33.3275
  19   1.0000      -1.222199       -33.2577
  20   1.0000      -1.207672       -32.8624
  21   1.0000      -1.180649       -32.1271
  22   1.0000      -1.112406       -30.2701
  23   1.0000      -1.089028       -29.6339
  24   1.0000      -1.063045       -28.9269
  25   1.0000      -1.046648       -28.4807
  26   1.0000      -0.986464       -26.8430
  27   1.0000      -0.947487       -25.7824
  28   1.0000      -0.879483       -23.9319
  29   1.0000      -0.831874       -22.6364
  30   1.0000      -0.825047       -22.4507
  31   1.0000      -0.798292       -21.7226
  32   1.0000      -0.787262       -21.4225
  33   1.0000      -0.769261       -20.9327
  34   1.0000      -0.699064       -19.0225
  35   1.0000      -0.695145       -18.9159
  36   1.0000      -0.689154       -18.7528
  37   1.0000      -0.659024       -17.9329
  38   1.0000      -0.654188       -17.8013
  39   1.0000      -0.636170       -17.3111
  40   1.0000      -0.618056       -16.8182
  41   1.0000      -0.599525       -16.3139
  42   1.0000      -0.591591       -16.0980
  43   1.0000      -0.584054       -15.8929
  44   1.0000      -0.581124       -15.8132
  45   1.0000      -0.568995       -15.4831
  46   1.0000      -0.564444       -15.3593
  47   1.0000      -0.560581       -15.2542
  48   1.0000      -0.555560       -15.1176
  49   1.0000      -0.545840       -14.8531
  50   1.0000      -0.539702       -14.6860
  51   1.0000      -0.537861       -14.6359
  52   1.0000      -0.528734       -14.3876
  53   1.0000      -0.521754       -14.1977
  54   1.0000      -0.515986       -14.0407
  55   1.0000      -0.505874       -13.7655
  56   1.0000      -0.484764       -13.1911
  57   1.0000      -0.420861       -11.4522
  58   1.0000      -0.417304       -11.3554
  59   1.0000      -0.406956       -11.0738
  60   1.0000      -0.404408       -11.0045
  61   1.0000      -0.400172       -10.8892
  62   1.0000      -0.394346       -10.7307
  63   1.0000      -0.388718       -10.5776
  64   1.0000      -0.385931       -10.5017
  65   1.0000      -0.332935        -9.0596
  66   1.0000      -0.321673        -8.7532
  67   0.0000       0.005958         0.1621
  68   0.0000       0.030432         0.8281
  69   0.0000       0.031610         0.8602
  70   0.0000       0.036419         0.9910
  71   0.0000       0.055694         1.5155

                 SPIN DOWN ORBITALS
  NO   OCC          E(Eh)            E(eV)
   0   1.0000     -19.330102      -525.9988
   1   1.0000     -19.323448      -525.8177
   2   1.0000     -19.321873      -525.7749
   3   1.0000     -19.317019      -525.6428
   4   1.0000     -14.574806      -396.6006
   5   1.0000     -14.565212      -396.3396
   6   1.0000     -14.561137      -396.2287
   7   1.0000     -14.553351      -396.0168
   8   1.0000     -10.517367      -286.1921
   9   1.0000     -10.498114      -285.6682
  10   1.0000     -10.479933      -285.1735
  11   1.0000     -10.476874      -285.0902
  12   1.0000     -10.442259      -284.1483
  13   1.0000     -10.436128      -283.9815
  14   1.0000     -10.403658      -283.0979
  15   1.0000     -10.397927      -282.9420
  16   1.0000     -10.379856      -282.4502
  17   1.0000     -10.372712      -282.2558
  18   1.0000      -1.223596       -33.2957
  19   1.0000      -1.220864       -33.2214
  20   1.0000      -1.203421       -32.7468
  21   1.0000      -1.175380       -31.9837
  22   1.0000      -1.109205       -30.1830
  23   1.0000      -1.086445       -29.5637
  24   1.0000      -1.060828       -28.8666
  25   1.0000      -1.045199       -28.4413
  26   1.0000      -0.972874       -26.4732
  27   1.0000      -0.930740       -25.3267
  28   1.0000      -0.873915       -23.7804
  29   1.0000      -0.826559       -22.4918
  30   1.0000      -0.816492       -22.2179
  31   1.0000      -0.793071       -21.5806
  32   1.0000      -0.785706       -21.3801
  33   1.0000      -0.766375       -20.8541
  34   1.0000      -0.694482       -18.8978
  35   1.0000      -0.689139       -18.7524
  36   1.0000      -0.682615       -18.5749
  37   1.0000      -0.652823       -17.7642
  38   1.0000      -0.642918       -17.4947
  39   1.0000      -0.627386       -17.0720
  40   1.0000      -0.614821       -16.7301
  41   1.0000      -0.595692       -16.2096
  42   1.0000      -0.585978       -15.9453
  43   1.0000      -0.578186       -15.7333
  44   1.0000      -0.573395       -15.6029
  45   1.0000      -0.564197       -15.3526
  46   1.0000      -0.559269       -15.2185
  47   1.0000      -0.552948       -15.0465
  48   1.0000      -0.548778       -14.9330
  49   1.0000      -0.536270       -14.5926
  50   1.0000      -0.533136       -14.5074
  51   1.0000      -0.530380       -14.4324
  52   1.0000      -0.520431       -14.1616
  53   1.0000      -0.513731       -13.9793
  54   1.0000      -0.506392       -13.7796
  55   1.0000      -0.500199       -13.6111
  56   1.0000      -0.479313       -13.0428
  57   1.0000      -0.418126       -11.3778
  58   1.0000      -0.413974       -11.2648
  59   1.0000      -0.395381       -10.7589
  60   1.0000      -0.392873       -10.6906
  61   1.0000      -0.389430       -10.5969
  62   1.0000      -0.388279       -10.5656
  63   1.0000      -0.382762       -10.4155
  64   1.0000      -0.375740       -10.2244
  65   0.0000      -0.060625        -1.6497
  66   0.0000      -0.040520        -1.1026
  67   0.0000       0.005484         0.1492
  68   0.0000       0.030330         0.8253
  69   0.0000       0.031205         0.8491

----------------------------------------------------------------------------------------------------
          SPIN FLIP ABSORPTION SPECTRUM VIA TRANSITION ELECTRIC DIPOLE MOMENTS
----------------------------------------------------------------------------------------------------
     Transition      Energy     Energy  Wavelength fosc(D2)      D2        DX        DY        DZ
                      (eV)      (cm-1)    (nm)                 (au**2)    (au)      (au)      (au)
----------------------------------------------------------------------------------------------------
  1-3A  ->  2-3A    0.100871     813.6  12291.3   0.000001553   0.00063   0.02040   0.00750  -0.01249

Dispersion correction             ... done (  0.1 sec)

MULLIKEN ATOMIC CHARGES AND SPIN DENSITIES
------------------------------------------
   0 O :   -0.652647    0.005329
   1 O :   -0.711867   -0.005710
   2 O :   -0.621846    0.000189
   3 O :   -0.605747    0.000571
   4 N :   -0.263008    0.001553
   5 N :   -0.287900   -0.001779
   6 N :   -0.040236   -0.004261
   7 N :    0.001856   -0.001616
   8 C :    0.834578    0.369440
   9 C :    1.124642    0.315581
  10 C :   -0.219196   -0.210908
  11 C :   -0.027955   -0.169141
  12 C :   -1.553589    0.021921
  13 C :   -1.486304    0.006743
  14 C :    0.283557   -0.207575
  15 C :   -0.082388   -0.192481
  16 C :    0.409313    0.018196
  17 C :    0.294060    0.012931
  18 H :    0.534694    0.008422
  19 H :    0.639860    0.003387
  20 H :    0.410937    0.008556
  21 H :    0.303850   -0.004355
  22 H :    0.312516    0.009927
  23 H :    0.375935    0.000632
  24 H :    0.324342    0.002748
  25 H :    0.299422    0.007368
  26 H :    0.094382    0.001263
  27 H :    0.017890    0.000234
  28 H :    0.107440    0.001770
  29 H :    0.183409    0.001065
Sum of atomic charges       :    0.0000000

LOEWDIN ATOMIC CHARGES AND SPIN DENSITIES
-----------------------------------------
   0 O :    0.117373    0.004767
   1 O :    0.046759   -0.005131
   2 O :    0.100567    0.000320
   3 O :    0.102230    0.000453
   4 N :    0.286673   -0.000732
   5 N :    0.292938   -0.000442
   6 N :    0.314521   -0.003196
   7 N :    0.291953   -0.002612
   8 C :   -0.062511    0.028625
   9 C :   -0.029991   -0.006870
  10 C :   -0.049543   -0.002835
  11 C :   -0.097094   -0.003396
  12 C :    0.171851    0.003524
  13 C :    0.183049   -0.004179
  14 C :   -0.462780   -0.000409
  15 C :   -0.407830   -0.006204
  16 C :   -0.500521   -0.000238
  17 C :   -0.449134   -0.000141
  18 H :    0.037984   -0.001182
  19 H :    0.003712   -0.000531
  20 H :    0.021217    0.001950
  21 H :    0.002573   -0.000041
  22 H :    0.024583    0.001092
  23 H :    0.052863   -0.001008
  24 H :    0.012591   -0.000255
  25 H :   -0.042407   -0.000820
  26 H :   -0.032697   -0.000043
  27 H :   -0.052444   -0.000064
  28 H :    0.046452   -0.000243
  29 H :    0.077062   -0.000161

  Mayer bond orders larger than 0.100000
B(  0-O , 14-C ) :   1.3186 B(  1-O , 15-C ) :   1.3765 B(  2-O , 16-C ) :   1.5296
B(  3-O , 17-C ) :   1.5962 B(  4-N ,  8-C ) :   0.1748 B(  4-N ,  9-C ) :   0.1013
B(  4-N , 10-C ) :   0.5938 B(  4-N , 11-C ) :  -0.1068 B(  4-N , 16-C ) :   1.0469
B(  4-N , 18-H ) :  -0.1044 B(  4-N , 26-H ) :   1.0471 B(  5-N ,  9-C ) :   0.2323
B(  5-N , 10-C ) :   0.1547 B(  5-N , 11-C ) :   0.2388 B(  5-N , 17-C ) :   1.1414
B(  5-N , 19-H ) :  -0.1125 B(  5-N , 27-H ) :   1.1564 B(  6-N ,  8-C ) :  -0.1428
B(  6-N , 10-C ) :   0.1486 B(  6-N , 14-C ) :   1.0323 B(  6-N , 16-C ) :   0.9197
B(  6-N , 28-H ) :   1.0581 B(  7-N , 15-C ) :   1.1111 B(  7-N , 17-C ) :   0.9967
B(  7-N , 29-H ) :   0.9590 B(  8-C ,  9-C ) :   0.2522 B(  8-C , 10-C ) :   0.4184
B(  8-C , 12-C ) :   0.2111 B(  8-C , 14-C ) :   0.7574 B(  8-C , 18-H ) :  -0.1832
B(  8-C , 21-H ) :  -0.1025 B(  8-C , 22-H ) :  -0.1078 B(  9-C , 11-C ) :   0.1032
B(  9-C , 13-C ) :   0.4216 B(  9-C , 15-C ) :   0.5522 B(  9-C , 19-H ) :  -0.1765
B(  9-C , 24-H ) :  -0.1262 B( 10-C , 11-C ) :   0.5499 B( 10-C , 12-C ) :  -0.1216
B( 10-C , 16-C ) :  -0.1151 B( 10-C , 18-H ) :   0.8193 B( 11-C , 13-C ) :  -0.2552
B( 11-C , 17-C ) :  -0.2096 B( 11-C , 19-H ) :   0.7842 B( 12-C , 20-H ) :   0.8626
B( 12-C , 21-H ) :   1.0688 B( 12-C , 22-H ) :   0.9513 B( 13-C , 15-C ) :   0.1123
B( 13-C , 23-H ) :   0.8064 B( 13-C , 24-H ) :   1.0613 B( 13-C , 25-H ) :   0.9254
B( 14-C , 16-C ) :  -0.1030 B( 15-C , 17-C ) :  -0.1090

Dispersion correction           -0.059654038
FINAL SINGLE POINT ENERGY      -908.761599685028

DIPOLE MOMENT
-------------

Method             : TDA/CIS
Type of density    : Electron Density
Level              : Relaxed density
State              :   2
Multiplicity       :   3
Irrep              :   0
Energy             :     0.0000000000000000 Eh
Relativity type    :
Basis              : AO
                                X                 Y                 Z
Electronic contribution:     -3.317065799     -10.554630590      -6.621526205
Nuclear contribution   :      2.950263960      11.981126412       9.244454382
                        -----------------------------------------
Total Dipole Moment    :     -0.366801839       1.426495822       2.622928177
                        -----------------------------------------
Magnitude (a.u.)       :      3.008186521
Magnitude (Debye)      :      7.646202482

Rotational constants in cm-1:             0.020053             0.014495             0.012383
Rotational constants in MHz :           601.175461           434.557821           371.245002

                             ****ORCA TERMINATED NORMALLY****
TOTAL RUN TIME: 0 days 0 hours 4 minutes 36 seconds 443 msec
