                         Program Version 6.0.0  -   RELEASE  -
|  1> ! Engrad def2-TZVPPD wB97M-D3BJ
|  2> %pal nprocs 8 end%pal nprocs 64 end
|  3> %tddft
|  4>  Iroot 1 Nroots 3
|  5> sf true
|  6> end
|  7> *xyz 0 3
|  8> O   0.73167307 0.8790644 0.9749722
|  9> C   -0.00291812 0.23084239 -0.0268633
| 10> C   0.53066764 -1.00760697 -0.78845062
| 11> H   -0.36473179 0.89147908 -0.83061324
| 12> H   -0.76787524 -0.13739894 0.65089721
| 13> H   0.32067704 -0.9755344 -1.79808915
| 14> H   1.40323301 -1.56265217 -0.50101564
| 15> *
| 16>
| 17>                          ****END OF INPUT****

CARTESIAN COORDINATES (ANGSTROEM)
---------------------------------
  O      0.731673    0.879064    0.974972
  C     -0.002918    0.230842   -0.026863
  C      0.530668   -1.007607   -0.788451
  H     -0.364732    0.891479   -0.830613
  H     -0.767875   -0.137399    0.650897
  H      0.320677   -0.975534   -1.798089
  H      1.403233   -1.562652   -0.501016

 Total Charge           Charge          ....    0
 Multiplicity           Mult            ....    3
 Number of Electrons    NEL             ....   24
 Basis Dimension        Dim             ....  182

ORBITAL ENERGIES
----------------
                 SPIN UP ORBITALS
  NO   OCC          E(Eh)            E(eV)
   0   1.0000     -19.392742      -527.7033
   1   1.0000     -10.419219      -283.5214
   2   1.0000     -10.372059      -282.2381
   3   1.0000      -1.158605       -31.5272
   4   1.0000      -0.878132       -23.8952
   5   1.0000      -0.739757       -20.1298
   6   1.0000      -0.619028       -16.8446
   7   1.0000      -0.577303       -15.7092
   8   1.0000      -0.553062       -15.0496
   9   1.0000      -0.516518       -14.0552
  10   1.0000      -0.445333       -12.1181
  11   1.0000      -0.414448       -11.2777
  12   1.0000      -0.332580        -9.0500
  13   0.0000       0.041373         1.1258
  14   0.0000       0.061248         1.6666
  15   0.0000       0.078917         2.1474
  16   0.0000       0.087354         2.3770
  17   0.0000       0.110176         2.9980

                 SPIN DOWN ORBITALS
  NO   OCC          E(Eh)            E(eV)
   0   1.0000     -19.368840      -527.0529
   1   1.0000     -10.420152      -283.5467
   2   1.0000     -10.358259      -281.8626
   3   1.0000      -1.103973       -30.0406
   4   1.0000      -0.845764       -23.0144
   5   1.0000      -0.711043       -19.3485
   6   1.0000      -0.592668       -16.1273
   7   1.0000      -0.538890       -14.6639
   8   1.0000      -0.524202       -14.2643
   9   1.0000      -0.498209       -13.5569
  10   1.0000      -0.385582       -10.4922
  11   0.0000      -0.050508        -1.3744
  12   0.0000      -0.005628        -0.1531
  13   0.0000       0.041091         1.1181
  14   0.0000       0.061445         1.6720
  15   0.0000       0.079399         2.1606

----------------------------------------------------------------------------------------------------
          SPIN FLIP ABSORPTION SPECTRUM VIA TRANSITION ELECTRIC DIPOLE MOMENTS
----------------------------------------------------------------------------------------------------
     Transition      Energy     Energy  Wavelength fosc(D2)      D2        DX        DY        DZ
                      (eV)      (cm-1)    (nm)                 (au**2)    (au)      (au)      (au)
----------------------------------------------------------------------------------------------------
  1-3A  ->  2-3A    0.302595    2440.6  4097.4   0.000758323   0.10229   0.04393   0.17961   0.26096
  1-3A  ->  3-3A    0.871499    7029.1  1422.7   0.003642757   0.17061   0.13201   0.30432   0.24612

Dispersion correction             ... done (  0.1 sec)

MULLIKEN ATOMIC CHARGES AND SPIN DENSITIES
------------------------------------------
   0 O :   -0.400358    0.444751
   1 C :    0.035991    0.094034
   2 C :   -0.455600   -0.474884
   3 H :    0.255500   -0.017436
   4 H :    0.157843    0.011739
   5 H :    0.182196   -0.036802
   6 H :    0.224428   -0.021402
Sum of atomic charges       :    0.0000000

LOEWDIN ATOMIC CHARGES AND SPIN DENSITIES
-----------------------------------------
   0 O :   -0.008608    0.405736
   1 C :   -0.208672   -0.004337
   2 C :    0.346013   -0.326635
   3 H :    0.030426   -0.009270
   4 H :    0.020587    0.028934
   5 H :   -0.116227   -0.051443
   6 H :   -0.063518   -0.042985

  Mayer bond orders larger than 0.100000
B(  0-O ,  1-C ) :   0.9393 B(  0-O ,  2-C ) :   0.1728 B(  0-O ,  4-H ) :   0.1018
B(  1-C ,  2-C ) :   0.8349 B(  1-C ,  3-H ) :   0.9148 B(  1-C ,  4-H ) :   0.9057
B(  2-C ,  5-H ) :   1.0470 B(  2-C ,  6-H ) :   0.9976

Dispersion correction           -0.005444039
FINAL SINGLE POINT ENERGY      -153.743793863611

DIPOLE MOMENT
-------------

Method             : TDA/CIS
Type of density    : Electron Density
Level              : Relaxed density
State              :   1
Multiplicity       :   3
Irrep              :   0
Energy             :     0.0000000000000000 Eh
Relativity type    :
Basis              : AO
                                X                 Y                 Z
Electronic contribution:      0.655750194       1.517489001       1.832915101
Nuclear contribution   :     -1.028634624      -1.911902549      -2.593989441
                        -----------------------------------------
Total Dipole Moment    :     -0.372884430      -0.394413548      -0.761074340
                        -----------------------------------------
Magnitude (a.u.)       :      0.934793558
Magnitude (Debye)      :      2.376056396

Rotational constants in cm-1:             1.650916             0.306562             0.275550
Rotational constants in MHz :         49493.204740          9190.497605          8260.792724

                             ****ORCA TERMINATED NORMALLY****
TOTAL RUN TIME: 0 days 0 hours 0 minutes 26 seconds 647 msec
