                         Program Version 6.0.0  -   RELEASE  -
|  1> ! Engrad def2-TZVPPD wB97M-D3BJ
|  2> %pal nprocs 8 end%pal nprocs 64 end
|  3> %tddft
|  4>  Iroot 1 Nroots 3
|  5> sf true
|  6> end
|  7> *xyz 0 3
|  8> O   3.14072 -0.80772915 -1.90774011
|  9> O   -1.96634238 1.64521729 -1.57553719
| 10> O   -0.9438676 -2.79620496 -1.47595942
| 11> O   -3.08847079 0.91880024 2.68588325
| 12> N   -0.18984288 -1.5024841 0.24371253
| 13> N   -0.85757351 0.74202663 2.0878753
| 14> N   1.1104264 -1.80212229 -1.69241711
| 15> N   -2.51424093 0.92079885 0.50762672
| 16> C   2.08324243 -0.6226568 0.15007704
| 17> C   -0.15113109 1.44007388 -0.0873201
| 18> C   0.79196559 -0.67632141 0.94172712
| 19> C   0.21450039 0.74158375 1.10911821
| 20> C   3.25970753 0.01829235 0.68392988
| 21> C   0.86213814 1.91157596 -1.10776795
| 22> C   2.21912395 -1.13531747 -1.23481992
| 23> C   -1.56323742 1.3611604 -0.44181158
| 24> C   -0.07419124 -2.06570638 -0.99907372
| 25> C   -2.22105721 0.87484012 1.83423979
| 26> H   1.05466783 -0.98844753 1.97231604
| 27> H   1.07862492 1.2187558 1.55290452
| 28> H   3.2181331 0.39779837 1.71045849
| 29> H   4.05655164 -0.68447022 0.63890419
| 30> H   3.67975935 0.79728884 -0.04132903
| 31> H   0.55400615 2.66566155 -1.71063089
| 32> H   1.73273711 2.32101335 -0.55550311
| 33> H   1.28884319 1.11669585 -1.70382492
| 34> H   -1.03133647 -1.53026067 0.80698824
| 35> H   -0.55819729 0.94473854 3.02198699
| 36> H   1.33983429 -2.24426616 -2.56227352
| 37> H   -3.47103111 1.21968144 0.29648837
| 38> *
| 39>
| 40>                          ****END OF INPUT****

CARTESIAN COORDINATES (ANGSTROEM)
---------------------------------
  O      3.140720   -0.807729   -1.907740
  O     -1.966342    1.645217   -1.575537
  O     -0.943868   -2.796205   -1.475959
  O     -3.088471    0.918800    2.685883
  N     -0.189843   -1.502484    0.243713
  N     -0.857574    0.742027    2.087875
  N      1.110426   -1.802122   -1.692417
  N     -2.514241    0.920799    0.507627
  C      2.083242   -0.622657    0.150077
  C     -0.151131    1.440074   -0.087320
  C      0.791966   -0.676321    0.941727
  C      0.214500    0.741584    1.109118
  C      3.259708    0.018292    0.683930
  C      0.862138    1.911576   -1.107768
  C      2.219124   -1.135317   -1.234820
  C     -1.563237    1.361160   -0.441812
  C     -0.074191   -2.065706   -0.999074
  C     -2.221057    0.874840    1.834240
  H      1.054668   -0.988448    1.972316
  H      1.078625    1.218756    1.552905
  H      3.218133    0.397798    1.710458
  H      4.056552   -0.684470    0.638904
  H      3.679759    0.797289   -0.041329
  H      0.554006    2.665662   -1.710631
  H      1.732737    2.321013   -0.555503
  H      1.288843    1.116696   -1.703825
  H     -1.031336   -1.530261    0.806988
  H     -0.558197    0.944739    3.021987
  H      1.339834   -2.244266   -2.562274
  H     -3.471031    1.219681    0.296488

 Total Charge           Charge          ....    0
 Multiplicity           Mult            ....    3
 Number of Electrons    NEL             ....  132
 Basis Dimension        Dim             ....  882

ORBITAL ENERGIES
----------------
                 SPIN UP ORBITALS
  NO   OCC          E(Eh)            E(eV)
   0   1.0000     -19.340931      -526.2935
   1   1.0000     -19.338712      -526.2331
   2   1.0000     -19.322884      -525.8024
   3   1.0000     -19.316147      -525.6191
   4   1.0000     -14.569101      -396.4454
   5   1.0000     -14.566922      -396.3861
   6   1.0000     -14.565173      -396.3385
   7   1.0000     -14.563461      -396.2919
   8   1.0000     -10.515713      -286.1471
   9   1.0000     -10.508820      -285.9595
  10   1.0000     -10.485310      -285.3198
  11   1.0000     -10.484439      -285.2961
  12   1.0000     -10.447909      -284.3021
  13   1.0000     -10.438636      -284.0497
  14   1.0000     -10.423563      -283.6396
  15   1.0000     -10.415303      -283.4148
  16   1.0000     -10.377111      -282.3756
  17   1.0000     -10.369701      -282.1739
  18   1.0000      -1.231359       -33.5070
  19   1.0000      -1.220354       -33.2075
  20   1.0000      -1.197001       -32.5721
  21   1.0000      -1.191380       -32.4191
  22   1.0000      -1.121355       -30.5136
  23   1.0000      -1.098828       -29.9006
  24   1.0000      -1.074055       -29.2265
  25   1.0000      -1.059467       -28.8296
  26   1.0000      -0.987771       -26.8786
  27   1.0000      -0.959888       -26.1199
  28   1.0000      -0.897824       -24.4310
  29   1.0000      -0.848955       -23.1012
  30   1.0000      -0.827097       -22.5065
  31   1.0000      -0.806795       -21.9540
  32   1.0000      -0.792739       -21.5715
  33   1.0000      -0.782496       -21.2928
  34   1.0000      -0.710983       -19.3468
  35   1.0000      -0.701967       -19.1015
  36   1.0000      -0.693331       -18.8665
  37   1.0000      -0.681740       -18.5511
  38   1.0000      -0.651159       -17.7190
  39   1.0000      -0.641545       -17.4573
  40   1.0000      -0.627720       -17.0811
  41   1.0000      -0.611969       -16.6525
  42   1.0000      -0.603969       -16.4348
  43   1.0000      -0.592862       -16.1326
  44   1.0000      -0.578239       -15.7347
  45   1.0000      -0.577129       -15.7045
  46   1.0000      -0.569921       -15.5083
  47   1.0000      -0.564862       -15.3707
  48   1.0000      -0.559784       -15.2325
  49   1.0000      -0.556017       -15.1300
  50   1.0000      -0.551081       -14.9957
  51   1.0000      -0.535669       -14.5763
  52   1.0000      -0.530517       -14.4361
  53   1.0000      -0.527255       -14.3473
  54   1.0000      -0.517911       -14.0931
  55   1.0000      -0.506364       -13.7789
  56   1.0000      -0.501565       -13.6483
  57   1.0000      -0.424132       -11.5412
  58   1.0000      -0.421609       -11.4726
  59   1.0000      -0.416886       -11.3440
  60   1.0000      -0.406980       -11.0745
  61   1.0000      -0.401728       -10.9316
  62   1.0000      -0.392942       -10.6925
  63   1.0000      -0.390885       -10.6365
  64   1.0000      -0.382380       -10.4051
  65   1.0000      -0.354332        -9.6419
  66   1.0000      -0.324113        -8.8196
  67   0.0000       0.006204         0.1688
  68   0.0000       0.029239         0.7956
  69   0.0000       0.032425         0.8823
  70   0.0000       0.034528         0.9395
  71   0.0000       0.052246         1.4217

                 SPIN DOWN ORBITALS
  NO   OCC          E(Eh)            E(eV)
   0   1.0000     -19.338142      -526.2176
   1   1.0000     -19.333303      -526.0859
   2   1.0000     -19.322825      -525.8008
   3   1.0000     -19.316067      -525.6169
   4   1.0000     -14.568348      -396.4249
   5   1.0000     -14.566738      -396.3811
   6   1.0000     -14.564937      -396.3321
   7   1.0000     -14.563498      -396.2929
   8   1.0000     -10.515746      -286.1480
   9   1.0000     -10.508833      -285.9599
  10   1.0000     -10.486513      -285.3525
  11   1.0000     -10.485152      -285.3155
  12   1.0000     -10.447365      -284.2873
  13   1.0000     -10.438377      -284.0427
  14   1.0000     -10.412371      -283.3350
  15   1.0000     -10.403770      -283.1010
  16   1.0000     -10.377699      -282.3915
  17   1.0000     -10.370164      -282.1865
  18   1.0000      -1.227520       -33.4025
  19   1.0000      -1.218885       -33.1675
  20   1.0000      -1.196107       -32.5477
  21   1.0000      -1.184982       -32.2450
  22   1.0000      -1.118532       -30.4368
  23   1.0000      -1.096994       -29.8507
  24   1.0000      -1.072308       -29.1790
  25   1.0000      -1.058273       -28.7971
  26   1.0000      -0.975786       -26.5525
  27   1.0000      -0.942584       -25.6490
  28   1.0000      -0.891799       -24.2671
  29   1.0000      -0.843398       -22.9500
  30   1.0000      -0.818346       -22.2683
  31   1.0000      -0.802931       -21.8489
  32   1.0000      -0.790569       -21.5125
  33   1.0000      -0.779946       -21.2234
  34   1.0000      -0.707639       -19.2558
  35   1.0000      -0.695620       -18.9288
  36   1.0000      -0.687504       -18.7079
  37   1.0000      -0.675153       -18.3719
  38   1.0000      -0.643481       -17.5100
  39   1.0000      -0.631217       -17.1763
  40   1.0000      -0.623130       -16.9562
  41   1.0000      -0.606364       -16.5000
  42   1.0000      -0.597222       -16.2512
  43   1.0000      -0.587256       -15.9801
  44   1.0000      -0.573336       -15.6013
  45   1.0000      -0.568574       -15.4717
  46   1.0000      -0.563726       -15.3398
  47   1.0000      -0.558915       -15.2089
  48   1.0000      -0.551442       -15.0055
  49   1.0000      -0.549381       -14.9494
  50   1.0000      -0.540531       -14.7086
  51   1.0000      -0.530783       -14.4433
  52   1.0000      -0.525417       -14.2973
  53   1.0000      -0.515480       -14.0269
  54   1.0000      -0.510440       -13.8898
  55   1.0000      -0.500377       -13.6160
  56   1.0000      -0.494363       -13.4523
  57   1.0000      -0.419155       -11.4058
  58   1.0000      -0.417182       -11.3521
  59   1.0000      -0.409282       -11.1371
  60   1.0000      -0.397580       -10.8187
  61   1.0000      -0.393476       -10.7070
  62   1.0000      -0.389068       -10.5871
  63   1.0000      -0.386995       -10.5307
  64   1.0000      -0.376508       -10.2453
  65   0.0000      -0.068166        -1.8549
  66   0.0000      -0.046543        -1.2665
  67   0.0000       0.005472         0.1489
  68   0.0000       0.028983         0.7887
  69   0.0000       0.031903         0.8681

----------------------------------------------------------------------------------------------------
          SPIN FLIP ABSORPTION SPECTRUM VIA TRANSITION ELECTRIC DIPOLE MOMENTS
----------------------------------------------------------------------------------------------------
     Transition      Energy     Energy  Wavelength fosc(D2)      D2        DX        DY        DZ
                      (eV)      (cm-1)    (nm)                 (au**2)    (au)      (au)      (au)
----------------------------------------------------------------------------------------------------
  1-3A  ->  2-3A    0.112828     910.0  10988.8   0.000040016   0.01448  -0.08724   0.07735   0.02972
  1-3A  ->  3-3A    2.062988   16639.1   601.0   0.001772487   0.03507   0.13119  -0.08900   0.09970

Dispersion correction             ... done (  0.1 sec)

MULLIKEN ATOMIC CHARGES AND SPIN DENSITIES
------------------------------------------
   0 O :   -0.621669   -0.032386
   1 O :   -0.670074    0.060434
   2 O :   -0.677116   -0.001054
   3 O :   -0.650992   -0.000090
   4 N :   -0.168027    0.000511
   5 N :   -0.190321    0.000704
   6 N :    0.019278   -0.009381
   7 N :   -0.036048    0.003344
   8 C :    0.810178    0.309591
   9 C :    0.232301    0.348397
  10 C :   -0.033933   -0.284265
  11 C :    0.258863   -0.103903
  12 C :   -1.495428   -0.015532
  13 C :   -1.388066   -0.009208
  14 C :    0.153787   -0.224630
  15 C :    0.195879   -0.066301
  16 C :    0.459248    0.020403
  17 C :    0.369241    0.002181
  18 H :    0.381174   -0.038217
  19 H :    0.798104    0.005877
  20 H :    0.322126   -0.005814
  21 H :    0.400212    0.003299
  22 H :    0.275962    0.002286
  23 H :    0.374507    0.000189
  24 H :    0.330010    0.006419
  25 H :    0.280897    0.022084
  26 H :    0.067778    0.002146
  27 H :    0.040246   -0.000400
  28 H :    0.030547    0.002923
  29 H :    0.131336    0.000392
Sum of atomic charges       :    0.0000000

LOEWDIN ATOMIC CHARGES AND SPIN DENSITIES
-----------------------------------------
   0 O :    0.107884   -0.026887
   1 O :    0.081517    0.052308
   2 O :    0.067512   -0.000951
   3 O :    0.081828   -0.000144
   4 N :    0.293933    0.000669
   5 N :    0.291669   -0.000030
   6 N :    0.337211   -0.011052
   7 N :    0.308712    0.000659
   8 C :   -0.033471   -0.140864
   9 C :    0.006520    0.150931
  10 C :   -0.091285   -0.011380
  11 C :   -0.171689    0.012652
  12 C :    0.154010   -0.025461
  13 C :    0.253810    0.017030
  14 C :   -0.466050   -0.026881
  15 C :   -0.354966    0.018530
  16 C :   -0.437027   -0.000476
  17 C :   -0.493993   -0.000297
  18 H :    0.074827   -0.004653
  19 H :    0.039259    0.003355
  20 H :    0.010484    0.000346
  21 H :   -0.010172   -0.006878
  22 H :    0.051050   -0.007612
  23 H :   -0.053548    0.000401
  24 H :    0.020771    0.001592
  25 H :   -0.000882    0.005789
  26 H :   -0.025175    0.000076
  27 H :   -0.035033   -0.000083
  28 H :   -0.016340   -0.000811
  29 H :    0.008635    0.000122

  Mayer bond orders larger than 0.100000
B(  0-O , 14-C ) :   1.4683 B(  1-O , 15-C ) :   1.3479 B(  2-O , 16-C ) :   1.5893
B(  3-O , 17-C ) :   1.6202 B(  4-N , 10-C ) :   0.6431 B(  4-N , 16-C ) :   1.0316
B(  4-N , 26-H ) :   1.1461 B(  5-N , 10-C ) :   0.2881 B(  5-N , 11-C ) :   0.2030
B(  5-N , 17-C ) :   1.1340 B(  5-N , 19-H ) :  -0.1180 B(  5-N , 27-H ) :   1.1325
B(  6-N ,  8-C ) :  -0.1471 B(  6-N , 14-C ) :   1.0450 B(  6-N , 16-C ) :   0.9499
B(  6-N , 28-H ) :   1.1222 B(  7-N , 15-C ) :   1.0420 B(  7-N , 17-C ) :   1.0185
B(  7-N , 29-H ) :   0.9833 B(  8-C ,  9-C ) :   0.1658 B(  8-C , 10-C ) :   0.7988
B(  8-C , 11-C ) :   0.1059 B(  8-C , 12-C ) :   0.2256 B(  8-C , 14-C ) :   0.4670
B(  8-C , 16-C ) :   0.1187 B(  8-C , 18-H ) :  -0.1552 B(  8-C , 20-H ) :  -0.1338
B(  9-C , 10-C ) :   0.1485 B(  9-C , 11-C ) :   0.6601 B(  9-C , 13-C ) :   0.2838
B(  9-C , 15-C ) :   0.9504 B(  9-C , 19-H ) :  -0.2846 B( 10-C , 11-C ) :   0.5581
B( 10-C , 12-C ) :  -0.1443 B( 10-C , 18-H ) :   0.9322 B( 10-C , 19-H ) :  -0.1497
B( 11-C , 12-C ) :   0.1265 B( 11-C , 15-C ) :  -0.2235 B( 11-C , 17-C ) :  -0.1997
B( 11-C , 18-H ) :  -0.1006 B( 11-C , 19-H ) :   0.6145 B( 12-C , 20-H ) :   1.0508
B( 12-C , 21-H ) :   0.9020 B( 12-C , 22-H ) :   0.9269 B( 13-C , 23-H ) :   1.0146
B( 13-C , 24-H ) :   1.0032 B( 13-C , 25-H ) :   0.7960

Dispersion correction           -0.058623418
FINAL SINGLE POINT ENERGY      -908.776656338614

DIPOLE MOMENT
-------------

Method             : TDA/CIS
Type of density    : Electron Density
Level              : Relaxed density
State              :   1
Multiplicity       :   3
Irrep              :   0
Energy             :     0.0000000000000000 Eh
Relativity type    :
Basis              : AO
                                X                 Y                 Z
Electronic contribution:    -10.022729787      -4.663721965      -1.862641637
Nuclear contribution   :     12.172105040       5.433171224       3.486991445
                        -----------------------------------------
Total Dipole Moment    :      2.149375253       0.769449259       1.624349808
                        -----------------------------------------
Magnitude (a.u.)       :      2.801852680
Magnitude (Debye)      :      7.121743538

Rotational constants in cm-1:             0.022698             0.011296             0.010552
Rotational constants in MHz :           680.468166           338.645910           316.351753

                             ****ORCA TERMINATED NORMALLY****
TOTAL RUN TIME: 0 days 0 hours 4 minutes 57 seconds 719 msec
