                         Program Version 6.0.0  -   RELEASE  -
|  1> ! Engrad def2-TZVPPD wB97M-D3BJ
|  2> %pal nprocs 8 end%pal nprocs 64 end
|  3> %tddft
|  4>  Iroot 1 Nroots 3
|  5> sf true
|  6> end
|  7> *xyz 0 3
|  8> O   -0.0084255 0.88062104 0.77220034
|  9> C   0.4822494 -0.36217824 0.41057399
| 10> C   0.79223317 -0.38739462 -1.04988217
| 11> H   -0.24767164 -1.13282535 0.64383265
| 12> H   1.35662678 -0.44660959 1.10370265
| 13> H   1.68598718 -0.67052334 -1.51643165
| 14> H   0.01183602 0.05709065 -1.69979619
| 15> *
| 16>
| 17>                          ****END OF INPUT****

CARTESIAN COORDINATES (ANGSTROEM)
---------------------------------
  O     -0.008425    0.880621    0.772200
  C      0.482249   -0.362178    0.410574
  C      0.792233   -0.387395   -1.049882
  H     -0.247672   -1.132825    0.643833
  H      1.356627   -0.446610    1.103703
  H      1.685987   -0.670523   -1.516432
  H      0.011836    0.057091   -1.699796

 Total Charge           Charge          ....    0
 Multiplicity           Mult            ....    3
 Number of Electrons    NEL             ....   24
 Basis Dimension        Dim             ....  182

ORBITAL ENERGIES
----------------
                 SPIN UP ORBITALS
  NO   OCC          E(Eh)            E(eV)
   0   1.0000     -19.387849      -527.5702
   1   1.0000     -10.415331      -283.4156
   2   1.0000     -10.362902      -281.9889
   3   1.0000      -1.165588       -31.7173
   4   1.0000      -0.870617       -23.6907
   5   1.0000      -0.737419       -20.0662
   6   1.0000      -0.622534       -16.9400
   7   1.0000      -0.584293       -15.8994
   8   1.0000      -0.549485       -14.9522
   9   1.0000      -0.511750       -13.9254
  10   1.0000      -0.443716       -12.0741
  11   1.0000      -0.413726       -11.2580
  12   1.0000      -0.321801        -8.7567
  13   0.0000       0.041823         1.1381
  14   0.0000       0.061705         1.6791
  15   0.0000       0.078203         2.1280
  16   0.0000       0.086890         2.3644
  17   0.0000       0.112747         3.0680

                 SPIN DOWN ORBITALS
  NO   OCC          E(Eh)            E(eV)
   0   1.0000     -19.363623      -526.9110
   1   1.0000     -10.416610      -283.4504
   2   1.0000     -10.349807      -281.6326
   3   1.0000      -1.110811       -30.2267
   4   1.0000      -0.837340       -22.7852
   5   1.0000      -0.711207       -19.3529
   6   1.0000      -0.586762       -15.9666
   7   1.0000      -0.555434       -15.1141
   8   1.0000      -0.526591       -14.3293
   9   1.0000      -0.485586       -13.2135
  10   1.0000      -0.382340       -10.4040
  11   0.0000      -0.052376        -1.4252
  12   0.0000       0.003477         0.0946
  13   0.0000       0.040601         1.1048
  14   0.0000       0.061840         1.6827
  15   0.0000       0.078205         2.1281

----------------------------------------------------------------------------------------------------
          SPIN FLIP ABSORPTION SPECTRUM VIA TRANSITION ELECTRIC DIPOLE MOMENTS
----------------------------------------------------------------------------------------------------
     Transition      Energy     Energy  Wavelength fosc(D2)      D2        DX        DY        DZ
                      (eV)      (cm-1)    (nm)                 (au**2)    (au)      (au)      (au)
----------------------------------------------------------------------------------------------------
  1-3A  ->  2-3A    0.263033    2121.5  4713.6   0.000427138   0.06628   0.06619  -0.05324  -0.24304
  1-3A  ->  3-3A    0.938259    7567.6  1321.4   0.017510813   0.76177   0.35273  -0.51271  -0.61195

Dispersion correction             ... done (  0.1 sec)

MULLIKEN ATOMIC CHARGES AND SPIN DENSITIES
------------------------------------------
   0 O :   -0.433045   -0.291419
   1 C :   -0.026902   -0.016192
   2 C :   -0.420695    0.182434
   3 H :    0.207655    0.055360
   4 H :    0.219595    0.032745
   5 H :    0.226635    0.018189
   6 H :    0.226757    0.018883
Sum of atomic charges       :    0.0000000

LOEWDIN ATOMIC CHARGES AND SPIN DENSITIES
-----------------------------------------
   0 O :   -0.048772   -0.309692
   1 C :   -0.277795    0.033920
   2 C :    0.355510    0.196517
   3 H :    0.009677    0.025124
   4 H :    0.054905    0.010020
   5 H :   -0.074923    0.022565
   6 H :   -0.018603    0.021547

  Mayer bond orders larger than 0.100000
B(  0-O ,  1-C ) :   0.9180 B(  0-O ,  2-C ) :   0.3612 B(  1-C ,  2-C ) :   0.8444
B(  1-C ,  3-H ) :   0.9933 B(  1-C ,  4-H ) :   0.9119 B(  2-C ,  5-H ) :   0.9463
B(  2-C ,  6-H ) :   0.9790

Dispersion correction           -0.005497634
FINAL SINGLE POINT ENERGY      -153.756157019344

DIPOLE MOMENT
-------------

Method             : TDA/CIS
Type of density    : Electron Density
Level              : Relaxed density
State              :   1
Multiplicity       :   3
Irrep              :   0
Energy             :     0.0000000000000000 Eh
Relativity type    :
Basis              : AO
                                X                 Y                 Z
Electronic contribution:     -0.545228808       1.324391555       1.006473137
Nuclear contribution   :      1.093543130      -2.290193275      -1.639737067
                        -----------------------------------------
Total Dipole Moment    :      0.548314322      -0.965801720      -0.633263930
                        -----------------------------------------
Magnitude (a.u.)       :      1.278454052
Magnitude (Debye)      :      3.249571953

Rotational constants in cm-1:             1.367582             0.359220             0.310704
Rotational constants in MHz :         40999.080164         10769.131652          9314.674792

                             ****ORCA TERMINATED NORMALLY****
TOTAL RUN TIME: 0 days 0 hours 0 minutes 26 seconds 690 msec
