                         Program Version 6.0.0  -   RELEASE  -
|  1> ! Engrad wB97M-D3BJ def2-TZVPPD
|  2> %pal nprocs 8 end%pal nprocs 16 end
|  3> %tddft nroots 2 Iroot 1
|  4>  sf true
|  5> end
|  6> *xyz 0 3
|  7> O   0.81900173079363 1.01052482486538 0.0002262594179
|  8> C   0.77535163933364 -0.32785208920929 -1.716946012e-05
|  9> C   -0.64132356066298 -0.59922173079162 -5.265308365e-05
| 10> H   1.2612925521185 -0.77768544593964 0.88009377427145
| 11> H   1.26105525893093 -0.77715245033512 -0.88057534401517
| 12> H   -1.20402576074013 -0.53555146162301 -0.92258618539242
| 13> H   -1.20314943871076 -0.53352025050044 0.922911318262
| 14> *
| 15>
| 16>                          ****END OF INPUT****

CARTESIAN COORDINATES (ANGSTROEM)
---------------------------------
  O      0.819002    1.010525    0.000226
  C      0.775352   -0.327852   -0.000017
  C     -0.641324   -0.599222   -0.000053
  H      1.261293   -0.777685    0.880094
  H      1.261055   -0.777152   -0.880575
  H     -1.204026   -0.535551   -0.922586
  H     -1.203149   -0.533520    0.922911

 Total Charge           Charge          ....    0
 Multiplicity           Mult            ....    3
 Number of Electrons    NEL             ....   24
 Basis Dimension        Dim             ....  182

ORBITAL ENERGIES
----------------
                 SPIN UP ORBITALS
  NO   OCC          E(Eh)            E(eV)
   0   1.0000     -19.394907      -527.7623
   1   1.0000     -10.407231      -283.1951
   2   1.0000     -10.352100      -281.6950
   3   1.0000      -1.192004       -32.4361
   4   1.0000      -0.875641       -23.8274
   5   1.0000      -0.735135       -20.0040
   6   1.0000      -0.634169       -17.2566
   7   1.0000      -0.593195       -16.1417
   8   1.0000      -0.556012       -15.1299
   9   1.0000      -0.515409       -14.0250
  10   1.0000      -0.438374       -11.9288
  11   1.0000      -0.422508       -11.4970
  12   1.0000      -0.312444        -8.5020
  13   0.0000       0.041148         1.1197
  14   0.0000       0.063266         1.7215
  15   0.0000       0.073873         2.0102
  16   0.0000       0.087070         2.3693
  17   0.0000       0.117206         3.1893

                 SPIN DOWN ORBITALS
  NO   OCC          E(Eh)            E(eV)
   0   1.0000     -19.369224      -527.0634
   1   1.0000     -10.408554      -283.2312
   2   1.0000     -10.339251      -281.3453
   3   1.0000      -1.135935       -30.9104
   4   1.0000      -0.841984       -22.9115
   5   1.0000      -0.711281       -19.3549
   6   1.0000      -0.595496       -16.2043
   7   1.0000      -0.560223       -15.2444
   8   1.0000      -0.534069       -14.5328
   9   1.0000      -0.477987       -13.0067
  10   1.0000      -0.383757       -10.4426
  11   0.0000      -0.065093        -1.7713
  12   0.0000       0.008772         0.2387
  13   0.0000       0.040059         1.0901
  14   0.0000       0.063936         1.7398
  15   0.0000       0.073396         1.9972

----------------------------------------------------------------------------------------------------
          SPIN FLIP ABSORPTION SPECTRUM VIA TRANSITION ELECTRIC DIPOLE MOMENTS
----------------------------------------------------------------------------------------------------
     Transition      Energy     Energy  Wavelength fosc(D2)      D2        DX        DY        DZ
                      (eV)      (cm-1)    (nm)                 (au**2)    (au)      (au)      (au)
----------------------------------------------------------------------------------------------------
  1-3A  ->  2-3A    1.013672    8175.8  1223.1   0.000155062   0.00624   0.00019  -0.00003  -0.07902

Dispersion correction             ... done (  0.0 sec)

MULLIKEN ATOMIC CHARGES AND SPIN DENSITIES
------------------------------------------
   0 O :   -0.520988   -0.400819
   1 C :   -0.116136   -0.039327
   2 C :   -0.305609    0.284960
   3 H :    0.227300    0.041080
   4 H :    0.227320    0.040973
   5 H :    0.243946    0.036541
   6 H :    0.244167    0.036592
Sum of atomic charges       :    0.0000000

LOEWDIN ATOMIC CHARGES AND SPIN DENSITIES
-----------------------------------------
   0 O :   -0.045374   -0.408121
   1 C :   -0.390067    0.022954
   2 C :    0.394299    0.302169
   3 H :    0.027683    0.007903
   4 H :    0.027694    0.007832
   5 H :   -0.007114    0.033632
   6 H :   -0.007121    0.033631

  Mayer bond orders larger than 0.100000
B(  0-O ,  1-C ) :   0.8078 B(  0-O ,  2-C ) :   0.6916 B(  1-C ,  2-C ) :   0.7622
B(  1-C ,  3-H ) :   1.0176 B(  1-C ,  4-H ) :   1.0174 B(  2-C ,  5-H ) :   0.9439
B(  2-C ,  6-H ) :   0.9439

Dispersion correction           -0.005639624
FINAL SINGLE POINT ENERGY      -153.778803268161

DIPOLE MOMENT
-------------

Method             : TDA/CIS
Type of density    : Electron Density
Level              : Relaxed density
State              :   1
Multiplicity       :   3
Irrep              :   0
Energy             :     0.0000000000000000 Eh
Relativity type    :
Basis              : AO
                                X                 Y                 Z
Electronic contribution:      0.326437091       1.293073625       0.000080832
Nuclear contribution   :     -1.148048874      -2.650920257      -0.000367794
                        -----------------------------------------
Total Dipole Moment    :     -0.821611783      -1.357846632      -0.000286963
                        -----------------------------------------
Magnitude (a.u.)       :      1.587070723
Magnitude (Debye)      :      4.034013189

Rotational constants in cm-1:             1.223894             0.417083             0.353900
Rotational constants in MHz :         36691.425770         12503.825889         10609.659499

                             ****ORCA TERMINATED NORMALLY****
TOTAL RUN TIME: 0 days 0 hours 0 minutes 16 seconds 432 msec
