                         Program Version 6.0.0  -   RELEASE  -
|  1> ! Engrad def2-TZVPPD wB97M-D3BJ
|  2> %pal nprocs 8 end%pal nprocs 64 end
|  3>  %tddft nroots 2 Iroot 2
|  4> sf true
|  5> end
|  6> *xyz 0 3
|  7> O   4.12429337789332 -0.40098173952542 1.41878476468711
|  8> O   -2.29350435346589 1.96146902701131 -2.01712740353188
|  9> O   1.40164718633547 -2.69669114478627 -1.30047338339769
| 10> O   -3.57940156976333 -1.67246473798605 0.34619526306086
| 11> N   0.53029256613946 -0.83353575554449 -0.2992309116799
| 12> N   -1.93951626193501 -0.3767448611655 1.22727488676
| 13> N   2.55611566749818 -1.7262126395802 0.41433905698604
| 14> N   -2.74358720518967 0.03665599076859 -0.90431568816547
| 15> C   1.91488225009321 0.4361759203014 1.14944053107835
| 16> C   -1.18878402914757 1.61186973458349 0.0381351060917
| 17> C   0.52015052336099 -0.17194041178908 0.99806990218151
| 18> C   -0.92377567663075 0.63836015188996 1.12451250484073
| 19> C   2.20900657112351 1.84583137424729 1.24429272291866
| 20> C   -0.55265760290944 2.92556979287663 0.02100355903114
| 21> C   2.97697799430073 -0.56416975682877 1.05586816316803
| 22> C   -2.08788821516182 1.26386215614917 -1.0398936712949
| 23> C   1.46458177799535 -1.8199923645715 -0.47509542560631
| 24> C   -2.81347032882935 -0.74189659413313 0.24104837628362
| 25> H   0.45799169023895 -0.96312173860728 1.76257533466076
| 26> H   -0.84482396210465 1.17303683324787 2.07422443723537
| 27> H   3.25229998606255 2.01772305652604 1.49078472622849
| 28> H   1.97899216877028 2.3685033581402 0.28675537656624
| 29> H   1.54124419967655 2.34710524925124 1.95574309606932
| 30> H   -0.41207600134376 3.32987917215243 1.02559987625602
| 31> H   0.46818528651282 2.88469598346717 -0.41783760984964
| 32> H   -1.1147765497579 3.61469076920502 -0.60245144193816
| 33> H   -0.34283828225178 -0.99346506824957 -0.77871454944652
| 34> H   -1.96221147694937 -0.97215316457934 2.03542383986964
| 35> H   3.27183166638045 -2.41772972880398 0.24894793321613
| 36> H   -3.41658139694156 -0.18932886366729 -1.61927937227928
| 37> *
| 38>
| 39>                          ****END OF INPUT****

CARTESIAN COORDINATES (ANGSTROEM)
---------------------------------
  O      4.124293   -0.400982    1.418785
  O     -2.293504    1.961469   -2.017127
  O      1.401647   -2.696691   -1.300473
  O     -3.579402   -1.672465    0.346195
  N      0.530293   -0.833536   -0.299231
  N     -1.939516   -0.376745    1.227275
  N      2.556116   -1.726213    0.414339
  N     -2.743587    0.036656   -0.904316
  C      1.914882    0.436176    1.149441
  C     -1.188784    1.611870    0.038135
  C      0.520151   -0.171940    0.998070
  C     -0.923776    0.638360    1.124513
  C      2.209007    1.845831    1.244293
  C     -0.552658    2.925570    0.021004
  C      2.976978   -0.564170    1.055868
  C     -2.087888    1.263862   -1.039894
  C      1.464582   -1.819992   -0.475095
  C     -2.813470   -0.741897    0.241048
  H      0.457992   -0.963122    1.762575
  H     -0.844824    1.173037    2.074224
  H      3.252300    2.017723    1.490785
  H      1.978992    2.368503    0.286755
  H      1.541244    2.347105    1.955743
  H     -0.412076    3.329879    1.025600
  H      0.468185    2.884696   -0.417838
  H     -1.114777    3.614691   -0.602451
  H     -0.342838   -0.993465   -0.778715
  H     -1.962211   -0.972153    2.035424
  H      3.271832   -2.417730    0.248948
  H     -3.416581   -0.189329   -1.619279

 Total Charge           Charge          ....    0
 Multiplicity           Mult            ....    3
 Number of Electrons    NEL             ....  132
 Basis Dimension        Dim             ....  882

ORBITAL ENERGIES
----------------
                 SPIN UP ORBITALS
  NO   OCC          E(Eh)            E(eV)
   0   1.0000     -19.343743      -526.3700
   1   1.0000     -19.338319      -526.2224
   2   1.0000     -19.326054      -525.8887
   3   1.0000     -19.322426      -525.7900
   4   1.0000     -14.572108      -396.5272
   5   1.0000     -14.571088      -396.4994
   6   1.0000     -14.562405      -396.2632
   7   1.0000     -14.559187      -396.1756
   8   1.0000     -10.513736      -286.0933
   9   1.0000     -10.504672      -285.8466
  10   1.0000     -10.490795      -285.4691
  11   1.0000     -10.483281      -285.2646
  12   1.0000     -10.462486      -284.6987
  13   1.0000     -10.450260      -284.3660
  14   1.0000     -10.428760      -283.7810
  15   1.0000     -10.418091      -283.4907
  16   1.0000     -10.380719      -282.4737
  17   1.0000     -10.378440      -282.4117
  18   1.0000      -1.228459       -33.4281
  19   1.0000      -1.220952       -33.2238
  20   1.0000      -1.205791       -32.8112
  21   1.0000      -1.200008       -32.6539
  22   1.0000      -1.125096       -30.6154
  23   1.0000      -1.106190       -30.1010
  24   1.0000      -1.072982       -29.1973
  25   1.0000      -1.057296       -28.7705
  26   1.0000      -0.985432       -26.8150
  27   1.0000      -0.964703       -26.2509
  28   1.0000      -0.893764       -24.3206
  29   1.0000      -0.849795       -23.1241
  30   1.0000      -0.837962       -22.8021
  31   1.0000      -0.797241       -21.6940
  32   1.0000      -0.794523       -21.6201
  33   1.0000      -0.783118       -21.3097
  34   1.0000      -0.708089       -19.2681
  35   1.0000      -0.701590       -19.0912
  36   1.0000      -0.696424       -18.9507
  37   1.0000      -0.674480       -18.3535
  38   1.0000      -0.652228       -17.7480
  39   1.0000      -0.636902       -17.3310
  40   1.0000      -0.632713       -17.2170
  41   1.0000      -0.610547       -16.6138
  42   1.0000      -0.605153       -16.4671
  43   1.0000      -0.588622       -16.0172
  44   1.0000      -0.586305       -15.9542
  45   1.0000      -0.577523       -15.7152
  46   1.0000      -0.571688       -15.5564
  47   1.0000      -0.569446       -15.4954
  48   1.0000      -0.568590       -15.4721
  49   1.0000      -0.559626       -15.2282
  50   1.0000      -0.555486       -15.1155
  51   1.0000      -0.546142       -14.8613
  52   1.0000      -0.543653       -14.7935
  53   1.0000      -0.524745       -14.2790
  54   1.0000      -0.516290       -14.0490
  55   1.0000      -0.512314       -13.9408
  56   1.0000      -0.499305       -13.5868
  57   1.0000      -0.430776       -11.7220
  58   1.0000      -0.427708       -11.6385
  59   1.0000      -0.414964       -11.2917
  60   1.0000      -0.408154       -11.1064
  61   1.0000      -0.402233       -10.9453
  62   1.0000      -0.399954       -10.8833
  63   1.0000      -0.391168       -10.6442
  64   1.0000      -0.385935       -10.5018
  65   1.0000      -0.348248        -9.4763
  66   1.0000      -0.336420        -9.1545
  67   0.0000       0.007215         0.1963
  68   0.0000       0.027444         0.7468
  69   0.0000       0.031892         0.8678
  70   0.0000       0.033271         0.9054
  71   0.0000       0.053771         1.4632

                 SPIN DOWN ORBITALS
  NO   OCC          E(Eh)            E(eV)
   0   1.0000     -19.339325      -526.2498
   1   1.0000     -19.334133      -526.1085
   2   1.0000     -19.325982      -525.8867
   3   1.0000     -19.322230      -525.7846
   4   1.0000     -14.571537      -396.5117
   5   1.0000     -14.571031      -396.4979
   6   1.0000     -14.562165      -396.2566
   7   1.0000     -14.558280      -396.1509
   8   1.0000     -10.513777      -286.0944
   9   1.0000     -10.504688      -285.8471
  10   1.0000     -10.491820      -285.4969
  11   1.0000     -10.484226      -285.2903
  12   1.0000     -10.463388      -284.7233
  13   1.0000     -10.449356      -284.3414
  14   1.0000     -10.417721      -283.4806
  15   1.0000     -10.406430      -283.1734
  16   1.0000     -10.381285      -282.4891
  17   1.0000     -10.379042      -282.4281
  18   1.0000      -1.226659       -33.3791
  19   1.0000      -1.218988       -33.1704
  20   1.0000      -1.200896       -32.6780
  21   1.0000      -1.195243       -32.5242
  22   1.0000      -1.122844       -30.5541
  23   1.0000      -1.103657       -30.0320
  24   1.0000      -1.071366       -29.1534
  25   1.0000      -1.055637       -28.7253
  26   1.0000      -0.971485       -26.4354
  27   1.0000      -0.947113       -25.7722
  28   1.0000      -0.890171       -24.2228
  29   1.0000      -0.844587       -22.9824
  30   1.0000      -0.828576       -22.5467
  31   1.0000      -0.795357       -21.6428
  32   1.0000      -0.789822       -21.4921
  33   1.0000      -0.781496       -21.2656
  34   1.0000      -0.703415       -19.1409
  35   1.0000      -0.694598       -18.9010
  36   1.0000      -0.691001       -18.8031
  37   1.0000      -0.666464       -18.1354
  38   1.0000      -0.644627       -17.5412
  39   1.0000      -0.630394       -17.1539
  40   1.0000      -0.625514       -17.0211
  41   1.0000      -0.605057       -16.4644
  42   1.0000      -0.599723       -16.3193
  43   1.0000      -0.584106       -15.8943
  44   1.0000      -0.578932       -15.7535
  45   1.0000      -0.569556       -15.4984
  46   1.0000      -0.566688       -15.4204
  47   1.0000      -0.563456       -15.3324
  48   1.0000      -0.561379       -15.2759
  49   1.0000      -0.553237       -15.0543
  50   1.0000      -0.542955       -14.7746
  51   1.0000      -0.539962       -14.6931
  52   1.0000      -0.533196       -14.5090
  53   1.0000      -0.516327       -14.0500
  54   1.0000      -0.509611       -13.8672
  55   1.0000      -0.503172       -13.6920
  56   1.0000      -0.494316       -13.4510
  57   1.0000      -0.426938       -11.6176
  58   1.0000      -0.423569       -11.5259
  59   1.0000      -0.401877       -10.9356
  60   1.0000      -0.399784       -10.8787
  61   1.0000      -0.397292       -10.8109
  62   1.0000      -0.396019       -10.7762
  63   1.0000      -0.384872       -10.4729
  64   1.0000      -0.381758       -10.3882
  65   0.0000      -0.070387        -1.9153
  66   0.0000      -0.050358        -1.3703
  67   0.0000       0.006406         0.1743
  68   0.0000       0.027216         0.7406
  69   0.0000       0.031851         0.8667

----------------------------------------------------------------------------------------------------
          SPIN FLIP ABSORPTION SPECTRUM VIA TRANSITION ELECTRIC DIPOLE MOMENTS
----------------------------------------------------------------------------------------------------
     Transition      Energy     Energy  Wavelength fosc(D2)      D2        DX        DY        DZ
                      (eV)      (cm-1)    (nm)                 (au**2)    (au)      (au)      (au)
----------------------------------------------------------------------------------------------------
  1-3A  ->  2-3A    0.071347     575.5  17377.6   0.000000381   0.00022  -0.01154   0.00573  -0.00719

Dispersion correction             ... done (  0.1 sec)

MULLIKEN ATOMIC CHARGES AND SPIN DENSITIES
------------------------------------------
   0 O :   -0.638844   -0.149609
   1 O :   -0.652066    0.159576
   2 O :   -0.623833   -0.004494
   3 O :   -0.644860    0.002624
   4 N :   -0.231741   -0.050614
   5 N :   -0.147064    0.014393
   6 N :   -0.031065   -0.013507
   7 N :   -0.022946    0.025012
   8 C :    1.287290    0.263733
   9 C :    0.304678    0.415030
  10 C :    0.033001   -0.319404
  11 C :    0.101586    0.015999
  12 C :   -1.316940   -0.113563
  13 C :   -1.395781    0.018457
  14 C :   -0.091423   -0.383368
  15 C :    0.591709    0.139008
  16 C :    0.246523    0.004034
  17 C :    0.479631   -0.003196
  18 H :    0.321104   -0.069058
  19 H :    0.444163    0.015324
  20 H :    0.295007   -0.022555
  21 H :    0.220871   -0.034926
  22 H :    0.302910    0.030247
  23 H :    0.307100    0.002963
  24 H :    0.188201    0.034213
  25 H :    0.340445    0.016374
  26 H :    0.164133    0.006283
  27 H :    0.040246   -0.000096
  28 H :    0.095905    0.002944
  29 H :    0.032060   -0.001825
Sum of atomic charges       :   -0.0000000

LOEWDIN ATOMIC CHARGES AND SPIN DENSITIES
-----------------------------------------
   0 O :    0.084972   -0.137357
   1 O :    0.101767    0.140224
   2 O :    0.099839   -0.006718
   3 O :    0.093414    0.002509
   4 N :    0.275693   -0.022778
   5 N :    0.270453    0.000591
   6 N :    0.315177   -0.009479
   7 N :    0.318659    0.021976
   8 C :    0.015210   -0.490741
   9 C :   -0.029629    0.478509
  10 C :   -0.069332   -0.009874
  11 C :   -0.079309    0.062814
  12 C :    0.171646   -0.089896
  13 C :    0.180685    0.074984
  14 C :   -0.427618   -0.085681
  15 C :   -0.390791    0.081198
  16 C :   -0.469716   -0.002042
  17 C :   -0.492410    0.000681
  18 H :    0.046616   -0.010748
  19 H :    0.051430    0.011308
  20 H :    0.006965   -0.000254
  21 H :    0.003200   -0.029804
  22 H :    0.007128   -0.017142
  23 H :    0.005504    0.008455
  24 H :   -0.000522    0.026735
  25 H :    0.004056    0.004412
  26 H :   -0.042267   -0.002558
  27 H :   -0.024795   -0.000263
  28 H :   -0.015564   -0.000929
  29 H :   -0.010461    0.001868

  Mayer bond orders larger than 0.100000
B(  0-O , 14-C ) :   1.4078 B(  1-O ,  9-C ) :   0.1121 B(  1-O , 15-C ) :   1.2894
B(  2-O , 16-C ) :   1.6043 B(  3-O , 17-C ) :   1.6054 B(  4-N ,  8-C ) :   0.2368
B(  4-N , 10-C ) :   0.1732 B(  4-N , 11-C ) :   0.1624 B(  4-N , 16-C ) :   1.1674
B(  4-N , 26-H ) :   0.9796 B(  5-N , 10-C ) :   0.1624 B(  5-N , 11-C ) :   0.3934
B(  5-N , 17-C ) :   1.0585 B(  5-N , 27-H ) :   1.1328 B(  6-N , 14-C ) :   0.9571
B(  6-N , 16-C ) :   0.9941 B(  6-N , 28-H ) :   1.0308 B(  7-N , 15-C ) :   1.0122
B(  7-N , 17-C ) :   0.9732 B(  7-N , 29-H ) :   1.1074 B(  8-C , 10-C ) :  -0.4935
B(  8-C , 11-C ) :   0.1398 B(  8-C , 12-C ) :   0.2043 B(  8-C , 14-C ) :   0.4707
B(  8-C , 20-H ) :  -0.1147 B(  9-C , 10-C ) :   0.2671 B(  9-C , 11-C ) :   0.1775
B(  9-C , 13-C ) :   0.2987 B(  9-C , 15-C ) :   0.7162 B(  9-C , 19-H ) :  -0.1816
B(  9-C , 23-H ) :  -0.1407 B( 10-C , 11-C ) :   0.6885 B( 10-C , 14-C ) :   0.2145
B( 10-C , 16-C ) :  -0.1339 B( 10-C , 18-H ) :   0.7876 B( 11-C , 13-C ) :  -0.2156
B( 11-C , 17-C ) :  -0.1125 B( 11-C , 19-H ) :   0.9168 B( 12-C , 20-H ) :   1.0719
B( 12-C , 21-H ) :   0.8249 B( 12-C , 22-H ) :   0.9712 B( 13-C , 23-H ) :   1.0481
B( 13-C , 24-H ) :   0.9358 B( 13-C , 25-H ) :   0.9397

Dispersion correction           -0.056585706
FINAL SINGLE POINT ENERGY      -908.784798336471

DIPOLE MOMENT
-------------

Method             : TDA/CIS
Type of density    : Electron Density
Level              : Relaxed density
State              :   2
Multiplicity       :   3
Irrep              :   0
Energy             :     0.0000000000000000 Eh
Relativity type    :
Basis              : AO
                                X                 Y                 Z
Electronic contribution:     -3.215633140     -10.010784015      -3.559605829
Nuclear contribution   :      2.989820221      11.752811113       5.129798714
                        -----------------------------------------
Total Dipole Moment    :     -0.225812920       1.742027098       1.570192885
                        -----------------------------------------
Magnitude (a.u.)       :      2.356089043
Magnitude (Debye)      :      5.988702418

Rotational constants in cm-1:             0.021884             0.010476             0.008624
Rotational constants in MHz :           656.071454           314.054915           258.526214

                             ****ORCA TERMINATED NORMALLY****
TOTAL RUN TIME: 0 days 0 hours 4 minutes 12 seconds 543 msec
