                         Program Version 6.0.0  -   RELEASE  -
|  1> ! Engrad def2-TZVPPD wB97M-D3BJ
|  2> %pal nprocs 8 end%pal nprocs 32 end
|  3> %tddft Nroots 2 Iroot 1
|  4> sf true
|  5> end
|  6> *xyz 0 3
|  7> O   2.51498806 1.24316209 -0.36538179
|  8> O   -0.78563224 0.83827801 -2.3992999
|  9> O   0.57226374 -2.68773982 -1.56216526
| 10> O   -2.48216234 -1.56734441 1.06767669
| 11> N   0.5966406 -2.11134488 0.63852404
| 12> N   -1.85590013 0.58562085 1.42368839
| 13> N   1.61781913 -0.7653806 -0.92574788
| 14> N   -1.68939785 -0.31613426 -0.67074803
| 15> C   1.44218194 0.00347014 1.35579113
| 16> C   -0.84872659 1.91674857 -0.29036409
| 17> C   0.81372213 -1.15512161 1.59996237
| 18> C   -1.24889087 1.74201193 0.99849763
| 19> C   1.71567817 1.050254 2.38415753
| 20> C   -0.18713177 3.14857351 -0.78646162
| 21> C   1.91712882 0.2396774 -0.01023074
| 22> C   -1.08853891 0.8161124 -1.22889746
| 23> C   0.91299742 -1.91954758 -0.68869398
| 24> C   -2.04179594 -0.52122872 0.64131388
| 25> H   0.46726238 -1.40304967 2.60247765
| 26> H   -1.09869486 2.52465505 1.76091343
| 27> H   1.36026097 2.00798857 2.0708303
| 28> H   1.23142524 0.80952199 3.33927529
| 29> H   2.78933385 1.15174978 2.55553977
| 30> H   -0.73538886 3.57994518 -1.6367377
| 31> H   -0.11797779 3.90355705 0.00138563
| 32> H   0.81246264 2.92062426 -1.12299207
| 33> H   -0.02474814 -2.88775755 0.83722629
| 34> H   -2.10961136 0.47585082 2.38642064
| 35> H   1.80925495 -0.54946508 -1.89524185
| 36> H   -1.80004801 -1.12155784 -1.28297782
| 37> *
| 38>
| 39>                          ****END OF INPUT****

CARTESIAN COORDINATES (ANGSTROEM)
---------------------------------
  O      2.514988    1.243162   -0.365382
  O     -0.785632    0.838278   -2.399300
  O      0.572264   -2.687740   -1.562165
  O     -2.482162   -1.567344    1.067677
  N      0.596641   -2.111345    0.638524
  N     -1.855900    0.585621    1.423688
  N      1.617819   -0.765381   -0.925748
  N     -1.689398   -0.316134   -0.670748
  C      1.442182    0.003470    1.355791
  C     -0.848727    1.916749   -0.290364
  C      0.813722   -1.155122    1.599962
  C     -1.248891    1.742012    0.998498
  C      1.715678    1.050254    2.384158
  C     -0.187132    3.148574   -0.786462
  C      1.917129    0.239677   -0.010231
  C     -1.088539    0.816112   -1.228897
  C      0.912997   -1.919548   -0.688694
  C     -2.041796   -0.521229    0.641314
  H      0.467262   -1.403050    2.602478
  H     -1.098695    2.524655    1.760913
  H      1.360261    2.007989    2.070830
  H      1.231425    0.809522    3.339275
  H      2.789334    1.151750    2.555540
  H     -0.735389    3.579945   -1.636738
  H     -0.117978    3.903557    0.001386
  H      0.812463    2.920624   -1.122992
  H     -0.024748   -2.887758    0.837226
  H     -2.109611    0.475851    2.386421
  H      1.809255   -0.549465   -1.895242
  H     -1.800048   -1.121558   -1.282978

 Total Charge           Charge          ....    0
 Multiplicity           Mult            ....    3
 Number of Electrons    NEL             ....  132
 Basis Dimension        Dim             ....  882

ORBITAL ENERGIES
----------------
                 SPIN UP ORBITALS
  NO   OCC          E(Eh)            E(eV)
   0   1.0000     -19.338816      -526.2359
   1   1.0000     -19.321751      -525.7716
   2   1.0000     -19.321500      -525.7648
   3   1.0000     -19.318563      -525.6848
   4   1.0000     -14.597253      -397.2115
   5   1.0000     -14.577967      -396.6866
   6   1.0000     -14.566165      -396.3655
   7   1.0000     -14.556395      -396.0997
   8   1.0000     -10.515998      -286.1549
   9   1.0000     -10.506719      -285.9024
  10   1.0000     -10.478197      -285.1262
  11   1.0000     -10.461193      -284.6635
  12   1.0000     -10.432047      -283.8704
  13   1.0000     -10.408779      -283.2373
  14   1.0000     -10.405873      -283.1582
  15   1.0000     -10.379788      -282.4484
  16   1.0000     -10.360685      -281.9286
  17   1.0000     -10.360617      -281.9267
  18   1.0000      -1.233427       -33.5632
  19   1.0000      -1.219581       -33.1865
  20   1.0000      -1.193978       -32.4898
  21   1.0000      -1.187275       -32.3074
  22   1.0000      -1.131197       -30.7814
  23   1.0000      -1.117160       -30.3995
  24   1.0000      -1.065885       -29.0042
  25   1.0000      -1.065789       -29.0016
  26   1.0000      -0.973565       -26.4920
  27   1.0000      -0.956084       -26.0164
  28   1.0000      -0.856097       -23.2956
  29   1.0000      -0.848764       -23.0960
  30   1.0000      -0.811995       -22.0955
  31   1.0000      -0.807952       -21.9855
  32   1.0000      -0.794894       -21.6302
  33   1.0000      -0.789811       -21.4919
  34   1.0000      -0.702429       -19.1141
  35   1.0000      -0.695220       -18.9179
  36   1.0000      -0.692710       -18.8496
  37   1.0000      -0.688483       -18.7346
  38   1.0000      -0.644434       -17.5359
  39   1.0000      -0.636659       -17.3244
  40   1.0000      -0.632220       -17.2036
  41   1.0000      -0.599628       -16.3167
  42   1.0000      -0.597190       -16.2504
  43   1.0000      -0.592221       -16.1152
  44   1.0000      -0.575034       -15.6475
  45   1.0000      -0.573519       -15.6062
  46   1.0000      -0.560028       -15.2391
  47   1.0000      -0.554690       -15.0939
  48   1.0000      -0.548849       -14.9350
  49   1.0000      -0.547813       -14.9067
  50   1.0000      -0.530146       -14.4260
  51   1.0000      -0.525892       -14.3102
  52   1.0000      -0.521596       -14.1933
  53   1.0000      -0.516259       -14.0481
  54   1.0000      -0.503327       -13.6962
  55   1.0000      -0.501998       -13.6600
  56   1.0000      -0.496261       -13.5040
  57   1.0000      -0.473257       -12.8780
  58   1.0000      -0.427094       -11.6218
  59   1.0000      -0.412594       -11.2272
  60   1.0000      -0.410376       -11.1669
  61   1.0000      -0.397321       -10.8117
  62   1.0000      -0.389578       -10.6010
  63   1.0000      -0.387854       -10.5540
  64   1.0000      -0.384503       -10.4628
  65   1.0000      -0.344695        -9.3796
  66   1.0000      -0.214727        -5.8430
  67   0.0000       0.012092         0.3290
  68   0.0000       0.021551         0.5864
  69   0.0000       0.032963         0.8970
  70   0.0000       0.039621         1.0782
  71   0.0000       0.040279         1.0960

                 SPIN DOWN ORBITALS
  NO   OCC          E(Eh)            E(eV)
   0   1.0000     -19.336906      -526.1840
   1   1.0000     -19.321689      -525.7699
   2   1.0000     -19.318524      -525.6838
   3   1.0000     -19.315481      -525.6010
   4   1.0000     -14.592941      -397.0941
   5   1.0000     -14.577928      -396.6856
   6   1.0000     -14.566165      -396.3655
   7   1.0000     -14.555433      -396.0735
   8   1.0000     -10.516251      -286.1617
   9   1.0000     -10.506729      -285.9026
  10   1.0000     -10.478203      -285.1264
  11   1.0000     -10.460961      -284.6572
  12   1.0000     -10.432007      -283.8693
  13   1.0000     -10.399140      -282.9750
  14   1.0000     -10.395131      -282.8659
  15   1.0000     -10.379775      -282.4480
  16   1.0000     -10.361035      -281.9381
  17   1.0000     -10.360560      -281.9252
  18   1.0000      -1.229336       -33.4519
  19   1.0000      -1.219418       -33.1820
  20   1.0000      -1.187374       -32.3101
  21   1.0000      -1.184814       -32.2404
  22   1.0000      -1.121116       -30.5071
  23   1.0000      -1.117028       -30.3959
  24   1.0000      -1.065755       -29.0007
  25   1.0000      -1.060667       -28.8622
  26   1.0000      -0.956459       -26.0266
  27   1.0000      -0.948283       -25.8041
  28   1.0000      -0.849154       -23.1066
  29   1.0000      -0.843782       -22.9605
  30   1.0000      -0.808495       -22.0003
  31   1.0000      -0.801438       -21.8082
  32   1.0000      -0.789819       -21.4921
  33   1.0000      -0.787678       -21.4338
  34   1.0000      -0.692976       -18.8568
  35   1.0000      -0.690868       -18.7995
  36   1.0000      -0.688466       -18.7341
  37   1.0000      -0.686206       -18.6726
  38   1.0000      -0.636770       -17.3274
  39   1.0000      -0.633646       -17.2424
  40   1.0000      -0.625845       -17.0301
  41   1.0000      -0.593086       -16.1387
  42   1.0000      -0.589888       -16.0517
  43   1.0000      -0.589382       -16.0379
  44   1.0000      -0.567642       -15.4463
  45   1.0000      -0.560220       -15.2444
  46   1.0000      -0.558376       -15.1942
  47   1.0000      -0.548990       -14.9388
  48   1.0000      -0.542361       -14.7584
  49   1.0000      -0.540100       -14.6969
  50   1.0000      -0.521515       -14.1911
  51   1.0000      -0.521104       -14.1800
  52   1.0000      -0.513753       -13.9799
  53   1.0000      -0.507285       -13.8039
  54   1.0000      -0.502858       -13.6835
  55   1.0000      -0.498062       -13.5530
  56   1.0000      -0.472022       -12.8444
  57   1.0000      -0.453700       -12.3458
  58   1.0000      -0.423087       -11.5128
  59   1.0000      -0.411597       -11.2001
  60   1.0000      -0.397464       -10.8155
  61   1.0000      -0.387215       -10.5367
  62   1.0000      -0.384578       -10.4649
  63   1.0000      -0.380625       -10.3573
  64   1.0000      -0.343567        -9.3489
  65   0.0000      -0.105350        -2.8667
  66   0.0000       0.011873         0.3231
  67   0.0000       0.022962         0.6248
  68   0.0000       0.031772         0.8646
  69   0.0000       0.038291         1.0420

----------------------------------------------------------------------------------------------------
          SPIN FLIP ABSORPTION SPECTRUM VIA TRANSITION ELECTRIC DIPOLE MOMENTS
----------------------------------------------------------------------------------------------------
     Transition      Energy     Energy  Wavelength fosc(D2)      D2        DX        DY        DZ
                      (eV)      (cm-1)    (nm)                 (au**2)    (au)      (au)      (au)
----------------------------------------------------------------------------------------------------
  1-3A  ->  2-3A    4.101018   33076.9   302.3   0.001112186   0.01107  -0.01247   0.04615   0.09372

Dispersion correction             ... done (  0.0 sec)

MULLIKEN ATOMIC CHARGES AND SPIN DENSITIES
------------------------------------------
   0 O :   -0.688439    0.000376
   1 O :   -0.671343    0.035652
   2 O :   -0.647823    0.000042
   3 O :   -0.666112    0.006086
   4 N :   -0.044159   -0.001927
   5 N :    0.056468    0.052270
   6 N :    0.050366    0.002694
   7 N :    0.043117    0.007260
   8 C :    0.783275   -0.000400
   9 C :    1.252478    0.600280
  10 C :    0.107364    0.022824
  11 C :   -0.488525   -0.445056
  12 C :   -1.467313    0.009840
  13 C :   -1.348950   -0.035390
  14 C :    0.311222   -0.046910
  15 C :    0.176066   -0.329000
  16 C :    0.349141    0.004647
  17 C :    0.467328    0.020992
  18 H :    0.149577    0.001469
  19 H :    0.198286    0.044778
  20 H :    0.249420    0.003236
  21 H :    0.335768   -0.002855
  22 H :    0.365612   -0.000551
  23 H :    0.347721    0.004726
  24 H :    0.328359    0.011503
  25 H :    0.251368    0.029755
  26 H :    0.071143   -0.000270
  27 H :    0.029237    0.001351
  28 H :    0.049357   -0.000500
  29 H :    0.049992    0.003078
Sum of atomic charges       :    0.0000000

LOEWDIN ATOMIC CHARGES AND SPIN DENSITIES
-----------------------------------------
   0 O :    0.080628    0.000073
   1 O :    0.093116    0.029049
   2 O :    0.085049   -0.000032
   3 O :    0.078331    0.005159
   4 N :    0.273463   -0.000697
   5 N :    0.285887    0.022805
   6 N :    0.343274    0.000302
   7 N :    0.340825   -0.000206
   8 C :   -0.145061   -0.000632
   9 C :   -0.132465   -0.033450
  10 C :    0.037221   -0.001420
  11 C :    0.053745   -0.028380
  12 C :    0.173758   -0.000418
  13 C :    0.173555   -0.003453
  14 C :   -0.387535    0.000100
  15 C :   -0.412682    0.010346
  16 C :   -0.487683   -0.000102
  17 C :   -0.495257    0.000069
  18 H :    0.047091   -0.000163
  19 H :    0.050106   -0.001287
  20 H :   -0.032404   -0.000173
  21 H :    0.003070   -0.000017
  22 H :    0.006876    0.000030
  23 H :    0.012173   -0.000188
  24 H :   -0.000227    0.000313
  25 H :   -0.021503   -0.000098
  26 H :   -0.009496   -0.000052
  27 H :   -0.017740    0.002266
  28 H :    0.001994    0.000100
  29 H :    0.001893    0.000155

  Mayer bond orders larger than 0.100000
B(  0-O , 14-C ) :   1.4488 B(  1-O , 15-C ) :   1.4568 B(  2-O , 16-C ) :   1.5666
B(  3-O , 17-C ) :   1.5285 B(  4-N , 10-C ) :   0.8453 B(  4-N , 16-C ) :   1.0208
B(  4-N , 26-H ) :   1.0988 B(  5-N , 11-C ) :   0.9351 B(  5-N , 17-C ) :   1.0045
B(  5-N , 27-H ) :   1.1229 B(  6-N , 14-C ) :   1.0299 B(  6-N , 16-C ) :   0.9079
B(  6-N , 28-H ) :   1.1016 B(  7-N , 15-C ) :   0.9066 B(  7-N , 16-C ) :   0.1096
B(  7-N , 17-C ) :   0.9680 B(  7-N , 29-H ) :   1.1085 B(  8-C , 10-C ) :   1.1156
B(  8-C , 12-C ) :   0.3510 B(  8-C , 14-C ) :   0.7522 B(  9-C , 11-C ) :   1.0326
B(  9-C , 13-C ) :   0.3188 B(  9-C , 15-C ) :   0.5327 B(  9-C , 17-C ) :   0.1025
B(  9-C , 24-H ) :  -0.1133 B( 10-C , 12-C ) :  -0.1520 B( 10-C , 18-H ) :   1.1278
B( 11-C , 13-C ) :  -0.1425 B( 11-C , 15-C ) :   0.1476 B( 11-C , 19-H ) :   1.1130
B( 12-C , 20-H ) :   0.9985 B( 12-C , 21-H ) :   1.0025 B( 12-C , 22-H ) :   0.9081
B( 13-C , 23-H ) :   0.9156 B( 13-C , 24-H ) :   1.0324 B( 13-C , 25-H ) :   0.9426

Dispersion correction           -0.059518475
FINAL SINGLE POINT ENERGY      -908.925240645154

DIPOLE MOMENT
-------------

Method             : TDA/CIS
Type of density    : Electron Density
Level              : Relaxed density
State              :   1
Multiplicity       :   3
Irrep              :   0
Energy             :     0.0000000000000000 Eh
Relativity type    :
Basis              : AO
                                X                 Y                 Z
Electronic contribution:     -2.949317029      -9.720222606      -5.783873322
Nuclear contribution   :      2.515887299      10.474914189       8.444710625
                        -----------------------------------------
Total Dipole Moment    :     -0.433429730       0.754691583       2.660837304
                        -----------------------------------------
Magnitude (a.u.)       :      2.799549227
Magnitude (Debye)      :      7.115888626

Rotational constants in cm-1:             0.016909             0.016139             0.014065
Rotational constants in MHz :           506.925210           483.842156           421.654236

                             ****ORCA TERMINATED NORMALLY****
TOTAL RUN TIME: 0 days 0 hours 6 minutes 33 seconds 74 msec
