                         Program Version 6.0.0  -   RELEASE  -
|  1> ! Engrad def2-TZVPPD wB97M-D3BJ
|  2> %pal nprocs 8 end%pal nprocs 64 end
|  3> %tddft
|  4>  Iroot 2 Nroots 3
|  5> sf true
|  6> end
|  7> *xyz 0 3
|  8> O   2.67487883 -0.80901321 -2.18106038
|  9> O   -1.65687213 1.59846813 -1.85354946
| 10> O   -1.44500771 -2.47060665 -0.88448854
| 11> O   -2.92450513 0.37590568 2.4052649
| 12> N   -0.17001981 -1.51586171 0.69267238
| 13> N   -0.67254606 1.03093317 2.1101286
| 14> N   0.65538144 -1.66677154 -1.47075826
| 15> N   -2.22957007 0.70017215 0.26826482
| 16> C   2.18307251 -0.66187869 0.09772274
| 17> C   -0.03268027 1.49007067 -0.23173987
| 18> C   0.97756341 -0.61347985 1.00322853
| 19> C   0.39321684 0.84770676 1.10562056
| 20> C   3.4637503 -0.17436347 0.50864696
| 21> C   0.92913817 2.24969915 -0.98714692
| 22> C   1.92914732 -1.09533576 -1.26993243
| 23> C   -1.3723555 1.30605237 -0.6600964
| 24> C   -0.42114404 -1.94174256 -0.54563164
| 25> C   -1.98861862 0.64315954 1.65125062
| 26> H   1.16820619 -0.8856992 2.09556636
| 27> H   1.16027513 1.49719322 1.4601389
| 28> H   4.16671263 -0.29474445 -0.2407009
| 29> H   3.43237847 0.8442193 0.81396458
| 30> H   3.78165818 -0.72395217 1.41884822
| 31> H   1.53949434 1.4560138 -1.54608351
| 32> H   0.42460629 2.70175269 -1.79495689
| 33> H   1.51290313 2.96478591 -0.451278
| 34> H   -0.80292502 -1.76980829 1.47049519
| 35> H   -0.57015731 0.60850153 3.00782625
| 36> H   0.30795258 -1.75949879 -2.43243345
| 37> H   -3.21009227 0.57134587 0.0447955
| 38> *
| 39>
| 40>                          ****END OF INPUT****

CARTESIAN COORDINATES (ANGSTROEM)
---------------------------------
  O      2.674879   -0.809013   -2.181060
  O     -1.656872    1.598468   -1.853549
  O     -1.445008   -2.470607   -0.884489
  O     -2.924505    0.375906    2.405265
  N     -0.170020   -1.515862    0.692672
  N     -0.672546    1.030933    2.110129
  N      0.655381   -1.666772   -1.470758
  N     -2.229570    0.700172    0.268265
  C      2.183073   -0.661879    0.097723
  C     -0.032680    1.490071   -0.231740
  C      0.977563   -0.613480    1.003229
  C      0.393217    0.847707    1.105621
  C      3.463750   -0.174363    0.508647
  C      0.929138    2.249699   -0.987147
  C      1.929147   -1.095336   -1.269932
  C     -1.372356    1.306052   -0.660096
  C     -0.421144   -1.941743   -0.545632
  C     -1.988619    0.643160    1.651251
  H      1.168206   -0.885699    2.095566
  H      1.160275    1.497193    1.460139
  H      4.166713   -0.294744   -0.240701
  H      3.432378    0.844219    0.813965
  H      3.781658   -0.723952    1.418848
  H      1.539494    1.456014   -1.546084
  H      0.424606    2.701753   -1.794957
  H      1.512903    2.964786   -0.451278
  H     -0.802925   -1.769808    1.470495
  H     -0.570157    0.608502    3.007826
  H      0.307953   -1.759499   -2.432433
  H     -3.210092    0.571346    0.044795

 Total Charge           Charge          ....    0
 Multiplicity           Mult            ....    3
 Number of Electrons    NEL             ....  132
 Basis Dimension        Dim             ....  882

ORBITAL ENERGIES
----------------
                 SPIN UP ORBITALS
  NO   OCC          E(Eh)            E(eV)
   0   1.0000     -19.340337      -526.2773
   1   1.0000     -19.335024      -526.1327
   2   1.0000     -19.333968      -526.1040
   3   1.0000     -19.320695      -525.7428
   4   1.0000     -14.570470      -396.4826
   5   1.0000     -14.569567      -396.4581
   6   1.0000     -14.566100      -396.3637
   7   1.0000     -14.562425      -396.2637
   8   1.0000     -10.517930      -286.2074
   9   1.0000     -10.505154      -285.8598
  10   1.0000     -10.488290      -285.4009
  11   1.0000     -10.480696      -285.1942
  12   1.0000     -10.458495      -284.5901
  13   1.0000     -10.440613      -284.1035
  14   1.0000     -10.423556      -283.6394
  15   1.0000     -10.414780      -283.4006
  16   1.0000     -10.372343      -282.2458
  17   1.0000     -10.363704      -282.0107
  18   1.0000      -1.219670       -33.1889
  19   1.0000      -1.210943       -32.9514
  20   1.0000      -1.204327       -32.7714
  21   1.0000      -1.178088       -32.0574
  22   1.0000      -1.114341       -30.3228
  23   1.0000      -1.092091       -29.7173
  24   1.0000      -1.062745       -28.9188
  25   1.0000      -1.047431       -28.5020
  26   1.0000      -0.989005       -26.9122
  27   1.0000      -0.962671       -26.1956
  28   1.0000      -0.893719       -24.3193
  29   1.0000      -0.845837       -23.0164
  30   1.0000      -0.829758       -22.5789
  31   1.0000      -0.800249       -21.7759
  32   1.0000      -0.779095       -21.2003
  33   1.0000      -0.775567       -21.1042
  34   1.0000      -0.698677       -19.0120
  35   1.0000      -0.694153       -18.8889
  36   1.0000      -0.685715       -18.6592
  37   1.0000      -0.669287       -18.2122
  38   1.0000      -0.653371       -17.7791
  39   1.0000      -0.630439       -17.1551
  40   1.0000      -0.610634       -16.6162
  41   1.0000      -0.607453       -16.5296
  42   1.0000      -0.601567       -16.3695
  43   1.0000      -0.587340       -15.9823
  44   1.0000      -0.576470       -15.6865
  45   1.0000      -0.572906       -15.5896
  46   1.0000      -0.569230       -15.4895
  47   1.0000      -0.564481       -15.3603
  48   1.0000      -0.561032       -15.2665
  49   1.0000      -0.556772       -15.1505
  50   1.0000      -0.551918       -15.0185
  51   1.0000      -0.542576       -14.7643
  52   1.0000      -0.539586       -14.6829
  53   1.0000      -0.527985       -14.3672
  54   1.0000      -0.515536       -14.0285
  55   1.0000      -0.504552       -13.7295
  56   1.0000      -0.483639       -13.1605
  57   1.0000      -0.430501       -11.7145
  58   1.0000      -0.419140       -11.4054
  59   1.0000      -0.414912       -11.2903
  60   1.0000      -0.409062       -11.1311
  61   1.0000      -0.401582       -10.9276
  62   1.0000      -0.396185       -10.7807
  63   1.0000      -0.393185       -10.6991
  64   1.0000      -0.386709       -10.5229
  65   1.0000      -0.346738        -9.4352
  66   1.0000      -0.326755        -8.8914
  67   0.0000       0.007127         0.1939
  68   0.0000       0.027533         0.7492
  69   0.0000       0.033377         0.9082
  70   0.0000       0.037325         1.0157
  71   0.0000       0.051461         1.4003

                 SPIN DOWN ORBITALS
  NO   OCC          E(Eh)            E(eV)
   0   1.0000     -19.336291      -526.1672
   1   1.0000     -19.333830      -526.1003
   2   1.0000     -19.329062      -525.9705
   3   1.0000     -19.320663      -525.7420
   4   1.0000     -14.569998      -396.4698
   5   1.0000     -14.569179      -396.4475
   6   1.0000     -14.566019      -396.3615
   7   1.0000     -14.561606      -396.2414
   8   1.0000     -10.517962      -286.2083
   9   1.0000     -10.505199      -285.8610
  10   1.0000     -10.489297      -285.4283
  11   1.0000     -10.481849      -285.2256
  12   1.0000     -10.458587      -284.5926
  13   1.0000     -10.440132      -284.0904
  14   1.0000     -10.412200      -283.3304
  15   1.0000     -10.403931      -283.1054
  16   1.0000     -10.372938      -282.2620
  17   1.0000     -10.364168      -282.0233
  18   1.0000      -1.217821       -33.1386
  19   1.0000      -1.209846       -32.9216
  20   1.0000      -1.199884       -32.6505
  21   1.0000      -1.170100       -31.8400
  22   1.0000      -1.112040       -30.2601
  23   1.0000      -1.089843       -29.6561
  24   1.0000      -1.060680       -28.8626
  25   1.0000      -1.045767       -28.4568
  26   1.0000      -0.975197       -26.5365
  27   1.0000      -0.946435       -25.7538
  28   1.0000      -0.889237       -24.1974
  29   1.0000      -0.839226       -22.8365
  30   1.0000      -0.820482       -22.3265
  31   1.0000      -0.795557       -21.6482
  32   1.0000      -0.777374       -21.1534
  33   1.0000      -0.774204       -21.0672
  34   1.0000      -0.693304       -18.8658
  35   1.0000      -0.687933       -18.7196
  36   1.0000      -0.680349       -18.5132
  37   1.0000      -0.661460       -17.9992
  38   1.0000      -0.642555       -17.4848
  39   1.0000      -0.627760       -17.0822
  40   1.0000      -0.607855       -16.5406
  41   1.0000      -0.602867       -16.4049
  42   1.0000      -0.590629       -16.0718
  43   1.0000      -0.580126       -15.7860
  44   1.0000      -0.572503       -15.5786
  45   1.0000      -0.565140       -15.3782
  46   1.0000      -0.561313       -15.2741
  47   1.0000      -0.558100       -15.1867
  48   1.0000      -0.555900       -15.1268
  49   1.0000      -0.547876       -14.9085
  50   1.0000      -0.545882       -14.8542
  51   1.0000      -0.535133       -14.5617
  52   1.0000      -0.529245       -14.4015
  53   1.0000      -0.520107       -14.1528
  54   1.0000      -0.511239       -13.9115
  55   1.0000      -0.491638       -13.3781
  56   1.0000      -0.478067       -13.0089
  57   1.0000      -0.425414       -11.5761
  58   1.0000      -0.415933       -11.3181
  59   1.0000      -0.408101       -11.1050
  60   1.0000      -0.396640       -10.7931
  61   1.0000      -0.392242       -10.6734
  62   1.0000      -0.387728       -10.5506
  63   1.0000      -0.386753       -10.5241
  64   1.0000      -0.377939       -10.2842
  65   0.0000      -0.063639        -1.7317
  66   0.0000      -0.051877        -1.4116
  67   0.0000       0.006518         0.1774
  68   0.0000       0.027230         0.7410
  69   0.0000       0.033324         0.9068

----------------------------------------------------------------------------------------------------
          SPIN FLIP ABSORPTION SPECTRUM VIA TRANSITION ELECTRIC DIPOLE MOMENTS
----------------------------------------------------------------------------------------------------
     Transition      Energy     Energy  Wavelength fosc(D2)      D2        DX        DY        DZ
                      (eV)      (cm-1)    (nm)                 (au**2)    (au)      (au)      (au)
----------------------------------------------------------------------------------------------------
  1-3A  ->  2-3A    0.040749     328.7  30426.2   0.000009897   0.00991  -0.08315   0.04604   0.02965
  1-3A  ->  3-3A    2.018888   16283.4   614.1   0.000832368   0.01683  -0.06421   0.02067  -0.11081

Dispersion correction             ... done (  0.1 sec)

MULLIKEN ATOMIC CHARGES AND SPIN DENSITIES
------------------------------------------
   0 O :   -0.641857    0.000312
   1 O :   -0.701688    0.005261
   2 O :   -0.643242   -0.000063
   3 O :   -0.635242   -0.000345
   4 N :   -0.146100   -0.002040
   5 N :   -0.405014   -0.004262
   6 N :   -0.035983   -0.006980
   7 N :    0.108203   -0.000802
   8 C :    0.566122    0.316852
   9 C :    0.306600    0.277424
  10 C :    0.229177   -0.179648
  11 C :    0.341199   -0.147639
  12 C :   -1.435462   -0.014351
  13 C :   -1.271327    0.010864
  14 C :    0.039900   -0.152323
  15 C :    0.106524   -0.171467
  16 C :    0.474772    0.012730
  17 C :    0.273473    0.007920
  18 H :    0.475908   -0.011880
  19 H :    0.755139    0.010558
  20 H :    0.362201   -0.003363
  21 H :    0.304976    0.018132
  22 H :    0.331380    0.010925
  23 H :    0.232428    0.017132
  24 H :    0.349990   -0.004090
  25 H :    0.307485    0.006549
  26 H :    0.078674   -0.000163
  27 H :    0.155703    0.000996
  28 H :    0.055780    0.001425
  29 H :    0.060280    0.002337
Sum of atomic charges       :   -0.0000000

LOEWDIN ATOMIC CHARGES AND SPIN DENSITIES
-----------------------------------------
   0 O :    0.086694   -0.000564
   1 O :    0.053899    0.003459
   2 O :    0.098957   -0.000214
   3 O :    0.065580   -0.000294
   4 N :    0.260795   -0.000356
   5 N :    0.292170   -0.000497
   6 N :    0.326625   -0.004146
   7 N :    0.321417   -0.002063
   8 C :   -0.037387    0.004080
   9 C :   -0.022635    0.012891
  10 C :   -0.073089   -0.002089
  11 C :   -0.104800   -0.000776
  12 C :    0.196687    0.000126
  13 C :    0.208299    0.000300
  14 C :   -0.424293   -0.004977
  15 C :   -0.371401   -0.004296
  16 C :   -0.504631   -0.000195
  17 C :   -0.425286   -0.000324
  18 H :    0.082143   -0.000852
  19 H :    0.015436    0.000025
  20 H :   -0.031729    0.000017
  21 H :   -0.006666    0.000393
  22 H :    0.037295    0.000399
  23 H :    0.049443    0.000280
  24 H :   -0.027650   -0.000139
  25 H :    0.001561    0.000388
  26 H :    0.005907   -0.000024
  27 H :   -0.066406   -0.000077
  28 H :   -0.002661   -0.000330
  29 H :   -0.004272   -0.000142

  Mayer bond orders larger than 0.100000
B(  0-O ,  8-C ) :  -0.1611 B(  0-O , 14-C ) :   1.5529 B(  1-O , 15-C ) :   1.2531
B(  2-O , 16-C ) :   1.5170 B(  3-O , 17-C ) :   1.5976 B(  4-N , 10-C ) :   0.6910
B(  4-N , 16-C ) :   1.0158 B(  4-N , 26-H ) :   1.0850 B(  5-N ,  9-C ) :   0.4014
B(  5-N , 11-C ) :  -0.1461 B(  5-N , 17-C ) :   1.1343 B(  5-N , 19-H ) :  -0.1928
B(  5-N , 27-H ) :   0.9334 B(  6-N ,  8-C ) :  -0.1705 B(  6-N , 10-C ) :   0.1251
B(  6-N , 14-C ) :   1.0107 B(  6-N , 16-C ) :   0.8936 B(  6-N , 28-H ) :   1.0996
B(  7-N , 15-C ) :   1.0399 B(  7-N , 17-C ) :   1.0198 B(  7-N , 29-H ) :   1.0701
B(  8-C ,  9-C ) :   0.1225 B(  8-C , 10-C ) :   0.5761 B(  8-C , 11-C ) :   0.2181
B(  8-C , 12-C ) :   0.3732 B(  8-C , 14-C ) :   0.6782 B(  8-C , 20-H ) :  -0.1187
B(  9-C , 11-C ) :   0.3399 B(  9-C , 13-C ) :   0.4614 B(  9-C , 15-C ) :   0.8068
B(  9-C , 17-C ) :   0.1151 B(  9-C , 19-H ) :  -0.2910 B(  9-C , 24-H ) :  -0.1147
B( 10-C , 11-C ) :   0.5726 B( 10-C , 14-C ) :  -0.1695 B( 10-C , 18-H ) :   0.7927
B( 11-C , 13-C ) :  -0.1945 B( 11-C , 15-C ) :  -0.1102 B( 11-C , 17-C ) :  -0.2771
B( 11-C , 18-H ) :  -0.1070 B( 11-C , 19-H ) :   0.6816 B( 12-C , 20-H ) :   1.0030
B( 12-C , 21-H ) :   0.8842 B( 12-C , 22-H ) :   0.9167 B( 13-C , 23-H ) :   0.8589
B( 13-C , 24-H ) :   0.9579 B( 13-C , 25-H ) :   1.0236

Dispersion correction           -0.059163243
FINAL SINGLE POINT ENERGY      -908.768353755798

DIPOLE MOMENT
-------------

Method             : TDA/CIS
Type of density    : Electron Density
Level              : Relaxed density
State              :   2
Multiplicity       :   3
Irrep              :   0
Energy             :     0.0000000000000000 Eh
Relativity type    :
Basis              : AO
                                X                 Y                 Z
Electronic contribution:    -10.005848689      -4.871242181      -1.922476588
Nuclear contribution   :     12.124477790       5.370561621       3.843291209
                        -----------------------------------------
Total Dipole Moment    :      2.118629101       0.499319440       1.920814622
                        -----------------------------------------
Magnitude (a.u.)       :      2.903004992
Magnitude (Debye)      :      7.378852281

Rotational constants in cm-1:             0.021159             0.012694             0.012209
Rotational constants in MHz :           634.323206           380.543833           366.026652

                             ****ORCA TERMINATED NORMALLY****
TOTAL RUN TIME: 0 days 0 hours 5 minutes 22 seconds 298 msec
