                         Program Version 6.0.0  -   RELEASE  -
|  1> ! Engrad wB97M-D3BJ def2-TZVPPD
|  2> %pal nprocs 8 end%pal nprocs 16 end
|  3> %tddft nroots 2 Iroot 2
|  4>  sf true
|  5> end
|  6> *xyz 0 3
|  7> O   1.76779652057804 0.87672717806936 0.0687777370281
|  8> C   0.98616712497086 -0.02638097580492 0.18075879215592
|  9> C   -0.30275334671907 -0.6684636004262 -0.25523820986728
| 10> H   1.32993675712694 -0.76404475764835 0.96294923063935
| 11> H   -0.02841597184496 -1.66985692528229 -0.58138066962301
| 12> H   -0.88333064778542 -0.16699377609538 -1.02863689786548
| 13> H   -0.89426898698733 -0.76957631476176 0.6527700175324
| 14> *
| 15>
| 16>                          ****END OF INPUT****

CARTESIAN COORDINATES (ANGSTROEM)
---------------------------------
  O      1.767797    0.876727    0.068778
  C      0.986167   -0.026381    0.180759
  C     -0.302753   -0.668464   -0.255238
  H      1.329937   -0.764045    0.962949
  H     -0.028416   -1.669857   -0.581381
  H     -0.883331   -0.166994   -1.028637
  H     -0.894269   -0.769576    0.652770

 Total Charge           Charge          ....    0
 Multiplicity           Mult            ....    3
 Number of Electrons    NEL             ....   24
 Basis Dimension        Dim             ....  182

ORBITAL ENERGIES
----------------
                 SPIN UP ORBITALS
  NO   OCC          E(Eh)            E(eV)
   0   1.0000     -19.401527      -527.9424
   1   1.0000     -10.383846      -282.5588
   2   1.0000     -10.375724      -282.3378
   3   1.0000      -1.237968       -33.6868
   4   1.0000      -0.893724       -24.3195
   5   1.0000      -0.713690       -19.4205
   6   1.0000      -0.623998       -16.9798
   7   1.0000      -0.588873       -16.0241
   8   1.0000      -0.578951       -15.7540
   9   1.0000      -0.519465       -14.1354
  10   1.0000      -0.518872       -14.1192
  11   1.0000      -0.413291       -11.2462
  12   1.0000      -0.215930        -5.8758
  13   0.0000       0.035110         0.9554
  14   0.0000       0.059290         1.6134
  15   0.0000       0.077168         2.0999
  16   0.0000       0.087043         2.3686
  17   0.0000       0.104586         2.8459

                 SPIN DOWN ORBITALS
  NO   OCC          E(Eh)            E(eV)
   0   1.0000     -19.375020      -527.2211
   1   1.0000     -10.374008      -282.2911
   2   1.0000     -10.373487      -282.2769
   3   1.0000      -1.183847       -32.2141
   4   1.0000      -0.874674       -23.8011
   5   1.0000      -0.667279       -18.1576
   6   1.0000      -0.583652       -15.8820
   7   1.0000      -0.543580       -14.7916
   8   1.0000      -0.534901       -14.5554
   9   1.0000      -0.495336       -13.4788
  10   1.0000      -0.470522       -12.8035
  11   0.0000      -0.076856        -2.0914
  12   0.0000       0.036833         1.0023
  13   0.0000       0.058963         1.6045
  14   0.0000       0.076614         2.0848
  15   0.0000       0.084988         2.3126

----------------------------------------------------------------------------------------------------
          SPIN FLIP ABSORPTION SPECTRUM VIA TRANSITION ELECTRIC DIPOLE MOMENTS
----------------------------------------------------------------------------------------------------
     Transition      Energy     Energy  Wavelength fosc(D2)      D2        DX        DY        DZ
                      (eV)      (cm-1)    (nm)                 (au**2)    (au)      (au)      (au)
----------------------------------------------------------------------------------------------------
  1-3A  ->  2-3A    4.500626   36300.0   275.5   0.000512295   0.00465  -0.03360   0.03503   0.04785

Dispersion correction             ... done (  0.0 sec)

MULLIKEN ATOMIC CHARGES AND SPIN DENSITIES
------------------------------------------
   0 O :   -0.289593    0.506206
   1 C :    0.247774   -0.588169
   2 C :   -0.697454    0.108861
   3 H :    0.060909    0.074063
   4 H :    0.216258   -0.054471
   5 H :    0.246037    0.005660
   6 H :    0.216070   -0.052150
Sum of atomic charges       :   -0.0000000

LOEWDIN ATOMIC CHARGES AND SPIN DENSITIES
-----------------------------------------
   0 O :    0.141817    0.329861
   1 C :   -0.251338   -0.321114
   2 C :    0.128986   -0.024273
   3 H :    0.031442    0.054072
   4 H :   -0.023432   -0.026252
   5 H :   -0.004164    0.013817
   6 H :   -0.023312   -0.026111

  Mayer bond orders larger than 0.100000
B(  0-O ,  1-C ) :   1.3396 B(  0-O ,  3-H ) :   0.1047 B(  1-C ,  2-C ) :   0.5670
B(  1-C ,  3-H ) :   0.9621 B(  2-C ,  4-H ) :   1.0149 B(  2-C ,  5-H ) :   0.9306
B(  2-C ,  6-H ) :   1.0157

Dispersion correction           -0.005486676
FINAL SINGLE POINT ENERGY      -153.738496318582

DIPOLE MOMENT
-------------

Method             : TDA/CIS
Type of density    : Electron Density
Level              : Relaxed density
State              :   2
Multiplicity       :   3
Irrep              :   0
Energy             :     0.0000000000000000 Eh
Relativity type    :
Basis              : AO
                                X                 Y                 Z
Electronic contribution:      2.947521180       2.805294159       0.016978327
Nuclear contribution   :     -3.500278474      -3.344423937      -0.011725797
                        -----------------------------------------
Total Dipole Moment    :     -0.552757293      -0.539129778       0.005252530
                        -----------------------------------------
Magnitude (a.u.)       :      0.772158748
Magnitude (Debye)      :      1.962671560

Rotational constants in cm-1:             2.711834             0.292381             0.277425
Rotational constants in MHz :         81298.741623          8765.361225          8316.982912

                             ****ORCA TERMINATED NORMALLY****
TOTAL RUN TIME: 0 days 0 hours 0 minutes 16 seconds 405 msec
