                         Program Version 6.0.0  -   RELEASE  -
|  1> ! Engrad def2-TZVPPD wB97M-D3BJ
|  2> %pal nprocs 8 end%pal nprocs 32 end
|  3>  %tddft nroots 2 Iroot 2
|  4> sf true
|  5> end
|  6> *xyz 0 3
|  7> O   3.98020520212281 0.25683287033791 0.54417951213214
|  8> O   -1.63533663111787 0.89954917636229 -2.54600154905697
|  9> O   1.22335532382562 -2.68839995114901 -1.52714316329241
| 10> O   -3.76307193644726 -0.74291096292051 1.02658384305086
| 11> N   0.30826033559159 -1.28877115731134 0.00349103733888
| 12> N   -1.91123513820217 0.53493214967659 1.39796554687349
| 13> N   2.58753934027342 -1.24883256607289 -0.42106835493406
| 14> N   -2.39665135284074 -0.25658585684157 -0.73352203654753
| 15> C   1.72569342496268 0.26573855723389 1.23430953466913
| 16> C   -0.74892991592129 1.44821898811502 -0.41431999200004
| 17> C   0.39836328297057 -0.36195724567451 1.10043994683285
| 18> C   -0.52262682063838 0.82220749443657 0.96119108083998
| 19> C   2.01155950753321 1.24464146950065 2.30455114918847
| 20> C   -0.629955820819 2.90623833817636 -0.59542935717676
| 21> C   2.85509052625821 -0.20422680350914 0.44908518355968
| 22> C   -1.57863882996996 0.69529246857955 -1.35352835876685
| 23> C   1.35245197779303 -1.81176499622361 -0.70337276624474
| 24> C   -2.76638756353531 -0.19601368428165 0.6153755621085
| 25> H   0.15669323424212 -0.87982577020859 2.04441166897065
| 26> H   -0.1821872618813 1.6093555159278 1.62132119957459
| 27> H   1.86183818696521 2.27716295119586 1.96617098408032
| 28> H   1.36994987503006 1.09255873505297 3.17327871422714
| 29> H   3.05687222575527 1.17016300949961 2.5917772417027
| 30> H   -1.47507438088081 3.42330667536078 -0.11967179498098
| 31> H   0.28165917499438 3.29648896121671 -0.14493471057559
| 32> H   -0.66175155555128 3.15025427466469 -1.65448461449222
| 33> H   -0.56871713923341 -1.74435947015534 -0.1738958037285
| 34> H   -2.16599233003674 0.54639660156442 2.37115496450247
| 35> H   3.35450932488689 -1.5824394229013 -0.98191812062604
| 36> H   -3.06488426612958 -0.71825034965225 -1.33139654722915
| 37> *
| 38>
| 39>                          ****END OF INPUT****

CARTESIAN COORDINATES (ANGSTROEM)
---------------------------------
  O      3.980205    0.256833    0.544180
  O     -1.635337    0.899549   -2.546002
  O      1.223355   -2.688400   -1.527143
  O     -3.763072   -0.742911    1.026584
  N      0.308260   -1.288771    0.003491
  N     -1.911235    0.534932    1.397966
  N      2.587539   -1.248833   -0.421068
  N     -2.396651   -0.256586   -0.733522
  C      1.725693    0.265739    1.234310
  C     -0.748930    1.448219   -0.414320
  C      0.398363   -0.361957    1.100440
  C     -0.522627    0.822207    0.961191
  C      2.011560    1.244641    2.304551
  C     -0.629956    2.906238   -0.595429
  C      2.855091   -0.204227    0.449085
  C     -1.578639    0.695292   -1.353528
  C      1.352452   -1.811765   -0.703373
  C     -2.766388   -0.196014    0.615376
  H      0.156693   -0.879826    2.044412
  H     -0.182187    1.609356    1.621321
  H      1.861838    2.277163    1.966171
  H      1.369950    1.092559    3.173279
  H      3.056872    1.170163    2.591777
  H     -1.475074    3.423307   -0.119672
  H      0.281659    3.296489   -0.144935
  H     -0.661752    3.150254   -1.654485
  H     -0.568717   -1.744359   -0.173896
  H     -2.165992    0.546397    2.371155
  H      3.354509   -1.582439   -0.981918
  H     -3.064884   -0.718250   -1.331397

 Total Charge           Charge          ....    0
 Multiplicity           Mult            ....    3
 Number of Electrons    NEL             ....  132
 Basis Dimension        Dim             ....  882

ORBITAL ENERGIES
----------------
                 SPIN UP ORBITALS
  NO   OCC          E(Eh)            E(eV)
   0   1.0000     -19.340256      -526.2751
   1   1.0000     -19.333796      -526.0993
   2   1.0000     -19.327098      -525.9171
   3   1.0000     -19.315584      -525.6038
   4   1.0000     -14.565953      -396.3597
   5   1.0000     -14.565110      -396.3368
   6   1.0000     -14.562688      -396.2709
   7   1.0000     -14.557603      -396.1325
   8   1.0000     -10.509954      -285.9904
   9   1.0000     -10.503622      -285.8181
  10   1.0000     -10.485478      -285.3244
  11   1.0000     -10.482553      -285.2448
  12   1.0000     -10.445722      -284.2426
  13   1.0000     -10.444510      -284.2096
  14   1.0000     -10.420996      -283.5697
  15   1.0000     -10.419793      -283.5370
  16   1.0000     -10.381071      -282.4833
  17   1.0000     -10.376016      -282.3458
  18   1.0000      -1.225632       -33.3511
  19   1.0000      -1.218383       -33.1539
  20   1.0000      -1.203358       -32.7450
  21   1.0000      -1.196104       -32.5476
  22   1.0000      -1.122867       -30.5548
  23   1.0000      -1.100841       -29.9554
  24   1.0000      -1.067965       -29.0608
  25   1.0000      -1.060140       -28.8479
  26   1.0000      -0.990991       -26.9662
  27   1.0000      -0.960971       -26.1494
  28   1.0000      -0.897765       -24.4294
  29   1.0000      -0.848091       -23.0777
  30   1.0000      -0.829744       -22.5785
  31   1.0000      -0.803763       -21.8715
  32   1.0000      -0.787434       -21.4272
  33   1.0000      -0.783908       -21.3312
  34   1.0000      -0.705951       -19.2099
  35   1.0000      -0.698461       -19.0061
  36   1.0000      -0.695105       -18.9148
  37   1.0000      -0.683806       -18.6073
  38   1.0000      -0.654920       -17.8213
  39   1.0000      -0.637386       -17.3442
  40   1.0000      -0.626514       -17.0483
  41   1.0000      -0.606247       -16.4968
  42   1.0000      -0.600340       -16.3361
  43   1.0000      -0.591092       -16.0844
  44   1.0000      -0.581646       -15.8274
  45   1.0000      -0.574595       -15.6355
  46   1.0000      -0.569932       -15.5086
  47   1.0000      -0.566108       -15.4046
  48   1.0000      -0.562362       -15.3026
  49   1.0000      -0.557826       -15.1792
  50   1.0000      -0.552389       -15.0313
  51   1.0000      -0.545602       -14.8466
  52   1.0000      -0.532518       -14.4906
  53   1.0000      -0.526181       -14.3181
  54   1.0000      -0.519593       -14.1388
  55   1.0000      -0.510484       -13.8910
  56   1.0000      -0.499959       -13.6046
  57   1.0000      -0.428543       -11.6613
  58   1.0000      -0.423721       -11.5300
  59   1.0000      -0.410089       -11.1591
  60   1.0000      -0.406189       -11.0530
  61   1.0000      -0.402414       -10.9502
  62   1.0000      -0.395499       -10.7621
  63   1.0000      -0.390400       -10.6233
  64   1.0000      -0.385514       -10.4904
  65   1.0000      -0.344044        -9.3619
  66   1.0000      -0.339516        -9.2387
  67   0.0000       0.008708         0.2370
  68   0.0000       0.028890         0.7861
  69   0.0000       0.030298         0.8244
  70   0.0000       0.033152         0.9021
  71   0.0000       0.050887         1.3847

                 SPIN DOWN ORBITALS
  NO   OCC          E(Eh)            E(eV)
   0   1.0000     -19.336547      -526.1742
   1   1.0000     -19.329851      -525.9920
   2   1.0000     -19.326804      -525.9091
   3   1.0000     -19.315574      -525.6035
   4   1.0000     -14.565829      -396.3564
   5   1.0000     -14.563960      -396.3055
   6   1.0000     -14.561915      -396.2499
   7   1.0000     -14.557535      -396.1307
   8   1.0000     -10.509966      -285.9907
   9   1.0000     -10.503675      -285.8195
  10   1.0000     -10.486462      -285.3511
  11   1.0000     -10.483528      -285.2713
  12   1.0000     -10.445361      -284.2327
  13   1.0000     -10.444874      -284.2195
  14   1.0000     -10.409622      -283.2602
  15   1.0000     -10.407579      -283.2046
  16   1.0000     -10.381679      -282.4999
  17   1.0000     -10.376606      -282.3618
  18   1.0000      -1.223863       -33.3030
  19   1.0000      -1.216524       -33.1033
  20   1.0000      -1.198967       -32.6255
  21   1.0000      -1.191872       -32.4325
  22   1.0000      -1.119894       -30.4739
  23   1.0000      -1.098619       -29.8949
  24   1.0000      -1.066136       -29.0110
  25   1.0000      -1.058490       -28.8030
  26   1.0000      -0.979365       -26.6499
  27   1.0000      -0.943691       -25.6791
  28   1.0000      -0.891846       -24.2684
  29   1.0000      -0.842323       -22.9208
  30   1.0000      -0.821173       -22.3453
  31   1.0000      -0.799317       -21.7505
  32   1.0000      -0.785846       -21.3840
  33   1.0000      -0.782000       -21.2793
  34   1.0000      -0.702120       -19.1057
  35   1.0000      -0.691229       -18.8093
  36   1.0000      -0.687539       -18.7089
  37   1.0000      -0.675490       -18.3810
  38   1.0000      -0.644268       -17.5314
  39   1.0000      -0.631274       -17.1778
  40   1.0000      -0.624319       -16.9886
  41   1.0000      -0.600339       -16.3361
  42   1.0000      -0.594048       -16.1649
  43   1.0000      -0.585535       -15.9332
  44   1.0000      -0.574684       -15.6380
  45   1.0000      -0.569261       -15.4904
  46   1.0000      -0.563256       -15.3270
  47   1.0000      -0.561356       -15.2753
  48   1.0000      -0.555046       -15.1036
  49   1.0000      -0.549239       -14.9456
  50   1.0000      -0.544254       -14.8099
  51   1.0000      -0.537717       -14.6320
  52   1.0000      -0.527143       -14.3443
  53   1.0000      -0.516547       -14.0560
  54   1.0000      -0.513707       -13.9787
  55   1.0000      -0.504005       -13.7147
  56   1.0000      -0.493456       -13.4276
  57   1.0000      -0.425051       -11.5662
  58   1.0000      -0.419034       -11.4025
  59   1.0000      -0.403753       -10.9867
  60   1.0000      -0.395896       -10.7729
  61   1.0000      -0.392049       -10.6682
  62   1.0000      -0.390992       -10.6394
  63   1.0000      -0.386536       -10.5182
  64   1.0000      -0.380731       -10.3602
  65   0.0000      -0.061724        -1.6796
  66   0.0000      -0.048898        -1.3306
  67   0.0000       0.008125         0.2211
  68   0.0000       0.028529         0.7763
  69   0.0000       0.030135         0.8200

----------------------------------------------------------------------------------------------------
          SPIN FLIP ABSORPTION SPECTRUM VIA TRANSITION ELECTRIC DIPOLE MOMENTS
----------------------------------------------------------------------------------------------------
     Transition      Energy     Energy  Wavelength fosc(D2)      D2        DX        DY        DZ
                      (eV)      (cm-1)    (nm)                 (au**2)    (au)      (au)      (au)
----------------------------------------------------------------------------------------------------
  1-3A  ->  2-3A    0.098283     792.7  12615.1   0.000000016   0.00001  -0.00224  -0.00011   0.00133

Dispersion correction             ... done (  0.0 sec)

MULLIKEN ATOMIC CHARGES AND SPIN DENSITIES
------------------------------------------
   0 O :   -0.666635    0.145023
   1 O :   -0.646732   -0.137646
   2 O :   -0.658504    0.000746
   3 O :   -0.650153   -0.007294
   4 N :   -0.114351   -0.038330
   5 N :   -0.275682   -0.025880
   6 N :   -0.055463    0.035166
   7 N :   -0.039980   -0.007786
   8 C :   -0.016908    0.402226
   9 C :    1.137052    0.127563
  10 C :    0.655474    0.191660
  11 C :   -0.029680   -0.416708
  12 C :   -1.893001   -0.029018
  13 C :   -1.449159   -0.019292
  14 C :    0.772764    0.172290
  15 C :   -0.171591   -0.399807
  16 C :    0.464026   -0.015119
  17 C :    0.388054    0.012608
  18 H :    0.343406    0.035214
  19 H :    0.587958   -0.035087
  20 H :    0.330115    0.030787
  21 H :    0.367077    0.004856
  22 H :    0.366815    0.014243
  23 H :    0.363282   -0.016646
  24 H :    0.332717    0.011644
  25 H :    0.351291   -0.017452
  26 H :    0.034900   -0.015372
  27 H :    0.065322   -0.001096
  28 H :    0.039927   -0.003416
  29 H :    0.067659    0.001920
Sum of atomic charges       :    0.0000000

LOEWDIN ATOMIC CHARGES AND SPIN DENSITIES
-----------------------------------------
   0 O :    0.087815    0.126847
   1 O :    0.101226   -0.126154
   2 O :    0.091624   -0.000429
   3 O :    0.090797   -0.007301
   4 N :    0.295109   -0.008748
   5 N :    0.291939   -0.031211
   6 N :    0.327780    0.029436
   7 N :    0.307929   -0.006648
   8 C :   -0.025545    0.498260
   9 C :    0.027000   -0.520793
  10 C :   -0.132914    0.064510
  11 C :   -0.121610   -0.024864
  12 C :    0.182323    0.073886
  13 C :    0.188365   -0.085217
  14 C :   -0.385361    0.081849
  15 C :   -0.422012   -0.080728
  16 C :   -0.471350   -0.000195
  17 C :   -0.488576   -0.001732
  18 H :    0.077729    0.024819
  19 H :    0.019733    0.002083
  20 H :    0.010986    0.026109
  21 H :    0.007446    0.007473
  22 H :    0.002557    0.005943
  23 H :    0.025197   -0.031205
  24 H :   -0.001171   -0.008788
  25 H :    0.004179   -0.004301
  26 H :   -0.038489   -0.000828
  27 H :   -0.029940   -0.003795
  28 H :   -0.011025    0.002603
  29 H :   -0.011738   -0.000880

  Mayer bond orders larger than 0.100000
B(  0-O ,  8-C ) :   0.1012 B(  0-O , 14-C ) :   1.2923 B(  1-O , 15-C ) :   1.5073
B(  2-O , 16-C ) :   1.5931 B(  3-O , 17-C ) :   1.5709 B(  4-N , 10-C ) :   0.5131
B(  4-N , 11-C ) :   0.1417 B(  4-N , 16-C ) :   1.0471 B(  4-N , 26-H ) :   1.1532
B(  5-N ,  9-C ) :   0.2428 B(  5-N , 10-C ) :   0.1594 B(  5-N , 17-C ) :   1.2256
B(  5-N , 19-H ) :  -0.1035 B(  5-N , 27-H ) :   1.0672 B(  6-N , 14-C ) :   0.9991
B(  6-N , 16-C ) :   0.9277 B(  6-N , 28-H ) :   1.1239 B(  7-N , 15-C ) :   0.9658
B(  7-N , 17-C ) :   0.9735 B(  7-N , 29-H ) :   1.0645 B(  8-C , 10-C ) :  -0.2086
B(  8-C , 11-C ) :   0.5018 B(  8-C , 12-C ) :   0.1034 B(  8-C , 14-C ) :   0.7127
B(  8-C , 18-H ) :  -0.1697 B(  8-C , 21-H ) :  -0.1461 B(  9-C , 10-C ) :   0.2798
B(  9-C , 11-C ) :   0.2666 B(  9-C , 13-C ) :   0.3881 B(  9-C , 15-C ) :   0.4673
B( 10-C , 11-C ) :   0.4630 B( 10-C , 12-C ) :  -0.3960 B( 10-C , 14-C ) :   0.1945
B( 10-C , 18-H ) :   1.0886 B( 11-C , 12-C ) :   0.1684 B( 11-C , 17-C ) :  -0.1946
B( 11-C , 18-H ) :  -0.1199 B( 11-C , 19-H ) :   0.6694 B( 12-C , 14-C ) :  -0.2453
B( 12-C , 20-H ) :   0.9338 B( 12-C , 21-H ) :   1.0082 B( 12-C , 22-H ) :   0.9414
B( 13-C , 23-H ) :   0.8379 B( 13-C , 24-H ) :   0.9581 B( 13-C , 25-H ) :   0.9783

Dispersion correction           -0.056834462
FINAL SINGLE POINT ENERGY      -908.790073929459

DIPOLE MOMENT
-------------

Method             : TDA/CIS
Type of density    : Electron Density
Level              : Relaxed density
State              :   2
Multiplicity       :   3
Irrep              :   0
Energy             :     0.0000000000000000 Eh
Relativity type    :
Basis              : AO
                                X                 Y                 Z
Electronic contribution:     -1.668258352      -9.281637292      -5.911296046
Nuclear contribution   :      1.639180914      10.810073399       8.024570035
                        -----------------------------------------
Total Dipole Moment    :     -0.029077438       1.528436107       2.113273989
                        -----------------------------------------
Magnitude (a.u.)       :      2.608234917
Magnitude (Debye)      :      6.629606296

Rotational constants in cm-1:             0.021083             0.011199             0.010095
Rotational constants in MHz :           632.061337           335.722601           302.648246

                             ****ORCA TERMINATED NORMALLY****
TOTAL RUN TIME: 0 days 0 hours 19 minutes 57 seconds 538 msec
