                         Program Version 6.0.0  -   RELEASE  -
|  1> ! Opt wB97M-D3BJ def2-TZVPPD
|  2> %pal nprocs 8 end %pal nprocs 64 end
|  3> %geom
|  4> Constraints
|  5>     {A 2 1 0 142.37288135593218 C }
|  6> end
|  7> MaxIter 200
|  8> end
|  9> *xyz 0 1
| 10> O   1.885548580087904 0.4694791776660585 0.0
| 11> C   0.7509 -0.4065 0.0
| 12> C   -0.7502 -0.4076 0.0
| 13> H   1.2625 -0.6786 0.9136
| 14> H   1.2625 -0.6787 -0.9136
| 15> H   -1.2614 -0.6806 -0.9136
| 16> H   -1.2614 -0.6805 0.9136
| 17> *
| 18>
| 19>                          ****END OF INPUT****
 Total Charge           Charge          ....    0
 Multiplicity           Mult            ....    1
 Number of Electrons    NEL             ....   24
Dispersion correction           -0.005294948
FINAL SINGLE POINT ENERGY      -153.683276803943
Dispersion correction             ... done (  0.1 sec)
Dispersion correction           -0.005392427
FINAL SINGLE POINT ENERGY      -153.705494483239
Dispersion correction             ... done (  0.1 sec)
Dispersion correction           -0.005461520
FINAL SINGLE POINT ENERGY      -153.715658063100
Dispersion correction             ... done (  0.1 sec)
FINAL SINGLE POINT ENERGY      -153.723038658254
FINAL SINGLE POINT ENERGY      -153.730823718077
FINAL SINGLE POINT ENERGY      -153.742814899316
FINAL SINGLE POINT ENERGY      -153.762408705214
FINAL SINGLE POINT ENERGY      -153.794804558833
FINAL SINGLE POINT ENERGY      -153.829477464423
FINAL SINGLE POINT ENERGY      -153.847068885018
FINAL SINGLE POINT ENERGY      -153.918170519770
FINAL SINGLE POINT ENERGY      -153.918297126832
FINAL SINGLE POINT ENERGY      -153.918429336540
FINAL SINGLE POINT ENERGY      -153.918697410206
FINAL SINGLE POINT ENERGY      -153.918823061238
FINAL SINGLE POINT ENERGY      -153.918908653720
FINAL SINGLE POINT ENERGY      -153.918926143697
Dispersion correction             ... done (  0.1 sec)
Dispersion correction           -0.005496574
FINAL SINGLE POINT ENERGY      -153.918931053562
Dispersion correction             ... done (  0.1 sec)
Dispersion correction           -0.005496503
FINAL SINGLE POINT ENERGY      -153.918931550272
Dispersion correction             ... done (  0.1 sec)
                    ***********************HURRAY********************

CARTESIAN COORDINATES (ANGSTROEM)
---------------------------------
  O      1.658407    0.946371    0.011290
  C      0.968484   -0.015307    0.202207
  C     -0.303335   -0.672856   -0.245452
  H      1.373127   -0.705416    0.989413
  H     -0.027734   -1.670887   -0.583254
  H     -0.864158   -0.155236   -1.021340
  H     -0.916342   -0.789690    0.647135

 Multiplicity           Mult            ....    1
 Number of Electrons    NEL             ....   24
 Basis Dimension        Dim             ....  182

ORBITAL ENERGIES
----------------

  NO   OCC          E(Eh)            E(eV)
   0   2.0000     -19.343763      -526.3706
   1   2.0000     -10.446280      -284.2577
   2   2.0000     -10.368450      -282.1399
   3   2.0000      -1.190741       -32.4017
   4   2.0000      -0.897583       -24.4245
   5   2.0000      -0.695424       -18.9234
   6   2.0000      -0.595721       -16.2104
   7   2.0000      -0.567438       -15.4408
   8   2.0000      -0.562073       -15.2948
   9   2.0000      -0.511196       -13.9104
  10   2.0000      -0.481985       -13.1155
  11   2.0000      -0.361090        -9.8258
  12   0.0000       0.033597         0.9142
  13   0.0000       0.058105         1.5811
  14   0.0000       0.059181         1.6104
  15   0.0000       0.081099         2.2068
  16   0.0000       0.084929         2.3110

MULLIKEN ATOMIC CHARGES
-----------------------
   0 O :   -0.465072
   1 C :    0.226676
   2 C :   -0.687507
   3 H :    0.201553
   4 H :    0.241506
   5 H :    0.241025
   6 H :    0.241820
Sum of atomic charges:   -0.0000000

LOEWDIN ATOMIC CHARGES
----------------------
   0 O :    0.078353
   1 C :   -0.245561
   2 C :    0.172568
   3 H :    0.018649
   4 H :   -0.006809
   5 H :   -0.010392
   6 H :   -0.006809

  Mayer bond orders larger than 0.100000
B(  0-O ,  1-C ) :   1.7731 B(  1-C ,  2-C ) :   0.7519 B(  1-C ,  3-H ) :   1.0169
B(  2-C ,  4-H ) :   0.9850 B(  2-C ,  5-H ) :   0.9630 B(  2-C ,  6-H ) :   0.9844

Dispersion correction           -0.005496463
FINAL SINGLE POINT ENERGY      -153.918931597544

DIPOLE MOMENT
-------------

Method             : SCF
Type of density    : Electron Density
Multiplicity       :   1
Irrep              :   0
Energy             :  -153.9134351346364156 Eh
Relativity type    :
Basis              : AO
                                X                 Y                 Z
Electronic contribution:      2.494777591       2.501477080       0.009549197
Nuclear contribution   :     -3.298552820      -3.403594528       0.056365063
                        -----------------------------------------
Total Dipole Moment    :     -0.803775230      -0.902117448       0.065914260
                        -----------------------------------------
Magnitude (a.u.)       :      1.210047602
Magnitude (Debye)      :      3.075696575

Rotational constants in cm-1:             2.483097             0.302429             0.283678
Rotational constants in MHz :         74441.365747          9066.589008          8504.465234

                             ****ORCA TERMINATED NORMALLY****
TOTAL RUN TIME: 0 days 0 hours 6 minutes 7 seconds 383 msec
