                         Program Version 6.0.0  -   RELEASE  -
|  1> ! Engrad def2-TZVPPD wB97M-D3BJ
|  2> %pal nprocs 8 end%pal nprocs 64 end
|  3>  %tddft nroots 2 Iroot 1
|  4> sf true
|  5> end
|  6> *xyz 0 3
|  7> O   2.97194252870649 0.60561432159639 -0.84904516954777
|  8> O   0.22382068197302 1.03784465189131 -1.83334498944409
|  9> O   0.29496909323606 -3.03079645035015 -0.56129318484187
| 10> O   -3.56807719154485 -1.06845996492512 -0.444572430446
| 11> N   0.16600780886672 -1.51522703267256 1.11890586023106
| 12> N   -2.3698360449086 0.71763321569217 0.41622846142235
| 13> N   1.60145184169763 -1.18068942762386 -0.67890919517232
| 14> N   -1.58187486917307 -0.30144041445845 -1.37052262577036
| 15> C   1.52734310059006 0.56073044742804 1.01515265686643
| 16> C   -0.98225960271947 1.2422761428452 0.28893664282328
| 17> C   0.57025043410606 -0.30997025053149 1.77840108687675
| 18> C   -0.26044274377663 0.93228212649425 1.56220955892492
| 19> C   2.51413069716945 1.39319856772656 1.78941766250954
| 20> C   -1.00438542774278 2.76125568020764 0.08952477976198
| 21> C   2.05995732349971 0.06222148535947 -0.27770184349145
| 22> C   -0.63658302838153 0.6449908368781 -1.09393302495146
| 23> C   0.65661337333207 -1.98835204016725 -0.06251725140661
| 24> C   -2.63162961980183 -0.31309928379221 -0.44239131174287
| 25> H   0.82720503720618 -0.47914600467762 2.81941827466932
| 26> H   -0.21114140543613 1.71829058827147 2.29841924982659
| 27> H   2.71885611712249 2.32654896743885 1.27201664985616
| 28> H   2.13728574549904 1.61882719408665 2.78397031498724
| 29> H   3.46306454069507 0.86554724444462 1.88785061883773
| 30> H   -1.64697870266541 3.02319478279905 -0.74633184523423
| 31> H   -1.38062760201501 3.25067668796569 0.98567646424342
| 32> H   0.00359890153477 3.11010573215012 -0.11731780467631
| 33> H   -0.54344152098566 -2.09452856408328 1.53148369483945
| 34> H   -2.83533596915801 0.70574909914231 1.30647940702484
| 35> H   1.97042793701645 -1.53509000815921 -1.54618132632842
| 36> H   -1.60171143394234 -0.84518833097674 -2.21542938064735
| 37> *
| 38>
| 39>                          ****END OF INPUT****

CARTESIAN COORDINATES (ANGSTROEM)
---------------------------------
  O      2.971943    0.605614   -0.849045
  O      0.223821    1.037845   -1.833345
  O      0.294969   -3.030796   -0.561293
  O     -3.568077   -1.068460   -0.444572
  N      0.166008   -1.515227    1.118906
  N     -2.369836    0.717633    0.416228
  N      1.601452   -1.180689   -0.678909
  N     -1.581875   -0.301440   -1.370523
  C      1.527343    0.560730    1.015153
  C     -0.982260    1.242276    0.288937
  C      0.570250   -0.309970    1.778401
  C     -0.260443    0.932282    1.562210
  C      2.514131    1.393199    1.789418
  C     -1.004385    2.761256    0.089525
  C      2.059957    0.062221   -0.277702
  C     -0.636583    0.644991   -1.093933
  C      0.656613   -1.988352   -0.062517
  C     -2.631630   -0.313099   -0.442391
  H      0.827205   -0.479146    2.819418
  H     -0.211141    1.718291    2.298419
  H      2.718856    2.326549    1.272017
  H      2.137286    1.618827    2.783970
  H      3.463065    0.865547    1.887851
  H     -1.646979    3.023195   -0.746332
  H     -1.380628    3.250677    0.985676
  H      0.003599    3.110106   -0.117318
  H     -0.543442   -2.094529    1.531484
  H     -2.835336    0.705749    1.306479
  H      1.970428   -1.535090   -1.546181
  H     -1.601711   -0.845188   -2.215429

 Total Charge           Charge          ....    0
 Multiplicity           Mult            ....    3
 Number of Electrons    NEL             ....  132
 Basis Dimension        Dim             ....  882

ORBITAL ENERGIES
----------------
                 SPIN UP ORBITALS
  NO   OCC          E(Eh)            E(eV)
   0   1.0000     -19.340453      -526.2805
   1   1.0000     -19.325478      -525.8730
   2   1.0000     -19.313042      -525.5346
   3   1.0000     -19.312169      -525.5108
   4   1.0000     -14.568853      -396.4386
   5   1.0000     -14.563604      -396.2958
   6   1.0000     -14.556634      -396.1061
   7   1.0000     -14.551204      -395.9584
   8   1.0000     -10.503505      -285.8149
   9   1.0000     -10.501301      -285.7549
  10   1.0000     -10.491672      -285.4929
  11   1.0000     -10.464187      -284.7450
  12   1.0000     -10.445864      -284.2464
  13   1.0000     -10.444597      -284.2119
  14   1.0000     -10.420425      -283.5542
  15   1.0000     -10.410906      -283.2952
  16   1.0000     -10.373744      -282.2839
  17   1.0000     -10.365359      -282.0558
  18   1.0000      -1.231570       -33.5127
  19   1.0000      -1.213231       -33.0137
  20   1.0000      -1.203946       -32.7610
  21   1.0000      -1.186142       -32.2766
  22   1.0000      -1.129004       -30.7218
  23   1.0000      -1.109169       -30.1820
  24   1.0000      -1.060348       -28.8535
  25   1.0000      -1.054349       -28.6903
  26   1.0000      -1.005209       -27.3531
  27   1.0000      -0.936912       -25.4947
  28   1.0000      -0.885734       -24.1021
  29   1.0000      -0.822247       -22.3745
  30   1.0000      -0.817718       -22.2512
  31   1.0000      -0.801538       -21.8110
  32   1.0000      -0.785386       -21.3714
  33   1.0000      -0.776493       -21.1295
  34   1.0000      -0.732682       -19.9373
  35   1.0000      -0.692950       -18.8561
  36   1.0000      -0.686171       -18.6717
  37   1.0000      -0.670142       -18.2355
  38   1.0000      -0.646619       -17.5954
  39   1.0000      -0.632882       -17.2216
  40   1.0000      -0.623992       -16.9797
  41   1.0000      -0.612886       -16.6775
  42   1.0000      -0.593965       -16.1626
  43   1.0000      -0.591259       -16.0890
  44   1.0000      -0.581261       -15.8169
  45   1.0000      -0.574214       -15.6251
  46   1.0000      -0.563422       -15.3315
  47   1.0000      -0.561624       -15.2826
  48   1.0000      -0.553935       -15.0733
  49   1.0000      -0.545036       -14.8312
  50   1.0000      -0.542432       -14.7603
  51   1.0000      -0.527128       -14.3439
  52   1.0000      -0.522876       -14.2282
  53   1.0000      -0.512856       -13.9555
  54   1.0000      -0.508622       -13.8403
  55   1.0000      -0.501542       -13.6477
  56   1.0000      -0.486353       -13.2343
  57   1.0000      -0.432062       -11.7570
  58   1.0000      -0.412725       -11.2308
  59   1.0000      -0.408688       -11.1210
  60   1.0000      -0.406666       -11.0659
  61   1.0000      -0.398545       -10.8450
  62   1.0000      -0.388579       -10.5738
  63   1.0000      -0.385693       -10.4953
  64   1.0000      -0.381957       -10.3936
  65   1.0000      -0.378781       -10.3071
  66   1.0000      -0.236182        -6.4268
  67   0.0000       0.013562         0.3691
  68   0.0000       0.030871         0.8401
  69   0.0000       0.036244         0.9863
  70   0.0000       0.038838         1.0568
  71   0.0000       0.046186         1.2568

                 SPIN DOWN ORBITALS
  NO   OCC          E(Eh)            E(eV)
   0   1.0000     -19.340352      -526.2777
   1   1.0000     -19.325174      -525.8647
   2   1.0000     -19.313061      -525.5351
   3   1.0000     -19.308195      -525.4027
   4   1.0000     -14.568764      -396.4362
   5   1.0000     -14.563090      -396.2818
   6   1.0000     -14.554674      -396.0528
   7   1.0000     -14.550584      -395.9415
   8   1.0000     -10.503467      -285.8139
   9   1.0000     -10.501352      -285.7563
  10   1.0000     -10.491397      -285.4854
  11   1.0000     -10.464082      -284.7422
  12   1.0000     -10.446504      -284.2638
  13   1.0000     -10.444511      -284.2096
  14   1.0000     -10.407594      -283.2050
  15   1.0000     -10.396815      -282.9117
  16   1.0000     -10.374063      -282.2926
  17   1.0000     -10.365239      -282.0525
  18   1.0000      -1.230838       -33.4928
  19   1.0000      -1.211989       -32.9799
  20   1.0000      -1.203474       -32.7482
  21   1.0000      -1.180882       -32.1334
  22   1.0000      -1.127024       -30.6679
  23   1.0000      -1.105401       -30.0795
  24   1.0000      -1.057100       -28.7652
  25   1.0000      -1.052118       -28.6296
  26   1.0000      -0.986253       -26.8373
  27   1.0000      -0.930508       -25.3204
  28   1.0000      -0.876110       -23.8402
  29   1.0000      -0.816264       -22.2117
  30   1.0000      -0.809281       -22.0217
  31   1.0000      -0.793940       -21.6042
  32   1.0000      -0.782402       -21.2902
  33   1.0000      -0.771904       -21.0046
  34   1.0000      -0.725854       -19.7515
  35   1.0000      -0.685411       -18.6510
  36   1.0000      -0.677959       -18.4482
  37   1.0000      -0.658954       -17.9311
  38   1.0000      -0.641587       -17.4585
  39   1.0000      -0.630323       -17.1520
  40   1.0000      -0.619902       -16.8684
  41   1.0000      -0.608503       -16.5582
  42   1.0000      -0.586489       -15.9592
  43   1.0000      -0.579783       -15.7767
  44   1.0000      -0.578082       -15.7304
  45   1.0000      -0.570932       -15.5358
  46   1.0000      -0.560706       -15.2576
  47   1.0000      -0.551689       -15.0122
  48   1.0000      -0.548640       -14.9293
  49   1.0000      -0.541013       -14.7217
  50   1.0000      -0.536509       -14.5992
  51   1.0000      -0.521455       -14.1895
  52   1.0000      -0.517554       -14.0833
  53   1.0000      -0.508996       -13.8505
  54   1.0000      -0.504658       -13.7324
  55   1.0000      -0.492664       -13.4061
  56   1.0000      -0.477969       -13.0062
  57   1.0000      -0.419964       -11.4278
  58   1.0000      -0.407290       -11.0829
  59   1.0000      -0.405232       -11.0269
  60   1.0000      -0.398392       -10.8408
  61   1.0000      -0.390053       -10.6139
  62   1.0000      -0.381981       -10.3942
  63   1.0000      -0.377729       -10.2785
  64   1.0000      -0.372367       -10.1326
  65   0.0000      -0.098962        -2.6929
  66   0.0000       0.006576         0.1789
  67   0.0000       0.028880         0.7859
  68   0.0000       0.030359         0.8261
  69   0.0000       0.037085         1.0091

----------------------------------------------------------------------------------------------------
          SPIN FLIP ABSORPTION SPECTRUM VIA TRANSITION ELECTRIC DIPOLE MOMENTS
----------------------------------------------------------------------------------------------------
     Transition      Energy     Energy  Wavelength fosc(D2)      D2        DX        DY        DZ
                      (eV)      (cm-1)    (nm)                 (au**2)    (au)      (au)      (au)
----------------------------------------------------------------------------------------------------
  1-3A  ->  2-3A    3.593054   28979.9   345.1   0.002019404   0.02294   0.13032  -0.00362  -0.07710

Dispersion correction             ... done (  0.1 sec)

MULLIKEN ATOMIC CHARGES AND SPIN DENSITIES
------------------------------------------
   0 O :   -0.655140    0.018163
   1 O :   -0.589384    0.007520
   2 O :   -0.671730    0.000028
   3 O :   -0.632782   -0.000038
   4 N :   -0.096350    0.024594
   5 N :   -0.246961    0.020660
   6 N :    0.067534    0.009955
   7 N :    0.160890    0.005308
   8 C :    1.369112    0.532983
   9 C :    2.151720   -0.369245
  10 C :   -0.047646   -0.700337
  11 C :   -0.846857    0.661409
  12 C :   -1.688047    0.097814
  13 C :   -1.553855   -0.028093
  14 C :   -0.099457   -0.359438
  15 C :   -0.440002   -0.031850
  16 C :    0.504069    0.025032
  17 C :    0.292866    0.004530
  18 H :    0.301448   -0.010853
  19 H :    0.355244    0.070269
  20 H :    0.309181    0.008151
  21 H :    0.365514   -0.001644
  22 H :    0.385673    0.010867
  23 H :    0.347626    0.000291
  24 H :    0.401784   -0.000547
  25 H :    0.336319    0.002515
  26 H :    0.037319   -0.000535
  27 H :    0.098951    0.000711
  28 H :    0.012231    0.002716
  29 H :    0.070731   -0.000937
Sum of atomic charges       :    0.0000000

LOEWDIN ATOMIC CHARGES AND SPIN DENSITIES
-----------------------------------------
   0 O :    0.112967    0.014591
   1 O :    0.131717   -0.000213
   2 O :    0.083224    0.000961
   3 O :    0.101423    0.000691
   4 N :    0.298757    0.002711
   5 N :    0.295709    0.003328
   6 N :    0.330077    0.001563
   7 N :    0.357286    0.000349
   8 C :   -0.083802   -0.023322
   9 C :   -0.304049   -0.003009
  10 C :   -0.136470   -0.005243
  11 C :    0.164659   -0.000214
  12 C :    0.179803   -0.001369
  13 C :    0.209547   -0.000628
  14 C :   -0.425223    0.004100
  15 C :   -0.380854   -0.000032
  16 C :   -0.493809    0.000808
  17 C :   -0.482814    0.000272
  18 H :    0.053603    0.001634
  19 H :    0.017859    0.000447
  20 H :    0.003564    0.000862
  21 H :   -0.005712    0.000153
  22 H :    0.008260    0.000250
  23 H :    0.010036    0.000069
  24 H :   -0.000371    0.000209
  25 H :    0.008125   -0.000508
  26 H :   -0.020028    0.000637
  27 H :   -0.029824    0.000769
  28 H :   -0.004946    0.000101
  29 H :    0.001287    0.000036

  Mayer bond orders larger than 0.100000
B(  0-O , 14-C ) :   1.3296 B(  1-O , 14-C ) :   0.1426 B(  1-O , 15-C ) :   1.4419
B(  2-O , 16-C ) :   1.5454 B(  3-O , 17-C ) :   1.6229 B(  4-N ,  8-C ) :   0.1137
B(  4-N ,  9-C ) :   0.1513 B(  4-N , 10-C ) :   0.7066 B(  4-N , 11-C ) :  -0.1787
B(  4-N , 16-C ) :   1.0469 B(  4-N , 26-H ) :   1.1223 B(  5-N ,  9-C ) :   0.2501
B(  5-N , 15-C ) :   0.2219 B(  5-N , 17-C ) :   1.2295 B(  5-N , 27-H ) :   1.0126
B(  6-N , 14-C ) :   0.8893 B(  6-N , 16-C ) :   0.9092 B(  6-N , 28-H ) :   1.1203
B(  7-N ,  9-C ) :   0.1339 B(  7-N , 15-C ) :   0.9640 B(  7-N , 17-C ) :   0.9777
B(  7-N , 29-H ) :   1.0555 B(  8-C , 10-C ) :   0.3203 B(  8-C , 11-C ) :   0.9421
B(  8-C , 21-H ) :  -0.1347 B(  9-C , 10-C ) :   0.2121 B(  9-C , 13-C ) :   0.4694
B(  9-C , 17-C ) :  -0.1076 B(  9-C , 25-H ) :  -0.1210 B( 10-C , 11-C ) :   0.5265
B( 10-C , 12-C ) :  -0.1911 B( 10-C , 16-C ) :  -0.1202 B( 10-C , 18-H ) :   1.0682
B( 11-C , 14-C ) :  -0.1420 B( 11-C , 15-C ) :   0.4726 B( 11-C , 19-H ) :   1.0132
B( 12-C , 20-H ) :   0.9482 B( 12-C , 21-H ) :   1.0384 B( 12-C , 22-H ) :   0.8905
B( 13-C , 23-H ) :   0.9142 B( 13-C , 24-H ) :   0.8508 B( 13-C , 25-H ) :   1.0400
B( 14-C , 15-C ) :   0.1350 B( 14-C , 16-C ) :  -0.1209

Dispersion correction           -0.058837799
FINAL SINGLE POINT ENERGY      -908.837049017969

DIPOLE MOMENT
-------------

Method             : TDA/CIS
Type of density    : Electron Density
Level              : Relaxed density
State              :   1
Multiplicity       :   3
Irrep              :   0
Energy             :     0.0000000000000000 Eh
Relativity type    :
Basis              : AO
                                X                 Y                 Z
Electronic contribution:     -3.182757244      -9.666620189      -7.431575874
Nuclear contribution   :      3.029292949      10.876188964       9.570777666
                        -----------------------------------------
Total Dipole Moment    :     -0.153464295       1.209568775       2.139201792
                        -----------------------------------------
Magnitude (a.u.)       :      2.462273790
Magnitude (Debye)      :      6.258602596

Rotational constants in cm-1:             0.021420             0.015177             0.012536
Rotational constants in MHz :           642.155655           454.981448           375.824234

                             ****ORCA TERMINATED NORMALLY****
TOTAL RUN TIME: 0 days 0 hours 5 minutes 10 seconds 371 msec
