                         Program Version 6.0.0  -   RELEASE  -
|  1> ! opt def2-TZVPPD wB97M-D3BJ
|  2> %pal nprocs 8 end%pal nprocs 32 end
|  3> %geom Constraints
|  4> {B 9 8 3.3 C}
|  5> {A 8 9 11 79.71428571428571 C}
|  6> end
|  7> MaxIter 300
|  8> end
|  9> *xyz 0 1
| 10> O   2.98579685529314 0.88758230159078 -0.86184571092411
| 11> O   -0.03983205397054 0.68929041702508 -2.10362336723772
| 12> O   0.93431434349854 -3.13274393337945 -0.68767288184107
| 13> O   -3.75829998830163 -0.84727300865116 -0.0472717177755
| 14> N   0.21184538946282 -1.54604804365365 0.7617588924445
| 15> N   -2.13631993928911 0.03188773433438 1.27350571071531
| 16> N   2.02598672506387 -1.14318467211666 -0.64531219127023
| 17> N   -1.91814233924584 0.03137116037665 -1.04498946748291
| 18> C   1.18097737274226 0.71693507080484 0.70173889017321
| 19> C   -0.20686880480777 1.27024627933494 0.21345042231937
| 20> C   0.41441080275909 -0.34173258966541 1.52336266615173
| 21> C   -0.82922175114212 0.58960593673968 1.44434972027296
| 22> C   1.92822011286806 1.69488653817281 1.5963734975385
| 23> C   -0.37809776891576 2.77134929626422 0.04819649358288
| 24> C   2.1403947470937 0.1972384729179 -0.35038567829864
| 25> C   -0.67361678962426 0.6214190571346 -1.0793014500539
| 26> C   1.04142578622994 -2.02697492875068 -0.21027082435993
| 27> C   -2.68467002550422 -0.30396816036989 0.07167054343891
| 28> H   0.80817443950001 -0.54572267081061 2.51895215321335
| 29> H   -0.83785272399001 1.27240685039143 2.28901317073582
| 30> H   2.31167340578204 2.52284411740894 1.00913016264629
| 31> H   1.28982602448342 2.08257620823614 2.38710022492991
| 32> H   2.77390820759972 1.19140411795486 2.06045858523949
| 33> H   -1.41857211141493 3.00964947214868 -0.16882755561625
| 34> H   -0.09065531563179 3.29799318042223 0.95389844358819
| 35> H   0.23426221611057 3.12492645074476 -0.77764887675592
| 36> H   -0.46772570547622 -2.21560145172536 1.0787081584806
| 37> H   -2.71769301149571 -0.17090724573546 2.06627440900372
| 38> H   2.60065167263658 -1.49057255715425 -1.3966820077142
| 39> H   -2.27169977231386 -0.32388339999036 -1.91951041514436
| 40> *
| 41>
| 42>                          ****END OF INPUT****
 Total Charge           Charge          ....    0
 Multiplicity           Mult            ....    1
 Number of Electrons    NEL             ....  132
Dispersion correction           -0.052020248
FINAL SINGLE POINT ENERGY      -908.588036062080
Dispersion correction             ... done (  0.0 sec)
Dispersion correction           -0.052738866
FINAL SINGLE POINT ENERGY      -908.646893019756
Dispersion correction             ... done (  0.0 sec)
Dispersion correction           -0.053426959
FINAL SINGLE POINT ENERGY      -908.699168765440
Dispersion correction             ... done (  0.0 sec)
FINAL SINGLE POINT ENERGY      -908.763245012748
FINAL SINGLE POINT ENERGY      -908.816134973623
FINAL SINGLE POINT ENERGY      -908.851634252456
FINAL SINGLE POINT ENERGY      -908.873508267258
FINAL SINGLE POINT ENERGY      -908.897128003045
FINAL SINGLE POINT ENERGY      -908.911469646471
FINAL SINGLE POINT ENERGY      -908.918230773627
FINAL SINGLE POINT ENERGY      -908.934372579736
FINAL SINGLE POINT ENERGY      -908.934600428082
FINAL SINGLE POINT ENERGY      -908.934777799406
FINAL SINGLE POINT ENERGY      -908.934927061428
FINAL SINGLE POINT ENERGY      -908.935007825068
FINAL SINGLE POINT ENERGY      -908.935058879778
FINAL SINGLE POINT ENERGY      -908.935082043771
Dispersion correction             ... done (  0.1 sec)
Dispersion correction           -0.059696707
FINAL SINGLE POINT ENERGY      -908.935088659967
Dispersion correction             ... done (  0.0 sec)
Dispersion correction           -0.059710456
FINAL SINGLE POINT ENERGY      -908.935090714655
Dispersion correction             ... done (  0.0 sec)
                    ***********************HURRAY********************

CARTESIAN COORDINATES (ANGSTROEM)
---------------------------------
  O      2.573920    1.175392   -0.517933
  O     -0.617413    0.856369   -2.282749
  O      0.608853   -2.793145   -1.526202
  O     -2.490699   -1.628495    1.028582
  N      0.622442   -2.105318    0.644481
  N     -2.003105    0.557059    1.437994
  N      1.686105   -0.858571   -0.975144
  N     -1.618986   -0.339748   -0.642439
  C      1.460387    0.045646    1.244542
  C     -0.871073    1.906232   -0.167022
  C      0.830394   -1.094710    1.553523
  C     -1.405054    1.734432    1.046604
  C      1.721222    1.146270    2.220272
  C     -0.183533    3.156684   -0.610362
  C      1.966211    0.204173   -0.119265
  C     -1.004197    0.816493   -1.136602
  C      0.947818   -1.986449   -0.689741
  C     -2.075385   -0.557740    0.635394
  H      0.440125   -1.286254    2.541685
  H     -1.374076    2.505513    1.801254
  H      1.355927    2.094268    1.830503
  H      1.237269    0.941583    3.173066
  H      2.789474    1.267865    2.390772
  H     -0.664548    3.563830   -1.497307
  H     -0.202526    3.906405    0.177608
  H      0.851448    2.942346   -0.869613
  H     -0.018040   -2.849727    0.861979
  H     -2.350060    0.438228    2.372155
  H      1.902709   -0.715110   -1.949662
  H     -1.663008   -1.128522   -1.271773

 Multiplicity           Mult            ....    1
 Number of Electrons    NEL             ....  132
 Basis Dimension        Dim             ....  882

ORBITAL ENERGIES
----------------

  NO   OCC          E(Eh)            E(eV)
   0   2.0000     -19.329722      -525.9885
   1   2.0000     -19.323802      -525.8274
   2   2.0000     -19.320017      -525.7244
   3   2.0000     -19.319299      -525.7049
   4   2.0000     -14.586557      -396.9204
   5   2.0000     -14.574713      -396.5981
   6   2.0000     -14.571710      -396.5164
   7   2.0000     -14.563371      -396.2895
   8   2.0000     -10.516240      -286.1614
   9   2.0000     -10.505845      -285.8786
  10   2.0000     -10.479440      -285.1600
  11   2.0000     -10.475339      -285.0485
  12   2.0000     -10.431757      -283.8625
  13   2.0000     -10.428863      -283.7838
  14   2.0000     -10.380260      -282.4612
  15   2.0000     -10.378581      -282.4155
  16   2.0000     -10.360862      -281.9334
  17   2.0000     -10.349312      -281.6191
  18   2.0000      -1.229006       -33.4429
  19   2.0000      -1.219226       -33.1768
  20   2.0000      -1.194858       -32.5137
  21   2.0000      -1.189088       -32.3567
  22   2.0000      -1.124743       -30.6058
  23   2.0000      -1.116374       -30.3781
  24   2.0000      -1.071413       -29.1546
  25   2.0000      -1.063745       -28.9460
  26   2.0000      -0.958588       -26.0845
  27   2.0000      -0.953804       -25.9543
  28   2.0000      -0.848238       -23.0817
  29   2.0000      -0.846141       -23.0247
  30   2.0000      -0.811208       -22.0741
  31   2.0000      -0.806972       -21.9588
  32   2.0000      -0.795694       -21.6519
  33   2.0000      -0.787577       -21.4311
  34   2.0000      -0.696413       -18.9504
  35   2.0000      -0.693048       -18.8588
  36   2.0000      -0.690771       -18.7968
  37   2.0000      -0.687266       -18.7015
  38   2.0000      -0.643852       -17.5201
  39   2.0000      -0.638528       -17.3752
  40   2.0000      -0.633959       -17.2509
  41   2.0000      -0.598378       -16.2827
  42   2.0000      -0.596405       -16.2290
  43   2.0000      -0.591443       -16.0940
  44   2.0000      -0.569221       -15.4893
  45   2.0000      -0.563733       -15.3400
  46   2.0000      -0.559879       -15.2351
  47   2.0000      -0.550654       -14.9841
  48   2.0000      -0.549367       -14.9490
  49   2.0000      -0.544771       -14.8240
  50   2.0000      -0.519311       -14.1312
  51   2.0000      -0.517551       -14.0833
  52   2.0000      -0.514262       -13.9938
  53   2.0000      -0.513376       -13.9697
  54   2.0000      -0.504538       -13.7292
  55   2.0000      -0.497084       -13.5264
  56   2.0000      -0.480396       -13.0722
  57   2.0000      -0.471089       -12.8190
  58   2.0000      -0.421650       -11.4737
  59   2.0000      -0.412289       -11.2190
  60   2.0000      -0.405708       -11.0399
  61   2.0000      -0.395908       -10.7732
  62   2.0000      -0.387920       -10.5558
  63   2.0000      -0.383418       -10.4333
  64   2.0000      -0.349130        -9.5003
  65   2.0000      -0.342099        -9.3090
  66   0.0000       0.010439         0.2841
  67   0.0000       0.018148         0.4938
  68   0.0000       0.024100         0.6558
  69   0.0000       0.034396         0.9360
  70   0.0000       0.040672         1.1067

MULLIKEN ATOMIC CHARGES
-----------------------
   0 O :   -0.676375
   1 O :   -0.659840
   2 O :   -0.645170
   3 O :   -0.670325
   4 N :   -0.054643
   5 N :    0.004009
   6 N :    0.038560
   7 N :    0.039019
   8 C :    0.849005
   9 C :    0.602647
  10 C :    0.094857
  11 C :    0.006705
  12 C :   -1.475478
  13 C :   -1.441952
  14 C :    0.293558
  15 C :    0.565366
  16 C :    0.361576
  17 C :    0.445927
  18 H :    0.163681
  19 H :    0.155216
  20 H :    0.223218
  21 H :    0.336148
  22 H :    0.372201
  23 H :    0.373592
  24 H :    0.326669
  25 H :    0.221722
  26 H :    0.065141
  27 H :    0.018532
  28 H :    0.036363
  29 H :    0.030068
Sum of atomic charges:   -0.0000000

LOEWDIN ATOMIC CHARGES
----------------------
   0 O :    0.089915
   1 O :    0.103503
   2 O :    0.086655
   3 O :    0.072553
   4 N :    0.278408
   5 N :    0.283687
   6 N :    0.343906
   7 N :    0.346318
   8 C :   -0.140882
   9 C :   -0.138918
  10 C :    0.044496
  11 C :    0.044982
  12 C :    0.177054
  13 C :    0.183654
  14 C :   -0.398122
  15 C :   -0.392416
  16 C :   -0.485752
  17 C :   -0.490960
  18 H :    0.040723
  19 H :    0.038404
  20 H :   -0.015562
  21 H :   -0.004935
  22 H :    0.003176
  23 H :    0.001677
  24 H :   -0.005095
  25 H :   -0.014912
  26 H :   -0.021335
  27 H :   -0.019817
  28 H :   -0.002503
  29 H :   -0.007901

  Mayer bond orders larger than 0.100000
B(  0-O , 14-C ) :   1.4628 B(  1-O , 15-C ) :   1.4377 B(  2-O , 16-C ) :   1.5694
B(  3-O , 17-C ) :   1.5348 B(  4-N , 10-C ) :   0.8446 B(  4-N , 16-C ) :   1.0073
B(  4-N , 26-H ) :   1.1103 B(  5-N , 11-C ) :   0.9507 B(  5-N , 17-C ) :   1.0369
B(  5-N , 27-H ) :   1.1336 B(  6-N , 14-C ) :   1.0179 B(  6-N , 16-C ) :   0.9110
B(  6-N , 28-H ) :   1.1005 B(  7-N , 15-C ) :   0.9850 B(  7-N , 17-C ) :   0.9364
B(  7-N , 29-H ) :   1.1209 B(  8-C , 10-C ) :   1.0985 B(  8-C , 12-C ) :   0.3365
B(  8-C , 14-C ) :   0.7274 B(  9-C , 11-C ) :   1.2188 B(  9-C , 13-C ) :   0.3445
B(  9-C , 15-C ) :   0.7602 B(  9-C , 24-H ) :  -0.1045 B( 10-C , 12-C ) :  -0.1553
B( 10-C , 18-H ) :   1.1255 B( 11-C , 13-C ) :  -0.2076 B( 11-C , 19-H ) :   1.1168
B( 12-C , 20-H ) :   1.0169 B( 12-C , 21-H ) :   1.0121 B( 12-C , 22-H ) :   0.9026
B( 13-C , 23-H ) :   0.8854 B( 13-C , 24-H ) :   1.0444 B( 13-C , 25-H ) :   1.0004

Dispersion correction           -0.059707536
FINAL SINGLE POINT ENERGY      -908.935091673965

DIPOLE MOMENT
-------------

Method             : SCF
Type of density    : Electron Density
Multiplicity       :   1
Irrep              :   0
Energy             :  -908.8753841381161465 Eh
Relativity type    :
Basis              : AO
                                X                 Y                 Z
Electronic contribution:     -2.652533627     -10.026011835      -5.906177026
Nuclear contribution   :      2.076258971      10.926787058       8.422056144
                        -----------------------------------------
Total Dipole Moment    :     -0.576274656       0.900775223       2.515879118
                        -----------------------------------------
Magnitude (a.u.)       :      2.733703754
Magnitude (Debye)      :      6.948522735

Rotational constants in cm-1:             0.017246             0.016329             0.013554
Rotational constants in MHz :           517.016932           489.517787           406.338014

                             ****ORCA TERMINATED NORMALLY****
TOTAL RUN TIME: 0 days 5 hours 24 minutes 19 seconds 317 msec
