                         Program Version 6.0.0  -   RELEASE  -
|  1> ! Engrad def2-TZVPPD wB97M-D3BJ
|  2> %pal nprocs 8 end%pal nprocs 32 end
|  3> %tddft Nroots 2 Iroot 1
|  4> sf true
|  5> end
|  6> *xyz 0 3
|  7> O   0.04047124 1.01548233 -0.26186451
|  8> C   0.65450664 -0.19207969 0.15951669
|  9> C   -0.67493396 -0.96563049 0.10636381
| 10> H   1.14736959 -0.00801134 1.17343483
| 11> H   1.52399376 -0.53682417 -0.31129028
| 12> H   -0.91172829 -0.9424155 -0.97486597
| 13> H   -1.26065291 -1.02494267 1.09388414
| 14> *
| 15>
| 16>                          ****END OF INPUT****

CARTESIAN COORDINATES (ANGSTROEM)
---------------------------------
  O      0.040471    1.015482   -0.261865
  C      0.654507   -0.192080    0.159517
  C     -0.674934   -0.965630    0.106364
  H      1.147370   -0.008011    1.173435
  H      1.523994   -0.536824   -0.311290
  H     -0.911728   -0.942415   -0.974866
  H     -1.260653   -1.024943    1.093884

 Total Charge           Charge          ....    0
 Multiplicity           Mult            ....    3
 Number of Electrons    NEL             ....   24
 Basis Dimension        Dim             ....  182

ORBITAL ENERGIES
----------------
                 SPIN UP ORBITALS
  NO   OCC          E(Eh)            E(eV)
   0   1.0000     -19.402005      -527.9554
   1   1.0000     -10.414721      -283.3990
   2   1.0000     -10.371308      -282.2176
   3   1.0000      -1.167694       -31.7746
   4   1.0000      -0.854508       -23.2523
   5   1.0000      -0.745827       -20.2950
   6   1.0000      -0.613213       -16.6864
   7   1.0000      -0.585669       -15.9369
   8   1.0000      -0.521231       -14.1834
   9   1.0000      -0.511309       -13.9134
  10   1.0000      -0.444658       -12.0998
  11   1.0000      -0.430606       -11.7174
  12   1.0000      -0.300815        -8.1856
  13   0.0000       0.038538         1.0487
  14   0.0000       0.061280         1.6675
  15   0.0000       0.075958         2.0669
  16   0.0000       0.084397         2.2966
  17   0.0000       0.115218         3.1352

                 SPIN DOWN ORBITALS
  NO   OCC          E(Eh)            E(eV)
   0   1.0000     -19.375070      -527.2225
   1   1.0000     -10.415987      -283.4334
   2   1.0000     -10.357939      -281.8539
   3   1.0000      -1.106978       -30.1224
   4   1.0000      -0.822894       -22.3921
   5   1.0000      -0.724008       -19.7013
   6   1.0000      -0.577166       -15.7055
   7   1.0000      -0.551303       -15.0017
   8   1.0000      -0.495927       -13.4949
   9   1.0000      -0.476887       -12.9768
  10   1.0000      -0.387753       -10.5513
  11   0.0000      -0.063720        -1.7339
  12   0.0000       0.017167         0.4671
  13   0.0000       0.038418         1.0454
  14   0.0000       0.062782         1.7084
  15   0.0000       0.075869         2.0645

----------------------------------------------------------------------------------------------------
          SPIN FLIP ABSORPTION SPECTRUM VIA TRANSITION ELECTRIC DIPOLE MOMENTS
----------------------------------------------------------------------------------------------------
     Transition      Energy     Energy  Wavelength fosc(D2)      D2        DX        DY        DZ
                      (eV)      (cm-1)    (nm)                 (au**2)    (au)      (au)      (au)
----------------------------------------------------------------------------------------------------
  1-3A  ->  2-3A    1.345869   10855.2   921.2   0.000666596   0.02022   0.05423   0.08820   0.09745

Dispersion correction             ... done (  0.1 sec)

MULLIKEN ATOMIC CHARGES AND SPIN DENSITIES
------------------------------------------
   0 O :   -0.493788   -0.326493
   1 C :   -0.142916   -0.052949
   2 C :   -0.354387    0.277117
   3 H :    0.216819    0.031800
   4 H :    0.229692    0.023215
   5 H :    0.311402    0.027801
   6 H :    0.233177    0.019509
Sum of atomic charges       :    0.0000000

LOEWDIN ATOMIC CHARGES AND SPIN DENSITIES
-----------------------------------------
   0 O :   -0.124040   -0.342886
   1 C :   -0.269946    0.010441
   2 C :    0.379976    0.273123
   3 H :    0.042004    0.007046
   4 H :   -0.032916    0.005136
   5 H :   -0.020487    0.024178
   6 H :    0.025409    0.022962

  Mayer bond orders larger than 0.100000
B(  0-O ,  1-C ) :   0.8356 B(  0-O ,  2-C ) :   0.6867 B(  1-C ,  2-C ) :   0.8107
B(  1-C ,  3-H ) :   0.9523 B(  1-C ,  4-H ) :   1.0135 B(  2-C ,  5-H ) :   0.9101
B(  2-C ,  6-H ) :   0.9449

Dispersion correction           -0.005586900
FINAL SINGLE POINT ENERGY      -153.761530194756

DIPOLE MOMENT
-------------

Method             : TDA/CIS
Type of density    : Electron Density
Level              : Relaxed density
State              :   1
Multiplicity       :   3
Irrep              :   0
Energy             :     0.0000000000000000 Eh
Relativity type    :
Basis              : AO
                                X                 Y                 Z
Electronic contribution:     -0.466285525       0.904020317      -0.533583689
Nuclear contribution   :      0.391324200      -2.325541052       0.917235366
                        -----------------------------------------
Total Dipole Moment    :     -0.074961326      -1.421520735       0.383651677
                        -----------------------------------------
Magnitude (a.u.)       :      1.474289324
Magnitude (Debye)      :      3.747345654

Rotational constants in cm-1:             0.984756             0.437358             0.344398
Rotational constants in MHz :         29522.227996         13111.655188         10324.804766

                             ****ORCA TERMINATED NORMALLY****
TOTAL RUN TIME: 0 days 0 hours 0 minutes 18 seconds 185 msec
