                         Program Version 6.0.0  -   RELEASE  -
|  1> ! Engrad def2-TZVPPD wB97M-D3BJ
|  2> %pal nprocs 8 end%pal nprocs 64 end
|  3> %tddft Nroots 2 Iroot 2
|  4> sf true
|  5> end
|  6> *xyz 0 3
|  7> O   3.52403896 0.34147612 -0.4324527
|  8> O   -1.28377963 1.99871311 -2.22533645
|  9> O   0.78054304 -3.21894921 -0.71709086
| 10> O   -3.2789458 -1.56007091 -0.52656328
| 11> N   0.11923815 -1.44851626 0.55668017
| 12> N   -2.16553517 -0.2528948 0.98173494
| 13> N   2.10300065 -1.35763333 -0.59392657
| 14> N   -2.10891652 0.15803352 -1.35085106
| 15> C   1.73188153 0.33655566 1.09330466
| 16> C   -0.78658653 1.59831729 0.03288109
| 17> C   0.36423559 -0.25533532 1.37096019
| 18> C   -0.98928586 0.73898357 1.20767746
| 19> C   2.47602477 1.12740289 2.21679441
| 20> C   -0.13037441 2.95571201 0.25265179
| 21> C   2.48506434 -0.18681251 -0.04811698
| 22> C   -1.39263617 1.30201172 -1.25235428
| 23> C   1.00166871 -2.07458628 -0.24743469
| 24> C   -2.54820263 -0.60330292 -0.30670988
| 25> H   0.43046652 -0.58976276 2.37118481
| 26> H   -1.04708654 1.22867699 2.12288294
| 27> H   2.91679219 2.05483969 1.8021223
| 28> H   1.79960587 1.43254049 2.92907487
| 29> H   3.26806167 0.41636008 2.44034791
| 30> H   -0.827907 3.69636709 -0.32726214
| 31> H   0.16099377 3.26832688 1.24616674
| 32> H   0.76242991 2.92973148 -0.44310484
| 33> H   -0.59679767 -2.04800749 0.88357726
| 34> H   -2.70472305 -0.52852211 1.76726787
| 35> H   2.73951291 -1.87278292 -1.22483394
| 36> H   -2.55314396 0.04260632 -2.23694115
| 37> *
| 38>
| 39>                          ****END OF INPUT****

CARTESIAN COORDINATES (ANGSTROEM)
---------------------------------
  O      3.524039    0.341476   -0.432453
  O     -1.283780    1.998713   -2.225336
  O      0.780543   -3.218949   -0.717091
  O     -3.278946   -1.560071   -0.526563
  N      0.119238   -1.448516    0.556680
  N     -2.165535   -0.252895    0.981735
  N      2.103001   -1.357633   -0.593927
  N     -2.108917    0.158034   -1.350851
  C      1.731882    0.336556    1.093305
  C     -0.786587    1.598317    0.032881
  C      0.364236   -0.255335    1.370960
  C     -0.989286    0.738984    1.207677
  C      2.476025    1.127403    2.216794
  C     -0.130374    2.955712    0.252652
  C      2.485064   -0.186813   -0.048117
  C     -1.392636    1.302012   -1.252354
  C      1.001669   -2.074586   -0.247435
  C     -2.548203   -0.603303   -0.306710
  H      0.430467   -0.589763    2.371185
  H     -1.047087    1.228677    2.122883
  H      2.916792    2.054840    1.802122
  H      1.799606    1.432540    2.929075
  H      3.268062    0.416360    2.440348
  H     -0.827907    3.696367   -0.327262
  H      0.160994    3.268327    1.246167
  H      0.762430    2.929731   -0.443105
  H     -0.596798   -2.048007    0.883577
  H     -2.704723   -0.528522    1.767268
  H      2.739513   -1.872783   -1.224834
  H     -2.553144    0.042606   -2.236941

 Total Charge           Charge          ....    0
 Multiplicity           Mult            ....    3
 Number of Electrons    NEL             ....  132
 Basis Dimension        Dim             ....  882

ORBITAL ENERGIES
----------------
                 SPIN UP ORBITALS
  NO   OCC          E(Eh)            E(eV)
   0   1.0000     -19.329366      -525.9788
   1   1.0000     -19.328229      -525.9478
   2   1.0000     -19.315914      -525.6127
   3   1.0000     -19.307570      -525.3857
   4   1.0000     -14.568444      -396.4275
   5   1.0000     -14.565370      -396.3439
   6   1.0000     -14.562989      -396.2791
   7   1.0000     -14.555829      -396.0843
   8   1.0000     -10.507998      -285.9372
   9   1.0000     -10.500094      -285.7221
  10   1.0000     -10.481883      -285.2265
  11   1.0000     -10.477028      -285.0944
  12   1.0000     -10.456504      -284.5359
  13   1.0000     -10.448765      -284.3253
  14   1.0000     -10.427601      -283.7495
  15   1.0000     -10.421663      -283.5879
  16   1.0000     -10.388693      -282.6907
  17   1.0000     -10.384531      -282.5775
  18   1.0000      -1.224979       -33.3334
  19   1.0000      -1.214142       -33.0385
  20   1.0000      -1.196646       -32.5624
  21   1.0000      -1.180790       -32.1309
  22   1.0000      -1.104094       -30.0439
  23   1.0000      -1.091743       -29.7078
  24   1.0000      -1.073563       -29.2131
  25   1.0000      -1.053775       -28.6747
  26   1.0000      -0.977817       -26.6078
  27   1.0000      -0.952434       -25.9170
  28   1.0000      -0.883393       -24.0383
  29   1.0000      -0.843492       -22.9526
  30   1.0000      -0.828131       -22.5346
  31   1.0000      -0.804591       -21.8940
  32   1.0000      -0.794451       -21.6181
  33   1.0000      -0.791991       -21.5512
  34   1.0000      -0.706514       -19.2252
  35   1.0000      -0.704676       -19.1752
  36   1.0000      -0.685781       -18.6610
  37   1.0000      -0.677069       -18.4240
  38   1.0000      -0.647762       -17.6265
  39   1.0000      -0.634489       -17.2653
  40   1.0000      -0.627146       -17.0655
  41   1.0000      -0.610201       -16.6044
  42   1.0000      -0.604054       -16.4371
  43   1.0000      -0.588216       -16.0062
  44   1.0000      -0.580621       -15.7995
  45   1.0000      -0.570794       -15.5321
  46   1.0000      -0.567030       -15.4297
  47   1.0000      -0.557228       -15.1629
  48   1.0000      -0.553997       -15.0750
  49   1.0000      -0.547196       -14.8900
  50   1.0000      -0.541505       -14.7351
  51   1.0000      -0.539645       -14.6845
  52   1.0000      -0.525362       -14.2958
  53   1.0000      -0.520097       -14.1526
  54   1.0000      -0.511751       -13.9255
  55   1.0000      -0.502976       -13.6867
  56   1.0000      -0.495386       -13.4801
  57   1.0000      -0.415730       -11.3126
  58   1.0000      -0.410814       -11.1788
  59   1.0000      -0.406749       -11.0682
  60   1.0000      -0.404643       -11.0109
  61   1.0000      -0.393950       -10.7199
  62   1.0000      -0.388347       -10.5675
  63   1.0000      -0.385003       -10.4765
  64   1.0000      -0.380471       -10.3531
  65   1.0000      -0.344800        -9.3825
  66   1.0000      -0.326774        -8.8920
  67   0.0000       0.004957         0.1349
  68   0.0000       0.026549         0.7224
  69   0.0000       0.029184         0.7941
  70   0.0000       0.034716         0.9447
  71   0.0000       0.052593         1.4311

                 SPIN DOWN ORBITALS
  NO   OCC          E(Eh)            E(eV)
   0   1.0000     -19.325747      -525.8803
   1   1.0000     -19.324681      -525.8513
   2   1.0000     -19.315767      -525.6087
   3   1.0000     -19.307468      -525.3829
   4   1.0000     -14.567808      -396.4102
   5   1.0000     -14.565082      -396.3360
   6   1.0000     -14.562397      -396.2630
   7   1.0000     -14.555770      -396.0826
   8   1.0000     -10.508043      -285.9384
   9   1.0000     -10.500110      -285.7225
  10   1.0000     -10.482884      -285.2538
  11   1.0000     -10.477860      -285.1171
  12   1.0000     -10.456139      -284.5260
  13   1.0000     -10.447806      -284.2992
  14   1.0000     -10.415660      -283.4245
  15   1.0000     -10.410320      -283.2792
  16   1.0000     -10.389129      -282.7026
  17   1.0000     -10.385003      -282.5903
  18   1.0000      -1.221789       -33.2466
  19   1.0000      -1.211332       -32.9620
  20   1.0000      -1.194219       -32.4964
  21   1.0000      -1.177939       -32.0533
  22   1.0000      -1.101783       -29.9811
  23   1.0000      -1.089670       -29.6514
  24   1.0000      -1.071602       -29.1598
  25   1.0000      -1.052397       -28.6372
  26   1.0000      -0.964072       -26.2337
  27   1.0000      -0.935409       -25.4538
  28   1.0000      -0.877841       -23.8873
  29   1.0000      -0.838173       -22.8079
  30   1.0000      -0.820361       -22.3231
  31   1.0000      -0.799329       -21.7508
  32   1.0000      -0.793121       -21.5819
  33   1.0000      -0.790206       -21.5026
  34   1.0000      -0.701865       -19.0987
  35   1.0000      -0.698626       -19.0106
  36   1.0000      -0.680040       -18.5048
  37   1.0000      -0.670298       -18.2397
  38   1.0000      -0.639632       -17.4053
  39   1.0000      -0.626954       -17.0603
  40   1.0000      -0.622330       -16.9345
  41   1.0000      -0.604815       -16.4579
  42   1.0000      -0.594332       -16.1726
  43   1.0000      -0.581660       -15.8278
  44   1.0000      -0.575669       -15.6648
  45   1.0000      -0.565127       -15.3779
  46   1.0000      -0.558465       -15.1966
  47   1.0000      -0.550787       -14.9877
  48   1.0000      -0.547578       -14.9004
  49   1.0000      -0.539161       -14.6713
  50   1.0000      -0.536438       -14.5972
  51   1.0000      -0.534246       -14.5376
  52   1.0000      -0.518126       -14.0989
  53   1.0000      -0.511718       -13.9246
  54   1.0000      -0.503664       -13.7054
  55   1.0000      -0.493801       -13.4370
  56   1.0000      -0.488208       -13.2848
  57   1.0000      -0.411956       -11.2099
  58   1.0000      -0.404632       -11.0106
  59   1.0000      -0.398455       -10.8425
  60   1.0000      -0.390145       -10.6164
  61   1.0000      -0.386981       -10.5303
  62   1.0000      -0.384530       -10.4636
  63   1.0000      -0.380668       -10.3585
  64   1.0000      -0.375797       -10.2260
  65   0.0000      -0.058449        -1.5905
  66   0.0000      -0.053169        -1.4468
  67   0.0000       0.004893         0.1331
  68   0.0000       0.026302         0.7157
  69   0.0000       0.028941         0.7875

----------------------------------------------------------------------------------------------------
          SPIN FLIP ABSORPTION SPECTRUM VIA TRANSITION ELECTRIC DIPOLE MOMENTS
----------------------------------------------------------------------------------------------------
     Transition      Energy     Energy  Wavelength fosc(D2)      D2        DX        DY        DZ
                      (eV)      (cm-1)    (nm)                 (au**2)    (au)      (au)      (au)
----------------------------------------------------------------------------------------------------
  1-3A  ->  2-3A    0.067381     543.5  18400.5   0.000000278   0.00017  -0.01260   0.00073  -0.00302

Dispersion correction             ... done (  0.1 sec)

MULLIKEN ATOMIC CHARGES AND SPIN DENSITIES
------------------------------------------
   0 O :   -0.694478   -0.133623
   1 O :   -0.662544    0.133011
   2 O :   -0.716597   -0.002024
   3 O :   -0.668402    0.001949
   4 N :   -0.137555    0.014558
   5 N :   -0.281143    0.005229
   6 N :   -0.040509   -0.023323
   7 N :    0.002045    0.025558
   8 C :    1.570386    0.509221
   9 C :   -0.174655    0.364508
  10 C :   -0.779724   -0.587210
  11 C :    0.400922    0.092615
  12 C :   -1.565051    0.055601
  13 C :   -1.334756   -0.015881
  14 C :   -0.084416   -0.631636
  15 C :    0.711594    0.119028
  16 C :    0.417729    0.038174
  17 C :    0.479595   -0.007376
  18 H :    0.619295   -0.051960
  19 H :    0.638929    0.041572
  20 H :    0.310872   -0.004092
  21 H :    0.411225    0.000618
  22 H :    0.440459   -0.009463
  23 H :    0.347492    0.025875
  24 H :    0.286922   -0.005939
  25 H :    0.310612    0.044981
  26 H :    0.047143   -0.000677
  27 H :    0.024125   -0.000554
  28 H :    0.100549    0.004308
  29 H :    0.019935   -0.003048
Sum of atomic charges       :    0.0000000

LOEWDIN ATOMIC CHARGES AND SPIN DENSITIES
-----------------------------------------
   0 O :    0.066710   -0.116107
   1 O :    0.110586    0.115037
   2 O :    0.041684   -0.002209
   3 O :    0.075306    0.001896
   4 N :    0.279935    0.002550
   5 N :    0.289782   -0.000430
   6 N :    0.309067   -0.025431
   7 N :    0.330240    0.022339
   8 C :    0.034186   -0.501456
   9 C :   -0.049361    0.482299
  10 C :   -0.050733   -0.012255
  11 C :    0.003689    0.023631
  12 C :    0.232118   -0.054228
  13 C :    0.184308    0.054688
  14 C :   -0.440002   -0.082804
  15 C :   -0.434306    0.086418
  16 C :   -0.456312   -0.000018
  17 C :   -0.482675    0.000563
  18 H :    0.016562   -0.008300
  19 H :    0.003527    0.003026
  20 H :    0.018291   -0.012490
  21 H :   -0.061776    0.001166
  22 H :    0.008325   -0.017885
  23 H :    0.051046    0.019884
  24 H :   -0.019571   -0.000990
  25 H :    0.026213    0.021668
  26 H :   -0.051540   -0.000545
  27 H :   -0.058963   -0.000154
  28 H :    0.032341   -0.001753
  29 H :   -0.008677    0.001891

  Mayer bond orders larger than 0.100000
B(  0-O , 14-C ) :   1.4017 B(  1-O , 15-C ) :   1.3125 B(  2-O , 16-C ) :   1.5302
B(  3-O , 17-C ) :   1.5412 B(  4-N , 10-C ) :   0.6018 B(  4-N , 16-C ) :   1.1410
B(  4-N , 26-H ) :   1.1147 B(  5-N ,  9-C ) :   0.1939 B(  5-N , 10-C ) :   0.1298
B(  5-N , 11-C ) :   0.5072 B(  5-N , 17-C ) :   1.0227 B(  5-N , 27-H ) :   1.1576
B(  6-N , 14-C ) :   0.9795 B(  6-N , 16-C ) :   1.0113 B(  6-N , 28-H ) :   1.0684
B(  7-N , 15-C ) :   1.0566 B(  7-N , 17-C ) :   1.0094 B(  7-N , 29-H ) :   1.0868
B(  8-C , 10-C ) :   0.1188 B(  8-C , 12-C ) :   0.3691 B(  8-C , 21-H ) :  -0.1012
B(  9-C , 10-C ) :   0.4849 B(  9-C , 13-C ) :   0.5461 B(  9-C , 15-C ) :   0.7305
B(  9-C , 19-H ) :  -0.2211 B( 10-C , 11-C ) :   0.4906 B( 10-C , 14-C ) :   0.5448
B( 10-C , 16-C ) :  -0.1005 B( 10-C , 18-H ) :   0.6716 B( 11-C , 13-C ) :  -0.1174
B( 11-C , 17-C ) :  -0.1386 B( 11-C , 19-H ) :   0.7644 B( 12-C , 20-H ) :   0.9919
B( 12-C , 21-H ) :   0.9791 B( 12-C , 22-H ) :   0.7410 B( 13-C , 23-H ) :   0.8781
B( 13-C , 24-H ) :   0.9954 B( 13-C , 25-H ) :   0.9889

Dispersion correction           -0.055950459
FINAL SINGLE POINT ENERGY      -908.747914834393

DIPOLE MOMENT
-------------

Method             : TDA/CIS
Type of density    : Electron Density
Level              : Relaxed density
State              :   2
Multiplicity       :   3
Irrep              :   0
Energy             :     0.0000000000000000 Eh
Relativity type    :
Basis              : AO
                                X                 Y                 Z
Electronic contribution:     -4.266528632      -8.252083697      -7.790894706
Nuclear contribution   :      4.150876626       9.817714619      10.786141765
                        -----------------------------------------
Total Dipole Moment    :     -0.115652006       1.565630922       2.995247058
                        -----------------------------------------
Magnitude (a.u.)       :      3.381727445
Magnitude (Debye)      :      8.595668055

Rotational constants in cm-1:             0.018861             0.013160             0.010458
Rotational constants in MHz :           565.426223           394.538514           313.519639

                             ****ORCA TERMINATED NORMALLY****
TOTAL RUN TIME: 0 days 0 hours 4 minutes 23 seconds 840 msec
