                         Program Version 6.0.0  -   RELEASE  -
|  1> ! Opt wB97M-D3BJ def2-TZVPPD
|  2> %pal nprocs 8 end %pal nprocs 64 end
|  3> %geom
|  4> Constraints
|  5>     {A 2 1 0 51.81818181818182 C }
|  6> end
|  7> MaxIter 500
|  8> end
|  9> *xyz 0 1
| 10> O   -0.0007 0.8141 0.0
| 11> C   0.7509 -0.4065 0.0
| 12> C   -0.7502 -0.4076 0.0
| 13> H   1.2625 -0.6786 0.9136
| 14> H   1.2625 -0.6787 -0.9136
| 15> H   -1.2614 -0.6806 -0.9136
| 16> H   -1.2614 -0.6805 0.9136
| 17> *
| 18>
| 19>                          ****END OF INPUT****
 Total Charge           Charge          ....    0
 Multiplicity           Mult            ....    1
 Number of Electrons    NEL             ....   24
Dispersion correction           -0.005162750
FINAL SINGLE POINT ENERGY      -153.876609629231
Dispersion correction             ... done (  0.1 sec)
Dispersion correction           -0.005171010
FINAL SINGLE POINT ENERGY      -153.878556445991
Dispersion correction             ... done (  0.1 sec)
Dispersion correction           -0.005185629
FINAL SINGLE POINT ENERGY      -153.879268870557
Dispersion correction             ... done (  0.1 sec)
FINAL SINGLE POINT ENERGY      -153.879429748410
Dispersion correction             ... done (  0.1 sec)
Dispersion correction           -0.005194582
FINAL SINGLE POINT ENERGY      -153.879502009015
Dispersion correction             ... done (  0.2 sec)
Dispersion correction           -0.005194043
FINAL SINGLE POINT ENERGY      -153.879504997074
Dispersion correction             ... done (  0.1 sec)
                    ***********************HURRAY********************

CARTESIAN COORDINATES (ANGSTROEM)
---------------------------------
  O     -0.068195    0.756653   -0.000036
  C      0.774627   -0.491689   -0.000008
  C     -0.740305   -0.381597    0.000015
  H      1.290151   -0.651831    0.932195
  H      1.290176   -0.651885   -0.932186
  H     -1.272097   -0.649073   -0.911931
  H     -1.272156   -0.648979    0.911951

 Multiplicity           Mult            ....    1
 Number of Electrons    NEL             ....   24
 Basis Dimension        Dim             ....  182

ORBITAL ENERGIES
----------------

  NO   OCC          E(Eh)            E(eV)
   0   2.0000     -19.353595      -526.6381
   1   2.0000     -10.404194      -283.1125
   2   2.0000     -10.402143      -283.0567
   3   2.0000      -1.220243       -33.2045
   4   2.0000      -0.799680       -21.7604
   5   2.0000      -0.757802       -20.6208
   6   2.0000      -0.631734       -17.1904
   7   2.0000      -0.593984       -16.1631
   8   2.0000      -0.522471       -14.2172
   9   2.0000      -0.500480       -13.6188
  10   2.0000      -0.403811       -10.9883
  11   2.0000      -0.383400       -10.4328
  12   0.0000       0.042407         1.1539
  13   0.0000       0.058528         1.5926
  14   0.0000       0.074319         2.0223
  15   0.0000       0.078122         2.1258
  16   0.0000       0.111865         3.0440

MULLIKEN ATOMIC CHARGES
-----------------------
   0 O :   -0.374951
   1 C :   -0.248731
   2 C :   -0.129403
   3 H :    0.186642
   4 H :    0.186639
   5 H :    0.189892
   6 H :    0.189913
Sum of atomic charges:    0.0000000

LOEWDIN ATOMIC CHARGES
----------------------
   0 O :   -0.028179
   1 C :    0.123875
   2 C :   -0.115069
   3 H :   -0.005036
   4 H :   -0.005034
   5 H :    0.014720
   6 H :    0.014722

  Mayer bond orders larger than 0.100000
B(  0-O ,  1-C ) :   0.8643 B(  0-O ,  2-C ) :   0.7870 B(  1-C ,  2-C ) :   0.7949
B(  1-C ,  3-H ) :   0.9980 B(  1-C ,  4-H ) :   0.9980 B(  2-C ,  5-H ) :   1.0348
B(  2-C ,  6-H ) :   1.0347

Dispersion correction           -0.005193755
FINAL SINGLE POINT ENERGY      -153.879505171749

DIPOLE MOMENT
-------------

Method             : SCF
Type of density    : Electron Density
Multiplicity       :   1
Irrep              :   0
Energy             :  -153.8743114169536454 Eh
Relativity type    :
Basis              : AO
                                X                 Y                 Z
Electronic contribution:     -0.024405349       1.663091137      -0.000042288
Nuclear contribution   :      0.087779634      -2.343698830       0.000065739
                        -----------------------------------------
Total Dipole Moment    :      0.063374286      -0.680607693       0.000023451
                        -----------------------------------------
Magnitude (a.u.)       :      0.683551851
Magnitude (Debye)      :      1.737450728

Rotational constants in cm-1:             0.926931             0.684190             0.468679
Rotational constants in MHz :         27788.683564         20511.511333         14050.627962

                             ****ORCA TERMINATED NORMALLY****
TOTAL RUN TIME: 0 days 0 hours 1 minutes 35 seconds 482 msec
