                         Program Version 6.0.0  -   RELEASE  -
|  1> ! Engrad def2-TZVPPD wB97M-D3BJ
|  2> %pal nprocs 8 end%pal nprocs 32 end
|  3>  %tddft nroots 2 Iroot 2
|  4> sf true
|  5> end
|  6> *xyz 0 3
|  7> O   2.36816586111015 -0.35853665899683 -1.13379371272586
|  8> O   -0.15490146116284 2.86564194883798 -2.22036448012835
|  9> O   0.19949674651555 -3.80429652626546 0.81058350602937
| 10> O   -2.08132645827465 -1.05637449558318 -1.46925075627454
| 11> N   0.4007412256097 -1.89314809980382 2.01971905028798
| 12> N   -1.37007353371289 -0.21529751263324 0.49991074187231
| 13> N   1.08008041591107 -1.96777228352567 -0.20223477067566
| 14> N   -0.75770737892127 0.76670819774498 -1.59325444554726
| 15> C   1.44106518048613 0.10924902860996 0.98993998688991
| 16> C   -0.38843496671113 2.76907166327619 -0.07696024960628
| 17> C   0.59049670339577 -0.47859088998344 2.07017263466601
| 18> C   -0.41228810601787 0.38513775924927 1.31724713974794
| 19> C   2.30610350244331 1.2992026016063 1.23446605953547
| 20> C   -1.65699830493802 3.41807581136994 0.29974801885555
| 21> C   1.68112531417824 -0.71625172236371 -0.20472849756358
| 22> C   -0.44792283108012 2.07923170983572 -1.3246781556596
| 23> C   0.52748573706453 -2.64342488637026 0.88169472941245
| 24> C   -1.45046987014609 -0.21293866055516 -0.87911600760811
| 25> H   0.82074574575649 -0.14569464539024 3.07388784746095
| 26> H   -0.52838819949665 1.39922486712616 1.66255049039726
| 27> H   2.44086605706118 1.86914541701656 0.32177928806977
| 28> H   1.86289596891839 1.95144539063801 1.98272264774739
| 29> H   3.28490572488543 0.97537494336694 1.59189588023835
| 30> H   -2.54837036953116 2.79627726130411 0.17127446870408
| 31> H   -1.63393027570889 3.88155708990948 1.28145478750054
| 32> H   -1.7416232548043 4.22269794703647 -0.44419861076708
| 33> H   -0.0340689573394 -2.36994064132659 2.78875811494731
| 34> H   -1.81540709397489 -1.04634705833774 0.86108418628083
| 35> H   1.23015422639895 -2.53600522666421 -1.0209011508993
| 36> H   -0.75981734791475 0.57157767087146 -2.58480874118784
| 37> *
| 38>
| 39>                          ****END OF INPUT****

CARTESIAN COORDINATES (ANGSTROEM)
---------------------------------
  O      2.368166   -0.358537   -1.133794
  O     -0.154901    2.865642   -2.220364
  O      0.199497   -3.804297    0.810584
  O     -2.081326   -1.056374   -1.469251
  N      0.400741   -1.893148    2.019719
  N     -1.370074   -0.215298    0.499911
  N      1.080080   -1.967772   -0.202235
  N     -0.757707    0.766708   -1.593254
  C      1.441065    0.109249    0.989940
  C     -0.388435    2.769072   -0.076960
  C      0.590497   -0.478591    2.070173
  C     -0.412288    0.385138    1.317247
  C      2.306104    1.299203    1.234466
  C     -1.656998    3.418076    0.299748
  C      1.681125   -0.716252   -0.204728
  C     -0.447923    2.079232   -1.324678
  C      0.527486   -2.643425    0.881695
  C     -1.450470   -0.212939   -0.879116
  H      0.820746   -0.145695    3.073888
  H     -0.528388    1.399225    1.662550
  H      2.440866    1.869145    0.321779
  H      1.862896    1.951445    1.982723
  H      3.284906    0.975375    1.591896
  H     -2.548370    2.796277    0.171274
  H     -1.633930    3.881557    1.281455
  H     -1.741623    4.222698   -0.444199
  H     -0.034069   -2.369941    2.788758
  H     -1.815407   -1.046347    0.861084
  H      1.230154   -2.536005   -1.020901
  H     -0.759817    0.571578   -2.584809

 Total Charge           Charge          ....    0
 Multiplicity           Mult            ....    3
 Number of Electrons    NEL             ....  132
 Basis Dimension        Dim             ....  882

ORBITAL ENERGIES
----------------
                 SPIN UP ORBITALS
  NO   OCC          E(Eh)            E(eV)
   0   1.0000     -19.337444      -526.1986
   1   1.0000     -19.329928      -525.9941
   2   1.0000     -19.328604      -525.9581
   3   1.0000     -19.320900      -525.7484
   4   1.0000     -14.573488      -396.5648
   5   1.0000     -14.572423      -396.5358
   6   1.0000     -14.565481      -396.3469
   7   1.0000     -14.563995      -396.3065
   8   1.0000     -10.516869      -286.1786
   9   1.0000     -10.507735      -285.9300
  10   1.0000     -10.485684      -285.3300
  11   1.0000     -10.484558      -285.2993
  12   1.0000     -10.447108      -284.2803
  13   1.0000     -10.443956      -284.1945
  14   1.0000     -10.415604      -283.4230
  15   1.0000     -10.404146      -283.1112
  16   1.0000     -10.376170      -282.3500
  17   1.0000     -10.366554      -282.0883
  18   1.0000      -1.228356       -33.4253
  19   1.0000      -1.220769       -33.2188
  20   1.0000      -1.204631       -32.7797
  21   1.0000      -1.196957       -32.5709
  22   1.0000      -1.123395       -30.5691
  23   1.0000      -1.095462       -29.8090
  24   1.0000      -1.074481       -29.2381
  25   1.0000      -1.062940       -28.9241
  26   1.0000      -0.984380       -26.7863
  27   1.0000      -0.940180       -25.5836
  28   1.0000      -0.882016       -24.0009
  29   1.0000      -0.826767       -22.4975
  30   1.0000      -0.815757       -22.1979
  31   1.0000      -0.806784       -21.9537
  32   1.0000      -0.790240       -21.5035
  33   1.0000      -0.780557       -21.2400
  34   1.0000      -0.722878       -19.6705
  35   1.0000      -0.698987       -19.0204
  36   1.0000      -0.692154       -18.8345
  37   1.0000      -0.659597       -17.9486
  38   1.0000      -0.642129       -17.4732
  39   1.0000      -0.635003       -17.2793
  40   1.0000      -0.616027       -16.7629
  41   1.0000      -0.606701       -16.5092
  42   1.0000      -0.600014       -16.3272
  43   1.0000      -0.591219       -16.0879
  44   1.0000      -0.579225       -15.7615
  45   1.0000      -0.570408       -15.5216
  46   1.0000      -0.565987       -15.4013
  47   1.0000      -0.560947       -15.2641
  48   1.0000      -0.557603       -15.1732
  49   1.0000      -0.554097       -15.0778
  50   1.0000      -0.545781       -14.8514
  51   1.0000      -0.544174       -14.8077
  52   1.0000      -0.531885       -14.4733
  53   1.0000      -0.515340       -14.0231
  54   1.0000      -0.510178       -13.8827
  55   1.0000      -0.495188       -13.4747
  56   1.0000      -0.440945       -11.9987
  57   1.0000      -0.427264       -11.6264
  58   1.0000      -0.417213       -11.3529
  59   1.0000      -0.409729       -11.1493
  60   1.0000      -0.405515       -11.0346
  61   1.0000      -0.397334       -10.8120
  62   1.0000      -0.395405       -10.7595
  63   1.0000      -0.390988       -10.6393
  64   1.0000      -0.382682       -10.4133
  65   1.0000      -0.354090        -9.6353
  66   1.0000      -0.301982        -8.2174
  67   0.0000       0.006803         0.1851
  68   0.0000       0.014243         0.3876
  69   0.0000       0.030611         0.8330
  70   0.0000       0.034740         0.9453
  71   0.0000       0.040577         1.1042

                 SPIN DOWN ORBITALS
  NO   OCC          E(Eh)            E(eV)
   0   1.0000     -19.331663      -526.0413
   1   1.0000     -19.329928      -525.9941
   2   1.0000     -19.328504      -525.9553
   3   1.0000     -19.320898      -525.7484
   4   1.0000     -14.573517      -396.5656
   5   1.0000     -14.572388      -396.5348
   6   1.0000     -14.565385      -396.3443
   7   1.0000     -14.563961      -396.3055
   8   1.0000     -10.516900      -286.1794
   9   1.0000     -10.507738      -285.9301
  10   1.0000     -10.486217      -285.3445
  11   1.0000     -10.484588      -285.3002
  12   1.0000     -10.446904      -284.2747
  13   1.0000     -10.443558      -284.1836
  14   1.0000     -10.415221      -283.4126
  15   1.0000     -10.376829      -282.3679
  16   1.0000     -10.376343      -282.3546
  17   1.0000     -10.366471      -282.0860
  18   1.0000      -1.227436       -33.4002
  19   1.0000      -1.220525       -33.2122
  20   1.0000      -1.196932       -32.5702
  21   1.0000      -1.195850       -32.5407
  22   1.0000      -1.123142       -30.5623
  23   1.0000      -1.094823       -29.7916
  24   1.0000      -1.072951       -29.1965
  25   1.0000      -1.062701       -28.9176
  26   1.0000      -0.983692       -26.7676
  27   1.0000      -0.911511       -24.8035
  28   1.0000      -0.881473       -23.9861
  29   1.0000      -0.825321       -22.4581
  30   1.0000      -0.811928       -22.0937
  31   1.0000      -0.802315       -21.8321
  32   1.0000      -0.786616       -21.4049
  33   1.0000      -0.775332       -21.0979
  34   1.0000      -0.714753       -19.4494
  35   1.0000      -0.696569       -18.9546
  36   1.0000      -0.689011       -18.7489
  37   1.0000      -0.657356       -17.8876
  38   1.0000      -0.638267       -17.3681
  39   1.0000      -0.630583       -17.1590
  40   1.0000      -0.613495       -16.6941
  41   1.0000      -0.599711       -16.3190
  42   1.0000      -0.588973       -16.0268
  43   1.0000      -0.583763       -15.8850
  44   1.0000      -0.573986       -15.6190
  45   1.0000      -0.563478       -15.3330
  46   1.0000      -0.557887       -15.1809
  47   1.0000      -0.556887       -15.1537
  48   1.0000      -0.555095       -15.1049
  49   1.0000      -0.551819       -15.0157
  50   1.0000      -0.538022       -14.6403
  51   1.0000      -0.532013       -14.4768
  52   1.0000      -0.529522       -14.4090
  53   1.0000      -0.514832       -14.0093
  54   1.0000      -0.498321       -13.5600
  55   1.0000      -0.494431       -13.4542
  56   1.0000      -0.429537       -11.6883
  57   1.0000      -0.425461       -11.5774
  58   1.0000      -0.416822       -11.3423
  59   1.0000      -0.401850       -10.9349
  60   1.0000      -0.394927       -10.7465
  61   1.0000      -0.392175       -10.6716
  62   1.0000      -0.385274       -10.4838
  63   1.0000      -0.382043       -10.3959
  64   1.0000      -0.350739        -9.5441
  65   0.0000      -0.062069        -1.6890
  66   0.0000       0.003634         0.0989
  67   0.0000       0.013153         0.3579
  68   0.0000       0.029308         0.7975
  69   0.0000       0.033026         0.8987

----------------------------------------------------------------------------------------------------
          SPIN FLIP ABSORPTION SPECTRUM VIA TRANSITION ELECTRIC DIPOLE MOMENTS
----------------------------------------------------------------------------------------------------
     Transition      Energy     Energy  Wavelength fosc(D2)      D2        DX        DY        DZ
                      (eV)      (cm-1)    (nm)                 (au**2)    (au)      (au)      (au)
----------------------------------------------------------------------------------------------------
  1-3A  ->  2-3A    2.117995   17082.8   585.4   0.000470530   0.00907  -0.04461  -0.07357   0.04082

Dispersion correction             ... done (  0.1 sec)

MULLIKEN ATOMIC CHARGES AND SPIN DENSITIES
------------------------------------------
   0 O :   -0.672325   -0.000482
   1 O :   -0.573660   -0.002510
   2 O :   -0.646796    0.000026
   3 O :   -0.641270   -0.000006
   4 N :   -0.232111   -0.000186
   5 N :   -0.147839    0.003640
   6 N :    0.019546   -0.000640
   7 N :    0.056399   -0.003064
   8 C :    1.128703    0.009838
   9 C :   -0.003299    0.135528
  10 C :    0.372673   -0.004921
  11 C :   -0.779886   -0.038033
  12 C :   -1.628510    0.009804
  13 C :   -1.027372    0.065588
  14 C :    0.232408    0.002159
  15 C :    0.667193   -0.171066
  16 C :    0.432540    0.000430
  17 C :    0.466543    0.010225
  18 H :    0.321586    0.000816
  19 H :    0.482014   -0.003846
  20 H :    0.286423    0.002071
  21 H :    0.329470   -0.008089
  22 H :    0.407408   -0.002126
  23 H :    0.279767    0.004046
  24 H :    0.297210   -0.015843
  25 H :    0.382643    0.006069
  26 H :    0.038534   -0.000238
  27 H :    0.099915   -0.000942
  28 H :    0.032866   -0.000019
  29 H :    0.019225    0.001773
Sum of atomic charges       :    0.0000000

LOEWDIN ATOMIC CHARGES AND SPIN DENSITIES
-----------------------------------------
   0 O :    0.102676   -0.000922
   1 O :    0.104507   -0.012275
   2 O :    0.092113    0.000028
   3 O :    0.102373   -0.000328
   4 N :    0.281864   -0.000406
   5 N :    0.264366   -0.000559
   6 N :    0.336930   -0.000333
   7 N :    0.335801   -0.001921
   8 C :   -0.105138   -0.003160
   9 C :    0.141002    0.045206
  10 C :   -0.121003   -0.001043
  11 C :    0.043148   -0.001808
  12 C :    0.180753   -0.001532
  13 C :    0.103052   -0.004814
  14 C :   -0.401911   -0.000674
  15 C :   -0.485147   -0.007681
  16 C :   -0.484167   -0.000075
  17 C :   -0.464453   -0.000487
  18 H :    0.054147   -0.000029
  19 H :   -0.016520   -0.001509
  20 H :   -0.005480   -0.000652
  21 H :   -0.003007   -0.000469
  22 H :    0.008765   -0.000363
  23 H :    0.008868   -0.001651
  24 H :   -0.009289    0.000030
  25 H :    0.001175   -0.002212
  26 H :   -0.027375   -0.000029
  27 H :   -0.025783    0.000018
  28 H :   -0.006260   -0.000038
  29 H :   -0.006007   -0.000311

  Mayer bond orders larger than 0.100000
B(  0-O ,  8-C ) :  -0.1111 B(  0-O , 14-C ) :   1.5224 B(  1-O , 15-C ) :   1.3561
B(  2-O , 16-C ) :   1.5749 B(  3-O , 17-C ) :   1.4988 B(  4-N ,  8-C ) :   0.1755
B(  4-N , 10-C ) :   0.4324 B(  4-N , 16-C ) :   1.1011 B(  4-N , 26-H ) :   1.1172
B(  5-N , 11-C ) :   0.6715 B(  5-N , 17-C ) :   0.9785 B(  5-N , 19-H ) :  -0.1373
B(  5-N , 27-H ) :   1.0384 B(  6-N , 10-C ) :   0.1555 B(  6-N , 14-C ) :   1.0534
B(  6-N , 16-C ) :   0.9443 B(  6-N , 28-H ) :   1.1081 B(  7-N , 15-C ) :   0.9616
B(  7-N , 17-C ) :   0.9613 B(  7-N , 29-H ) :   1.1221 B(  8-C , 10-C ) :   0.5676
B(  8-C , 11-C ) :   0.5820 B(  8-C , 12-C ) :   0.1393 B(  8-C , 14-C ) :   0.5870
B(  8-C , 18-H ) :  -0.1123 B(  8-C , 20-H ) :  -0.1367 B(  8-C , 21-H ) :  -0.1242
B(  9-C , 13-C ) :   0.4271 B(  9-C , 15-C ) :   0.7137 B( 10-C , 11-C ) :   0.7408
B( 10-C , 12-C ) :  -0.1218 B( 10-C , 14-C ) :  -0.1190 B( 10-C , 16-C ) :  -0.1127
B( 10-C , 18-H ) :   1.0616 B( 11-C , 14-C ) :   0.1425 B( 11-C , 17-C ) :  -0.1030
B( 11-C , 19-H ) :   0.9467 B( 12-C , 20-H ) :   1.0644 B( 12-C , 21-H ) :   1.0303
B( 12-C , 22-H ) :   0.7650 B( 13-C , 23-H ) :   0.9448 B( 13-C , 24-H ) :   0.9818
B( 13-C , 25-H ) :   0.8952

Dispersion correction           -0.056571154
FINAL SINGLE POINT ENERGY      -908.638225716095

DIPOLE MOMENT
-------------

Method             : TDA/CIS
Type of density    : Electron Density
Level              : Relaxed density
State              :   2
Multiplicity       :   3
Irrep              :   0
Energy             :     0.0000000000000000 Eh
Relativity type    :
Basis              : AO
                                X                 Y                 Z
Electronic contribution:      0.010212983      -9.760474898      -6.185733703
Nuclear contribution   :     -0.496235262      10.809021866       8.696620043
                        -----------------------------------------
Total Dipole Moment    :     -0.486022278       1.048546968       2.510886340
                        -----------------------------------------
Magnitude (a.u.)       :      2.764094537
Magnitude (Debye)      :      7.025769967

Rotational constants in cm-1:             0.022604             0.012136             0.011086
Rotational constants in MHz :           677.639622           363.818254           332.364250

                             ****ORCA TERMINATED NORMALLY****
TOTAL RUN TIME: 0 days 0 hours 22 minutes 28 seconds 321 msec
