                         Program Version 6.0.0  -   RELEASE  -
|  1> ! EnGrad wB97M-D3BJ def2-TZVPPD
|  2> %pal nprocs 8 end%pal nprocs 16 end
|  3> %tddft
|  4>  sf true
|  5>  nroots 2 Iroot 2 end
|  6> *xyz 0 3
|  7> O   0.7039453824324 1.34612797414075 0.06920381061677
|  8> C   0.55388522713574 0.19851940798199 -0.24823606022252
|  9> C   -0.44953586255431 -0.8074130002899 0.22412396155251
| 10> H   0.08790154130632 -1.66179478657862 0.63587821965449
| 11> H   1.24334067311719 -0.22879676116564 -1.00783331364285
| 12> H   -1.00869842855828 -1.16744356359503 -0.63977195002021
| 13> H   -1.12863853287906 -0.39759927049355 0.96663533206181
| 14> *
| 15>
| 16>                          ****END OF INPUT****

CARTESIAN COORDINATES (ANGSTROEM)
---------------------------------
  O      0.703945    1.346128    0.069204
  C      0.553885    0.198519   -0.248236
  C     -0.449536   -0.807413    0.224124
  H      0.087902   -1.661795    0.635878
  H      1.243341   -0.228797   -1.007833
  H     -1.008698   -1.167444   -0.639772
  H     -1.128639   -0.397599    0.966635

 Total Charge           Charge          ....    0
 Multiplicity           Mult            ....    3
 Number of Electrons    NEL             ....   24
 Basis Dimension        Dim             ....  182

ORBITAL ENERGIES
----------------
                 SPIN UP ORBITALS
  NO   OCC          E(Eh)            E(eV)
   0   1.0000     -19.408316      -528.1271
   1   1.0000     -10.379580      -282.4427
   2   1.0000     -10.368079      -282.1298
   3   1.0000      -1.245033       -33.8791
   4   1.0000      -0.884915       -24.0797
   5   1.0000      -0.717023       -19.5112
   6   1.0000      -0.632917       -17.2225
   7   1.0000      -0.588353       -16.0099
   8   1.0000      -0.581491       -15.8232
   9   1.0000      -0.515894       -14.0382
  10   1.0000      -0.514966       -14.0129
  11   1.0000      -0.430542       -11.7156
  12   1.0000      -0.219016        -5.9597
  13   0.0000       0.039854         1.0845
  14   0.0000       0.060084         1.6350
  15   0.0000       0.078111         2.1255
  16   0.0000       0.087733         2.3873
  17   0.0000       0.107262         2.9187

                 SPIN DOWN ORBITALS
  NO   OCC          E(Eh)            E(eV)
   0   1.0000     -19.380893      -527.3809
   1   1.0000     -10.369331      -282.1638
   2   1.0000     -10.366001      -282.0732
   3   1.0000      -1.187943       -32.3256
   4   1.0000      -0.865827       -23.5604
   5   1.0000      -0.671791       -18.2804
   6   1.0000      -0.585762       -15.9394
   7   1.0000      -0.541227       -14.7275
   8   1.0000      -0.535714       -14.5775
   9   1.0000      -0.498699       -13.5703
  10   1.0000      -0.471543       -12.8313
  11   0.0000      -0.083209        -2.2642
  12   0.0000       0.040508         1.1023
  13   0.0000       0.059749         1.6258
  14   0.0000       0.077854         2.1185
  15   0.0000       0.084540         2.3005

----------------------------------------------------------------------------------------------------
          SPIN FLIP ABSORPTION SPECTRUM VIA TRANSITION ELECTRIC DIPOLE MOMENTS
----------------------------------------------------------------------------------------------------
     Transition      Energy     Energy  Wavelength fosc(D2)      D2        DX        DY        DZ
                      (eV)      (cm-1)    (nm)                 (au**2)    (au)      (au)      (au)
----------------------------------------------------------------------------------------------------
  1-3A  ->  2-3A    4.616685   37236.1   268.6   0.000174926   0.00155  -0.02461   0.01110  -0.02860

Dispersion correction             ... done (  0.0 sec)

MULLIKEN ATOMIC CHARGES AND SPIN DENSITIES
------------------------------------------
   0 O :   -0.265368    0.577325
   1 C :    0.225187   -0.610996
   2 C :   -0.710462    0.127910
   3 H :    0.204193   -0.048748
   4 H :    0.094089    0.007426
   5 H :    0.203386   -0.049652
   6 H :    0.248975   -0.003265
Sum of atomic charges       :   -0.0000000

LOEWDIN ATOMIC CHARGES AND SPIN DENSITIES
-----------------------------------------
   0 O :    0.158997    0.388243
   1 C :   -0.258827   -0.341170
   2 C :    0.134236   -0.016305
   3 H :   -0.019727   -0.021507
   4 H :    0.012815    0.005865
   5 H :   -0.019609   -0.021465
   6 H :   -0.007885    0.006339

  Mayer bond orders larger than 0.100000
B(  0-O ,  1-C ) :   1.2859 B(  1-C ,  2-C ) :   0.6261 B(  1-C ,  4-H ) :   1.0032
B(  2-C ,  3-H ) :   1.0121 B(  2-C ,  5-H ) :   1.0122 B(  2-C ,  6-H ) :   0.9298

Dispersion correction           -0.005523433
FINAL SINGLE POINT ENERGY      -153.754198951318

DIPOLE MOMENT
-------------

Method             : TDA/CIS
Type of density    : Electron Density
Level              : Relaxed density
State              :   2
Multiplicity       :   3
Irrep              :   0
Energy             :     0.0000000000000000 Eh
Relativity type    :
Basis              : AO
                                X                 Y                 Z
Electronic contribution:      1.527466439       3.541786778       0.063609358
Nuclear contribution   :     -1.746729394      -4.140591374      -0.107314413
                        -----------------------------------------
Total Dipole Moment    :     -0.219262955      -0.598804595      -0.043705055
                        -----------------------------------------
Magnitude (a.u.)       :      0.639181757
Magnitude (Debye)      :      1.624670912

Rotational constants in cm-1:             2.071970             0.327597             0.298388
Rotational constants in MHz :         62116.099573          9821.123751          8945.454812

                             ****ORCA TERMINATED NORMALLY****
TOTAL RUN TIME: 0 days 0 hours 0 minutes 16 seconds 286 msec
