                         Program Version 6.0.0  -   RELEASE  -
|  1> ! Engrad def2-TZVPPD wB97M-D3BJ
|  2> %pal nprocs 8 end%pal nprocs 32 end
|  3>  %tddft nroots 2 Iroot 1
|  4> sf true
|  5> end
|  6> *xyz 0 3
|  7> O   2.50325943677639 1.22303523705045 -0.47520853716979
|  8> O   -0.66567817434373 0.83249647682761 -2.29362861604801
|  9> O   0.52889218154965 -2.71275121305504 -1.5754609535385
| 10> O   -2.38058387618867 -1.59581496857429 1.14257805157341
| 11> N   0.69051830729066 -2.15673285513052 0.62541772566878
| 12> N   -2.02100542146568 0.63202372357047 1.445014485462
| 13> N   1.64474262965024 -0.81175888897496 -0.98477066647086
| 14> N   -1.5948760059664 -0.33836509322622 -0.59384512519229
| 15> C   1.57891983265715 -0.049990061919 1.29893002815948
| 16> C   -0.97904868057183 1.96857219343094 -0.23149586822387
| 17> C   0.96223020697646 -1.20498752033013 1.57931769734659
| 18> C   -1.49168327452187 1.82300288056314 0.995002287668
| 19> C   1.87250202319668 1.00828987206597 2.31178754290847
| 20> C   -0.3457028294466 3.22432167612763 -0.73546426763798
| 21> C   1.96414265978932 0.20719996906732 -0.08919846209307
| 22> C   -1.04988741047886 0.82609598781483 -1.14564240752354
| 23> C   0.928094383247 -1.95741063809535 -0.71683778163714
| 24> C   -2.02996647647156 -0.52213649448263 0.69730057746076
| 25> H   0.6315885475715 -1.45369747870001 2.57639335943637
| 26> H   -1.49885517940765 2.62828539695614 1.71381332766287
| 27> H   1.39210529052311 1.94439784519368 2.03021273292949
| 28> H   1.51998506934982 0.71077012353907 3.29693029721217
| 29> H   2.94078511633876 1.20840151461361 2.36657797371321
| 30> H   -0.83858871914441 3.56506433619248 -1.64351361189092
| 31> H   -0.39809511634372 4.01096529723108 0.01383662987109
| 32> H   0.6987440290879 3.03922784359782 -0.98045521025027
| 33> H   0.06169776155496 -2.91224162072641 0.83776262116882
| 34> H   -2.34498984985522 0.53535430076577 2.38987901773716
| 35> H   1.77280689238187 -0.60052998821814 -1.96302003404902
| 36> H   -1.59945335373524 -1.15608785317533 -1.18761281425343
| 37> *
| 38>
| 39>                          ****END OF INPUT****

CARTESIAN COORDINATES (ANGSTROEM)
---------------------------------
  O      2.503259    1.223035   -0.475209
  O     -0.665678    0.832496   -2.293629
  O      0.528892   -2.712751   -1.575461
  O     -2.380584   -1.595815    1.142578
  N      0.690518   -2.156733    0.625418
  N     -2.021005    0.632024    1.445014
  N      1.644743   -0.811759   -0.984771
  N     -1.594876   -0.338365   -0.593845
  C      1.578920   -0.049990    1.298930
  C     -0.979049    1.968572   -0.231496
  C      0.962230   -1.204988    1.579318
  C     -1.491683    1.823003    0.995002
  C      1.872502    1.008290    2.311788
  C     -0.345703    3.224322   -0.735464
  C      1.964143    0.207200   -0.089198
  C     -1.049887    0.826096   -1.145642
  C      0.928094   -1.957411   -0.716838
  C     -2.029966   -0.522136    0.697301
  H      0.631589   -1.453697    2.576393
  H     -1.498855    2.628285    1.713813
  H      1.392105    1.944398    2.030213
  H      1.519985    0.710770    3.296930
  H      2.940785    1.208402    2.366578
  H     -0.838589    3.565064   -1.643514
  H     -0.398095    4.010965    0.013837
  H      0.698744    3.039228   -0.980455
  H      0.061698   -2.912242    0.837763
  H     -2.344990    0.535354    2.389879
  H      1.772807   -0.600530   -1.963020
  H     -1.599453   -1.156088   -1.187613

 Total Charge           Charge          ....    0
 Multiplicity           Mult            ....    3
 Number of Electrons    NEL             ....  132
 Basis Dimension        Dim             ....  882

ORBITAL ENERGIES
----------------
                 SPIN UP ORBITALS
  NO   OCC          E(Eh)            E(eV)
   0   1.0000     -19.331795      -526.0449
   1   1.0000     -19.327277      -525.9219
   2   1.0000     -19.322564      -525.7937
   3   1.0000     -19.317813      -525.6644
   4   1.0000     -14.591956      -397.0673
   5   1.0000     -14.583886      -396.8477
   6   1.0000     -14.570291      -396.4778
   7   1.0000     -14.548013      -395.8716
   8   1.0000     -10.514189      -286.1056
   9   1.0000     -10.508687      -285.9559
  10   1.0000     -10.478178      -285.1257
  11   1.0000     -10.455492      -284.5084
  12   1.0000     -10.431438      -283.8538
  13   1.0000     -10.407588      -283.2049
  14   1.0000     -10.395334      -282.8714
  15   1.0000     -10.379869      -282.4506
  16   1.0000     -10.371151      -282.2134
  17   1.0000     -10.348837      -281.6062
  18   1.0000      -1.227889       -33.4126
  19   1.0000      -1.223626       -33.2966
  20   1.0000      -1.193241       -32.4698
  21   1.0000      -1.188297       -32.3352
  22   1.0000      -1.124068       -30.5874
  23   1.0000      -1.122589       -30.5472
  24   1.0000      -1.069801       -29.1108
  25   1.0000      -1.059274       -28.8243
  26   1.0000      -0.974543       -26.5187
  27   1.0000      -0.955674       -26.0052
  28   1.0000      -0.857413       -23.3314
  29   1.0000      -0.845620       -23.0105
  30   1.0000      -0.809852       -22.0372
  31   1.0000      -0.808174       -21.9915
  32   1.0000      -0.794050       -21.6072
  33   1.0000      -0.787500       -21.4290
  34   1.0000      -0.699840       -19.0436
  35   1.0000      -0.694802       -18.9065
  36   1.0000      -0.691237       -18.8095
  37   1.0000      -0.689993       -18.7757
  38   1.0000      -0.644523       -17.5384
  39   1.0000      -0.638198       -17.3663
  40   1.0000      -0.627551       -17.0765
  41   1.0000      -0.600858       -16.3502
  42   1.0000      -0.596893       -16.2423
  43   1.0000      -0.592729       -16.1290
  44   1.0000      -0.571798       -15.5594
  45   1.0000      -0.568319       -15.4647
  46   1.0000      -0.567303       -15.4371
  47   1.0000      -0.554433       -15.0869
  48   1.0000      -0.549433       -14.9508
  49   1.0000      -0.548774       -14.9329
  50   1.0000      -0.530649       -14.4397
  51   1.0000      -0.521928       -14.2024
  52   1.0000      -0.516314       -14.0496
  53   1.0000      -0.513904       -13.9840
  54   1.0000      -0.509569       -13.8661
  55   1.0000      -0.497166       -13.5286
  56   1.0000      -0.493271       -13.4226
  57   1.0000      -0.476549       -12.9676
  58   1.0000      -0.420619       -11.4456
  59   1.0000      -0.418580       -11.3901
  60   1.0000      -0.404602       -11.0098
  61   1.0000      -0.402927       -10.9642
  62   1.0000      -0.388951       -10.5839
  63   1.0000      -0.385328       -10.4853
  64   1.0000      -0.384777       -10.4703
  65   1.0000      -0.347133        -9.4460
  66   1.0000      -0.207685        -5.6514
  67   0.0000       0.012171         0.3312
  68   0.0000       0.020726         0.5640
  69   0.0000       0.033278         0.9055
  70   0.0000       0.039533         1.0758
  71   0.0000       0.042744         1.1631

                 SPIN DOWN ORBITALS
  NO   OCC          E(Eh)            E(eV)
   0   1.0000     -19.329844      -525.9918
   1   1.0000     -19.327240      -525.9209
   2   1.0000     -19.322582      -525.7942
   3   1.0000     -19.311506      -525.4928
   4   1.0000     -14.586620      -396.9221
   5   1.0000     -14.583724      -396.8433
   6   1.0000     -14.570287      -396.4777
   7   1.0000     -14.547088      -395.8464
   8   1.0000     -10.514197      -286.1059
   9   1.0000     -10.509084      -285.9667
  10   1.0000     -10.478172      -285.1256
  11   1.0000     -10.455066      -284.4968
  12   1.0000     -10.431348      -283.8514
  13   1.0000     -10.398143      -282.9479
  14   1.0000     -10.385135      -282.5939
  15   1.0000     -10.379880      -282.4509
  16   1.0000     -10.371625      -282.2263
  17   1.0000     -10.348812      -281.6055
  18   1.0000      -1.226822       -33.3835
  19   1.0000      -1.220185       -33.2029
  20   1.0000      -1.193149       -32.4672
  21   1.0000      -1.178951       -32.0809
  22   1.0000      -1.122410       -30.5423
  23   1.0000      -1.112933       -30.2845
  24   1.0000      -1.069711       -29.1083
  25   1.0000      -1.053648       -28.6712
  26   1.0000      -0.955853       -26.0101
  27   1.0000      -0.950380       -25.8612
  28   1.0000      -0.846656       -23.0387
  29   1.0000      -0.845074       -22.9956
  30   1.0000      -0.809398       -22.0248
  31   1.0000      -0.797206       -21.6931
  32   1.0000      -0.793895       -21.6030
  33   1.0000      -0.780636       -21.2422
  34   1.0000      -0.694675       -18.9031
  35   1.0000      -0.691168       -18.8076
  36   1.0000      -0.688020       -18.7220
  37   1.0000      -0.681764       -18.5518
  38   1.0000      -0.642561       -17.4850
  39   1.0000      -0.629861       -17.1394
  40   1.0000      -0.621519       -16.9124
  41   1.0000      -0.596968       -16.2443
  42   1.0000      -0.589647       -16.0451
  43   1.0000      -0.584410       -15.9026
  44   1.0000      -0.567230       -15.4351
  45   1.0000      -0.562610       -15.3094
  46   1.0000      -0.554655       -15.0929
  47   1.0000      -0.549417       -14.9504
  48   1.0000      -0.544633       -14.8202
  49   1.0000      -0.542850       -14.7717
  50   1.0000      -0.522108       -14.2073
  51   1.0000      -0.515702       -14.0330
  52   1.0000      -0.513614       -13.9761
  53   1.0000      -0.505193       -13.7470
  54   1.0000      -0.500950       -13.6316
  55   1.0000      -0.495395       -13.4804
  56   1.0000      -0.477360       -12.9896
  57   1.0000      -0.444578       -12.0976
  58   1.0000      -0.419438       -11.4135
  59   1.0000      -0.414288       -11.2734
  60   1.0000      -0.403882       -10.9902
  61   1.0000      -0.386633       -10.5208
  62   1.0000      -0.379139       -10.3169
  63   1.0000      -0.376535       -10.2460
  64   1.0000      -0.346206        -9.4207
  65   0.0000      -0.106406        -2.8955
  66   0.0000       0.011232         0.3056
  67   0.0000       0.021581         0.5872
  68   0.0000       0.031155         0.8478
  69   0.0000       0.037924         1.0320

----------------------------------------------------------------------------------------------------
          SPIN FLIP ABSORPTION SPECTRUM VIA TRANSITION ELECTRIC DIPOLE MOMENTS
----------------------------------------------------------------------------------------------------
     Transition      Energy     Energy  Wavelength fosc(D2)      D2        DX        DY        DZ
                      (eV)      (cm-1)    (nm)                 (au**2)    (au)      (au)      (au)
----------------------------------------------------------------------------------------------------
  1-3A  ->  2-3A    4.284912   34560.1   289.4   0.001658513   0.01580   0.05174   0.08815  -0.07314

Dispersion correction             ... done (  0.0 sec)

MULLIKEN ATOMIC CHARGES AND SPIN DENSITIES
------------------------------------------
   0 O :   -0.687887    0.037753
   1 O :   -0.655748    0.000330
   2 O :   -0.635467    0.007580
   3 O :   -0.668384    0.001507
   4 N :   -0.008354    0.057746
   5 N :    0.005676    0.000915
   6 N :    0.031499    0.005755
   7 N :    0.049489   -0.002819
   8 C :    1.149327    0.625475
   9 C :    0.671140   -0.007399
  10 C :   -0.184856   -0.478616
  11 C :   -0.043324    0.003825
  12 C :   -1.429471   -0.026941
  13 C :   -1.408784   -0.003661
  14 C :    0.181483   -0.312435
  15 C :    0.546578    0.022269
  16 C :    0.341908    0.017139
  17 C :    0.425631   -0.008990
  18 H :    0.161094    0.033916
  19 H :    0.128454   -0.002991
  20 H :    0.246536    0.019295
  21 H :    0.346479    0.011628
  22 H :    0.348180   -0.000043
  23 H :    0.344922   -0.000210
  24 H :    0.335745    0.000897
  25 H :    0.219585   -0.002395
  26 H :    0.069151    0.001341
  27 H :    0.019402   -0.002987
  28 H :    0.052146    0.003701
  29 H :    0.047850   -0.001584
Sum of atomic charges       :    0.0000000

LOEWDIN ATOMIC CHARGES AND SPIN DENSITIES
-----------------------------------------
   0 O :    0.080417    0.029966
   1 O :    0.102216   -0.000152
   2 O :    0.088837    0.006182
   3 O :    0.069808    0.000219
   4 N :    0.288710    0.024478
   5 N :    0.281306   -0.000589
   6 N :    0.339565    0.000191
   7 N :    0.344468   -0.000116
   8 C :   -0.136068   -0.035182
   9 C :   -0.133594   -0.000323
  10 C :    0.054333   -0.031705
  11 C :    0.052131   -0.000185
  12 C :    0.173696   -0.003977
  13 C :    0.183510    0.000086
  14 C :   -0.411004    0.010698
  15 C :   -0.391802    0.000124
  16 C :   -0.484761    0.000716
  17 C :   -0.487369   -0.000514
  18 H :    0.039908   -0.002026
  19 H :    0.036365    0.000071
  20 H :   -0.010853   -0.000365
  21 H :   -0.007136    0.000278
  22 H :    0.001649   -0.000419
  23 H :    0.000479   -0.000012
  24 H :   -0.006153    0.000017
  25 H :   -0.011480    0.000104
  26 H :   -0.017681    0.002248
  27 H :   -0.021342   -0.000003
  28 H :   -0.004941    0.000198
  29 H :   -0.013215   -0.000007

  Mayer bond orders larger than 0.100000
B(  0-O , 14-C ) :   1.4566 B(  1-O , 15-C ) :   1.4422 B(  2-O , 16-C ) :   1.5807
B(  3-O , 17-C ) :   1.5324 B(  4-N , 10-C ) :   0.8925 B(  4-N , 16-C ) :   0.9836
B(  4-N , 26-H ) :   1.1059 B(  5-N , 11-C ) :   0.9656 B(  5-N , 17-C ) :   1.0461
B(  5-N , 27-H ) :   1.1320 B(  6-N , 14-C ) :   0.9427 B(  6-N , 16-C ) :   0.9258
B(  6-N , 28-H ) :   1.0948 B(  7-N , 15-C ) :   0.9928 B(  7-N , 16-C ) :   0.1105
B(  7-N , 17-C ) :   0.9431 B(  7-N , 29-H ) :   1.1116 B(  8-C , 10-C ) :   1.0666
B(  8-C , 12-C ) :   0.3076 B(  8-C , 14-C ) :   0.6441 B(  9-C , 11-C ) :   1.2075
B(  9-C , 13-C ) :   0.3733 B(  9-C , 15-C ) :   0.8178 B(  9-C , 25-H ) :  -0.1083
B( 10-C , 12-C ) :  -0.1002 B( 10-C , 14-C ) :   0.1358 B( 10-C , 16-C ) :  -0.1029
B( 10-C , 18-H ) :   1.1319 B( 11-C , 13-C ) :  -0.1718 B( 11-C , 19-H ) :   1.1206
B( 12-C , 20-H ) :   0.9980 B( 12-C , 21-H ) :   0.9732 B( 12-C , 22-H ) :   0.9417
B( 13-C , 23-H ) :   0.9248 B( 13-C , 24-H ) :   0.9924 B( 13-C , 25-H ) :   1.0232

Dispersion correction           -0.058106058
FINAL SINGLE POINT ENERGY      -908.929326565609

DIPOLE MOMENT
-------------

Method             : TDA/CIS
Type of density    : Electron Density
Level              : Relaxed density
State              :   1
Multiplicity       :   3
Irrep              :   0
Energy             :     0.0000000000000000 Eh
Relativity type    :
Basis              : AO
                                X                 Y                 Z
Electronic contribution:     -2.723230234      -9.948780647      -5.727709362
Nuclear contribution   :      2.135423961      10.668242163       8.246486377
                        -----------------------------------------
Total Dipole Moment    :     -0.587806273       0.719461517       2.518777015
                        -----------------------------------------
Magnitude (a.u.)       :      2.684656168
Magnitude (Debye)      :      6.823853679

Rotational constants in cm-1:             0.017181             0.015582             0.013486
Rotational constants in MHz :           515.072636           467.135977           404.314930

                             ****ORCA TERMINATED NORMALLY****
TOTAL RUN TIME: 0 days 0 hours 33 minutes 25 seconds 574 msec
