                         Program Version 6.0.0  -   RELEASE  -
|  1> ! Engrad def2-TZVPPD wB97M-D3BJ
|  2> %pal nprocs 8 end%pal nprocs 64 end
|  3> %tddft
|  4>  Iroot 1 Nroots 3
|  5> sf true
|  6> end
|  7> *xyz 0 3
|  8> O   3.31173789 1.04302699 -0.10336372
|  9> O   -1.06695712 0.75120449 -2.57577922
| 10> O   0.67261717 -2.60138246 -1.32436499
| 11> O   -3.33438836 -1.66143887 0.51469616
| 12> N   0.30197154 -1.4716229 0.65591582
| 13> N   -2.15152357 0.210981 1.10845284
| 14> N   1.95305196 -0.72514519 -0.78280159
| 15> N   -2.01054134 -0.59841334 -1.00979839
| 16> C   1.5788228 0.49007223 1.30647431
| 17> C   -0.63218179 1.32359261 -0.35079263
| 18> C   0.25162945 -0.27618062 1.44483501
| 19> C   -0.81068792 0.77084376 1.05093128
| 20> C   2.04618894 1.47612808 2.32679483
| 21> C   0.26548671 2.42955129 -0.67536478
| 22> C   2.36154947 0.29147243 0.0951633
| 23> C   -1.28714221 0.5430503 -1.38695429
| 24> C   1.0002164 -1.72952524 -0.53706718
| 25> C   -2.56948108 -0.80878447 0.24011529
| 26> H   0.02718046 -0.44718461 2.50783756
| 27> H   -0.68989898 1.51263768 1.75657951
| 28> H   1.19028796 2.01153646 2.74126989
| 29> H   2.72711341 1.00770973 3.1085155
| 30> H   2.69388909 2.1410923 1.75578317
| 31> H   -0.25200901 3.12216706 -1.3436364
| 32> H   0.71446956 2.815127 0.2416952
| 33> H   1.2228751 2.31397776 -1.29768747
| 34> H   -0.37545423 -2.2033629 0.79571211
| 35> H   -2.57691669 0.15422734 1.98765424
| 36> H   2.11858171 -0.57006045 -1.74138411
| 37> H   -2.2233415 -1.21261157 -1.78607637
| 38> *
| 39>
| 40>                          ****END OF INPUT****

CARTESIAN COORDINATES (ANGSTROEM)
---------------------------------
  O      3.311738    1.043027   -0.103364
  O     -1.066957    0.751204   -2.575779
  O      0.672617   -2.601382   -1.324365
  O     -3.334388   -1.661439    0.514696
  N      0.301972   -1.471623    0.655916
  N     -2.151524    0.210981    1.108453
  N      1.953052   -0.725145   -0.782802
  N     -2.010541   -0.598413   -1.009798
  C      1.578823    0.490072    1.306474
  C     -0.632182    1.323593   -0.350793
  C      0.251629   -0.276181    1.444835
  C     -0.810688    0.770844    1.050931
  C      2.046189    1.476128    2.326795
  C      0.265487    2.429551   -0.675365
  C      2.361549    0.291472    0.095163
  C     -1.287142    0.543050   -1.386954
  C      1.000216   -1.729525   -0.537067
  C     -2.569481   -0.808784    0.240115
  H      0.027180   -0.447185    2.507838
  H     -0.689899    1.512638    1.756580
  H      1.190288    2.011536    2.741270
  H      2.727113    1.007710    3.108515
  H      2.693889    2.141092    1.755783
  H     -0.252009    3.122167   -1.343636
  H      0.714470    2.815127    0.241695
  H      1.222875    2.313978   -1.297687
  H     -0.375454   -2.203363    0.795712
  H     -2.576917    0.154227    1.987654
  H      2.118582   -0.570060   -1.741384
  H     -2.223342   -1.212612   -1.786076

 Total Charge           Charge          ....    0
 Multiplicity           Mult            ....    3
 Number of Electrons    NEL             ....  132
 Basis Dimension        Dim             ....  882

ORBITAL ENERGIES
----------------
                 SPIN UP ORBITALS
  NO   OCC          E(Eh)            E(eV)
   0   1.0000     -19.341692      -526.3142
   1   1.0000     -19.332812      -526.0726
   2   1.0000     -19.331454      -526.0356
   3   1.0000     -19.330675      -526.0144
   4   1.0000     -14.566432      -396.3728
   5   1.0000     -14.558148      -396.1473
   6   1.0000     -14.557036      -396.1171
   7   1.0000     -14.550064      -395.9274
   8   1.0000     -10.517365      -286.1921
   9   1.0000     -10.505188      -285.8607
  10   1.0000     -10.488587      -285.4090
  11   1.0000     -10.477562      -285.1089
  12   1.0000     -10.445822      -284.2453
  13   1.0000     -10.434772      -283.9446
  14   1.0000     -10.421787      -283.5913
  15   1.0000     -10.416195      -283.4391
  16   1.0000     -10.382238      -282.5151
  17   1.0000     -10.375797      -282.3398
  18   1.0000      -1.231925       -33.5224
  19   1.0000      -1.216640       -33.1065
  20   1.0000      -1.198507       -32.6130
  21   1.0000      -1.195422       -32.5291
  22   1.0000      -1.121029       -30.5047
  23   1.0000      -1.099787       -29.9267
  24   1.0000      -1.063866       -28.9493
  25   1.0000      -1.051079       -28.6013
  26   1.0000      -0.982558       -26.7368
  27   1.0000      -0.948959       -25.8225
  28   1.0000      -0.892702       -24.2917
  29   1.0000      -0.842778       -22.9331
  30   1.0000      -0.825533       -22.4639
  31   1.0000      -0.800541       -21.7838
  32   1.0000      -0.782149       -21.2834
  33   1.0000      -0.778922       -21.1955
  34   1.0000      -0.698473       -19.0064
  35   1.0000      -0.694745       -18.9050
  36   1.0000      -0.691620       -18.8199
  37   1.0000      -0.675907       -18.3924
  38   1.0000      -0.651487       -17.7279
  39   1.0000      -0.643242       -17.5035
  40   1.0000      -0.625435       -17.0190
  41   1.0000      -0.600508       -16.3407
  42   1.0000      -0.593452       -16.1486
  43   1.0000      -0.583400       -15.8751
  44   1.0000      -0.577839       -15.7238
  45   1.0000      -0.575405       -15.6576
  46   1.0000      -0.570583       -15.5264
  47   1.0000      -0.567388       -15.4394
  48   1.0000      -0.564913       -15.3721
  49   1.0000      -0.556151       -15.1336
  50   1.0000      -0.554825       -15.0976
  51   1.0000      -0.537846       -14.6355
  52   1.0000      -0.530433       -14.4338
  53   1.0000      -0.527858       -14.3637
  54   1.0000      -0.512426       -13.9438
  55   1.0000      -0.492220       -13.3940
  56   1.0000      -0.489617       -13.3232
  57   1.0000      -0.428244       -11.6531
  58   1.0000      -0.424267       -11.5449
  59   1.0000      -0.416084       -11.3222
  60   1.0000      -0.408687       -11.1209
  61   1.0000      -0.403769       -10.9871
  62   1.0000      -0.399860       -10.8807
  63   1.0000      -0.393438       -10.7060
  64   1.0000      -0.375635       -10.2216
  65   1.0000      -0.339104        -9.2275
  66   1.0000      -0.330325        -8.9886
  67   0.0000       0.009900         0.2694
  68   0.0000       0.031683         0.8621
  69   0.0000       0.033397         0.9088
  70   0.0000       0.036732         0.9995
  71   0.0000       0.053439         1.4542

                 SPIN DOWN ORBITALS
  NO   OCC          E(Eh)            E(eV)
   0   1.0000     -19.336726      -526.1791
   1   1.0000     -19.332764      -526.0713
   2   1.0000     -19.330466      -526.0087
   3   1.0000     -19.326867      -525.9108
   4   1.0000     -14.565865      -396.3573
   5   1.0000     -14.558059      -396.1449
   6   1.0000     -14.556706      -396.1081
   7   1.0000     -14.549642      -395.9159
   8   1.0000     -10.517399      -286.1930
   9   1.0000     -10.505224      -285.8617
  10   1.0000     -10.489615      -285.4369
  11   1.0000     -10.478552      -285.1359
  12   1.0000     -10.445497      -284.2364
  13   1.0000     -10.434495      -283.9371
  14   1.0000     -10.410487      -283.2837
  15   1.0000     -10.405017      -283.1349
  16   1.0000     -10.382857      -282.5319
  17   1.0000     -10.376420      -282.3567
  18   1.0000      -1.231287       -33.5050
  19   1.0000      -1.214561       -33.0499
  20   1.0000      -1.192966       -32.4622
  21   1.0000      -1.189195       -32.3596
  22   1.0000      -1.118265       -30.4295
  23   1.0000      -1.097735       -29.8709
  24   1.0000      -1.062078       -28.9006
  25   1.0000      -1.049723       -28.5644
  26   1.0000      -0.970074       -26.3971
  27   1.0000      -0.931784       -25.3551
  28   1.0000      -0.886805       -24.1312
  29   1.0000      -0.837861       -22.7994
  30   1.0000      -0.816542       -22.2192
  31   1.0000      -0.795915       -21.6580
  32   1.0000      -0.780790       -21.2464
  33   1.0000      -0.777112       -21.1463
  34   1.0000      -0.694154       -18.8889
  35   1.0000      -0.688328       -18.7304
  36   1.0000      -0.685502       -18.6534
  37   1.0000      -0.669701       -18.2235
  38   1.0000      -0.641948       -17.4683
  39   1.0000      -0.639171       -17.3927
  40   1.0000      -0.619599       -16.8601
  41   1.0000      -0.594965       -16.1898
  42   1.0000      -0.589057       -16.0291
  43   1.0000      -0.576578       -15.6895
  44   1.0000      -0.572463       -15.5775
  45   1.0000      -0.570476       -15.5234
  46   1.0000      -0.563499       -15.3336
  47   1.0000      -0.562162       -15.2972
  48   1.0000      -0.559537       -15.2258
  49   1.0000      -0.549625       -14.9561
  50   1.0000      -0.542426       -14.7602
  51   1.0000      -0.530469       -14.4348
  52   1.0000      -0.518669       -14.1137
  53   1.0000      -0.516930       -14.0664
  54   1.0000      -0.505270       -13.7491
  55   1.0000      -0.486474       -13.2376
  56   1.0000      -0.478845       -13.0300
  57   1.0000      -0.425341       -11.5741
  58   1.0000      -0.421389       -11.4666
  59   1.0000      -0.405678       -11.0391
  60   1.0000      -0.402303       -10.9472
  61   1.0000      -0.395392       -10.7592
  62   1.0000      -0.390645       -10.6300
  63   1.0000      -0.387215       -10.5367
  64   1.0000      -0.365030        -9.9330
  65   0.0000      -0.058051        -1.5796
  66   0.0000      -0.054798        -1.4911
  67   0.0000       0.009455         0.2573
  68   0.0000       0.031403         0.8545
  69   0.0000       0.033526         0.9123

----------------------------------------------------------------------------------------------------
          SPIN FLIP ABSORPTION SPECTRUM VIA TRANSITION ELECTRIC DIPOLE MOMENTS
----------------------------------------------------------------------------------------------------
     Transition      Energy     Energy  Wavelength fosc(D2)      D2        DX        DY        DZ
                      (eV)      (cm-1)    (nm)                 (au**2)    (au)      (au)      (au)
----------------------------------------------------------------------------------------------------
  1-3A  ->  2-1A    0.023636     190.6  52455.6   0.000002319   0.00400  -0.06043  -0.01709   0.00779
  1-3A  ->  3-3A    2.110012   17018.4   587.6   0.001540916   0.02981  -0.02311  -0.04895   0.16394

Dispersion correction             ... done (  0.1 sec)

MULLIKEN ATOMIC CHARGES AND SPIN DENSITIES
------------------------------------------
   0 O :   -0.637720    0.143748
   1 O :   -0.702262   -0.133980
   2 O :   -0.623789    0.001033
   3 O :   -0.589532   -0.003176
   4 N :   -0.223863    0.008050
   5 N :   -0.366306   -0.003751
   6 N :    0.041221    0.001016
   7 N :    0.045038   -0.008206
   8 C :   -0.193823    0.404509
   9 C :    0.654091    0.270955
  10 C :    0.701239    0.029759
  11 C :    0.132760   -0.378939
  12 C :   -1.306579    0.004403
  13 C :   -1.430224   -0.060336
  14 C :    0.492438    0.052631
  15 C :    0.074588   -0.298771
  16 C :    0.382617    0.002701
  17 C :    0.278104    0.015071
  18 H :    0.471681    0.023085
  19 H :    0.761618   -0.060557
  20 H :    0.309484    0.003688
  21 H :    0.355052    0.019420
  22 H :    0.301667    0.007693
  23 H :    0.386835   -0.019070
  24 H :    0.343369    0.008646
  25 H :    0.197803   -0.028543
  26 H :    0.034318   -0.003166
  27 H :    0.054108    0.001464
  28 H :    0.015500   -0.003511
  29 H :    0.040568    0.004135
Sum of atomic charges       :    0.0000000

LOEWDIN ATOMIC CHARGES AND SPIN DENSITIES
-----------------------------------------
   0 O :    0.074533    0.125695
   1 O :    0.072365   -0.116223
   2 O :    0.091826    0.001147
   3 O :    0.130250   -0.003060
   4 N :    0.277209    0.001591
   5 N :    0.297458   -0.002665
   6 N :    0.347524    0.003374
   7 N :    0.322106   -0.012061
   8 C :   -0.033875    0.395057
   9 C :    0.006689   -0.361392
  10 C :   -0.100792    0.015884
  11 C :   -0.112511   -0.021312
  12 C :    0.184405    0.054072
  13 C :    0.182550   -0.062840
  14 C :   -0.398221    0.059738
  15 C :   -0.395315   -0.067078
  16 C :   -0.426868   -0.000790
  17 C :   -0.510093   -0.000823
  18 H :    0.067547    0.002666
  19 H :    0.000194   -0.002837
  20 H :   -0.008888    0.004979
  21 H :    0.045190    0.021758
  22 H :   -0.019037    0.003697
  23 H :    0.014210   -0.017003
  24 H :   -0.005446    0.002247
  25 H :    0.053382   -0.023509
  26 H :   -0.038675    0.000439
  27 H :   -0.072534    0.000245
  28 H :   -0.041994    0.000050
  29 H :   -0.003189   -0.001044

  Mayer bond orders larger than 0.100000
B(  0-O , 14-C ) :   1.4529 B(  1-O , 15-C ) :   1.3296 B(  2-O , 16-C ) :   1.5719
B(  3-O , 17-C ) :   1.6344 B(  4-N ,  8-C ) :   0.2968 B(  4-N ,  9-C ) :   0.1704
B(  4-N , 10-C ) :   0.2922 B(  4-N , 11-C ) :  -0.1019 B(  4-N , 16-C ) :   1.0371
B(  4-N , 26-H ) :   1.0768 B(  5-N ,  9-C ) :   0.4753 B(  5-N , 10-C ) :   0.1400
B(  5-N , 11-C ) :  -0.2743 B(  5-N , 17-C ) :   1.2084 B(  5-N , 19-H ) :  -0.2514
B(  5-N , 27-H ) :   1.0387 B(  6-N ,  8-C ) :  -0.2020 B(  6-N , 10-C ) :   0.1744
B(  6-N , 14-C ) :   1.0581 B(  6-N , 16-C ) :   0.8295 B(  6-N , 28-H ) :   1.1321
B(  7-N ,  9-C ) :  -0.1034 B(  7-N , 11-C ) :   0.1774 B(  7-N , 15-C ) :   1.0132
B(  7-N , 17-C ) :   0.9510 B(  7-N , 29-H ) :   1.1158 B(  8-C ,  9-C ) :   0.1518
B(  8-C , 10-C ) :   0.1530 B(  8-C , 11-C ) :   0.3136 B(  8-C , 12-C ) :   0.6922
B(  8-C , 14-C ) :   0.6626 B(  8-C , 16-C ) :   0.1473 B(  8-C , 18-H ) :  -0.1547
B(  8-C , 22-H ) :  -0.1230 B(  9-C , 10-C ) :   0.2492 B(  9-C , 11-C ) :   0.3518
B(  9-C , 13-C ) :   0.3600 B(  9-C , 15-C ) :   0.6825 B(  9-C , 19-H ) :  -0.2591
B(  9-C , 24-H ) :  -0.1018 B( 10-C , 11-C ) :   0.4108 B( 10-C , 12-C ) :  -0.1631
B( 10-C , 16-C ) :  -0.1742 B( 10-C , 18-H ) :   0.8515 B( 11-C , 17-C ) :  -0.1969
B( 11-C , 19-H ) :   0.6633 B( 12-C , 14-C ) :  -0.1214 B( 12-C , 20-H ) :   0.9244
B( 12-C , 21-H ) :   0.8645 B( 12-C , 22-H ) :   1.0399 B( 13-C , 23-H ) :   0.8708
B( 13-C , 24-H ) :   0.9453 B( 13-C , 25-H ) :   0.9638

Dispersion correction           -0.061151274
FINAL SINGLE POINT ENERGY      -908.770453186011

DIPOLE MOMENT
-------------

Method             : TDA/CIS
Type of density    : Electron Density
Level              : Relaxed density
State              :   1
Multiplicity       :   3
Irrep              :   0
Energy             :     0.0000000000000000 Eh
Relativity type    :
Basis              : AO
                                X                 Y                 Z
Electronic contribution:     -4.188812768      -9.075807693      -6.056131066
Nuclear contribution   :      4.380236227      10.421429836       8.369179634
                        -----------------------------------------
Total Dipole Moment    :      0.191423459       1.345622143       2.313048568
                        -----------------------------------------
Magnitude (a.u.)       :      2.682822314
Magnitude (Debye)      :      6.819192393

Rotational constants in cm-1:             0.021827             0.013240             0.012609
Rotational constants in MHz :           654.351344           396.924418           377.998757

                             ****ORCA TERMINATED NORMALLY****
TOTAL RUN TIME: 0 days 0 hours 5 minutes 33 seconds 698 msec
