                         Program Version 6.0.0  -   RELEASE  -
|  1> ! opt def2-TZVPPD wB97M-D3BJ
|  2> %pal nprocs 8 end%pal nprocs 64 end
|  3>  %geom Constraints
|  4>  {B 9 8 2.6 C}
|  5>  {A 8 9 11 61.42857142857143 C}
|  6>  end
|  7>  end
|  8> *xyz 0 1
|  9> O   2.98579685529314 0.88758230159078 -0.86184571092411
| 10> O   -0.03983205397054 0.68929041702508 -2.10362336723772
| 11> O   0.93431434349854 -3.13274393337945 -0.68767288184107
| 12> O   -3.75829998830163 -0.84727300865116 -0.0472717177755
| 13> N   0.21184538946282 -1.54604804365365 0.7617588924445
| 14> N   -2.13631993928911 0.03188773433438 1.27350571071531
| 15> N   2.02598672506387 -1.14318467211666 -0.64531219127023
| 16> N   -1.91814233924584 0.03137116037665 -1.04498946748291
| 17> C   1.18097737274226 0.71693507080484 0.70173889017321
| 18> C   -0.20686880480777 1.27024627933494 0.21345042231937
| 19> C   0.41441080275909 -0.34173258966541 1.52336266615173
| 20> C   -0.82922175114212 0.58960593673968 1.44434972027296
| 21> C   1.92822011286806 1.69488653817281 1.5963734975385
| 22> C   -0.37809776891576 2.77134929626422 0.04819649358288
| 23> C   2.1403947470937 0.1972384729179 -0.35038567829864
| 24> C   -0.67361678962426 0.6214190571346 -1.0793014500539
| 25> C   1.04142578622994 -2.02697492875068 -0.21027082435993
| 26> C   -2.68467002550422 -0.30396816036989 0.07167054343891
| 27> H   0.80817443950001 -0.54572267081061 2.51895215321335
| 28> H   -0.83785272399001 1.27240685039143 2.28901317073582
| 29> H   2.31167340578204 2.52284411740894 1.00913016264629
| 30> H   1.28982602448342 2.08257620823614 2.38710022492991
| 31> H   2.77390820759972 1.19140411795486 2.06045858523949
| 32> H   -1.41857211141493 3.00964947214868 -0.16882755561625
| 33> H   -0.09065531563179 3.29799318042223 0.95389844358819
| 34> H   0.23426221611057 3.12492645074476 -0.77764887675592
| 35> H   -0.46772570547622 -2.21560145172536 1.0787081584806
| 36> H   -2.71769301149571 -0.17090724573546 2.06627440900372
| 37> H   2.60065167263658 -1.49057255715425 -1.3966820077142
| 38> H   -2.27169977231386 -0.32388339999036 -1.91951041514436
| 39> *
| 40>
| 41>                          ****END OF INPUT****
 Total Charge           Charge          ....    0
 Multiplicity           Mult            ....    1
 Number of Electrons    NEL             ....  132
Dispersion correction           -0.054885577
FINAL SINGLE POINT ENERGY      -908.748922313173
Dispersion correction             ... done (  0.1 sec)
Dispersion correction           -0.055839375
FINAL SINGLE POINT ENERGY      -908.773215460097
Dispersion correction             ... done (  0.1 sec)
Dispersion correction           -0.056705884
FINAL SINGLE POINT ENERGY      -908.789465964369
Dispersion correction             ... done (  0.1 sec)
FINAL SINGLE POINT ENERGY      -908.802322299450
FINAL SINGLE POINT ENERGY      -908.807880395382
FINAL SINGLE POINT ENERGY      -908.809864857224
FINAL SINGLE POINT ENERGY      -908.811051095910
FINAL SINGLE POINT ENERGY      -908.811821048115
FINAL SINGLE POINT ENERGY      -908.812433815372
FINAL SINGLE POINT ENERGY      -908.812895691403
FINAL SINGLE POINT ENERGY      -908.813734342310
FINAL SINGLE POINT ENERGY      -908.813847979378
FINAL SINGLE POINT ENERGY      -908.813901784728
FINAL SINGLE POINT ENERGY      -908.813923956548
FINAL SINGLE POINT ENERGY      -908.813934586757
FINAL SINGLE POINT ENERGY      -908.813939948344
FINAL SINGLE POINT ENERGY      -908.813943152294
Dispersion correction             ... done (  0.1 sec)
Dispersion correction           -0.060085855
FINAL SINGLE POINT ENERGY      -908.813945881412
Dispersion correction             ... done (  0.1 sec)
Dispersion correction           -0.060085878
FINAL SINGLE POINT ENERGY      -908.813946965009
Dispersion correction             ... done (  0.1 sec)
                    ***********************HURRAY********************

CARTESIAN COORDINATES (ANGSTROEM)
---------------------------------
  O      3.251920    0.635824   -0.587983
  O     -0.536607    1.104607   -2.418285
  O      0.496497   -2.946072   -0.879693
  O     -3.321855   -1.405961    0.081049
  N      0.254411   -1.567866    0.904128
  N     -2.066031    0.149326    1.176271
  N      1.787082   -1.081876   -0.774925
  N     -1.690149   -0.326948   -1.080623
  C      1.551900    0.487146    1.044045
  C     -0.553051    1.520770   -0.078810
  C      0.376475   -0.277923    1.536653
  C     -0.730347    0.730314    1.238310
  C      2.158022    1.542560    1.883231
  C     -0.545771    2.998037   -0.090753
  C      2.281688    0.051046   -0.150637
  C     -0.882388    0.782098   -1.303276
  C      0.808174   -1.936280   -0.291679
  C     -2.427317   -0.593418    0.075776
  H      0.437638   -0.438557    2.616777
  H     -0.729613    1.457175    2.047774
  H      2.819198    2.163931    1.288106
  H      1.407044    2.159999    2.375364
  H      2.754458    1.078399    2.676529
  H     -1.536906    3.385636    0.171585
  H      0.159890    3.395831    0.638663
  H     -0.291472    3.362550   -1.081996
  H     -0.491805   -2.174440    1.197476
  H     -2.568536   -0.104671    2.010051
  H      2.233237   -1.364369   -1.631806
  H     -1.953186   -0.871868   -1.886721

 Multiplicity           Mult            ....    1
 Number of Electrons    NEL             ....  132
 Basis Dimension        Dim             ....  882

ORBITAL ENERGIES
----------------

  NO   OCC          E(Eh)            E(eV)
   0   2.0000     -19.333698      -526.0967
   1   2.0000     -19.326455      -525.8996
   2   2.0000     -19.325815      -525.8822
   3   2.0000     -19.315418      -525.5992
   4   2.0000     -14.562753      -396.2727
   5   2.0000     -14.560299      -396.2059
   6   2.0000     -14.557827      -396.1386
   7   2.0000     -14.556464      -396.1015
   8   2.0000     -10.507997      -285.9371
   9   2.0000     -10.501952      -285.7727
  10   2.0000     -10.484591      -285.3002
  11   2.0000     -10.482369      -285.2398
  12   2.0000     -10.440376      -284.0971
  13   2.0000     -10.437415      -284.0165
  14   2.0000     -10.433009      -283.8966
  15   2.0000     -10.428011      -283.7606
  16   2.0000     -10.378993      -282.4268
  17   2.0000     -10.375015      -282.3185
  18   2.0000      -1.222790       -33.2738
  19   2.0000      -1.215123       -33.0652
  20   2.0000      -1.198277       -32.6068
  21   2.0000      -1.192048       -32.4373
  22   2.0000      -1.118675       -30.4407
  23   2.0000      -1.095590       -29.8125
  24   2.0000      -1.064902       -28.9774
  25   2.0000      -1.054912       -28.7056
  26   2.0000      -0.985950       -26.8291
  27   2.0000      -0.944052       -25.6890
  28   2.0000      -0.891742       -24.2655
  29   2.0000      -0.836362       -22.7586
  30   2.0000      -0.826900       -22.5011
  31   2.0000      -0.797975       -21.7140
  32   2.0000      -0.784835       -21.3564
  33   2.0000      -0.781014       -21.2525
  34   2.0000      -0.700036       -19.0489
  35   2.0000      -0.694423       -18.8962
  36   2.0000      -0.689475       -18.7616
  37   2.0000      -0.664329       -18.0773
  38   2.0000      -0.652351       -17.7514
  39   2.0000      -0.639950       -17.4139
  40   2.0000      -0.618360       -16.8264
  41   2.0000      -0.599555       -16.3147
  42   2.0000      -0.587546       -15.9879
  43   2.0000      -0.581549       -15.8248
  44   2.0000      -0.578624       -15.7452
  45   2.0000      -0.571265       -15.5449
  46   2.0000      -0.565209       -15.3801
  47   2.0000      -0.559608       -15.2277
  48   2.0000      -0.556909       -15.1543
  49   2.0000      -0.549382       -14.9494
  50   2.0000      -0.544459       -14.8155
  51   2.0000      -0.544026       -14.8037
  52   2.0000      -0.530336       -14.4312
  53   2.0000      -0.520864       -14.1734
  54   2.0000      -0.510886       -13.9019
  55   2.0000      -0.505993       -13.7688
  56   2.0000      -0.487852       -13.2751
  57   2.0000      -0.419988       -11.4285
  58   2.0000      -0.416572       -11.3355
  59   2.0000      -0.407953       -11.1010
  60   2.0000      -0.395894       -10.7728
  61   2.0000      -0.393849       -10.7172
  62   2.0000      -0.390907       -10.6371
  63   2.0000      -0.386756       -10.5242
  64   2.0000      -0.378006       -10.2861
  65   2.0000      -0.305808        -8.3215
  66   0.0000      -0.082599        -2.2476
  67   0.0000       0.005736         0.1561
  68   0.0000       0.028495         0.7754
  69   0.0000       0.031180         0.8485
  70   0.0000       0.037375         1.0170

MULLIKEN ATOMIC CHARGES
-----------------------
   0 O :   -0.682805
   1 O :   -0.655028
   2 O :   -0.662444
   3 O :   -0.634419
   4 N :   -0.258173
   5 N :   -0.343095
   6 N :    0.028730
   7 N :    0.070700
   8 C :    0.390775
   9 C :    0.670826
  10 C :    0.195645
  11 C :    0.478841
  12 C :   -1.552602
  13 C :   -1.571625
  14 C :    0.495145
  15 C :    0.042724
  16 C :    0.454299
  17 C :    0.309799
  18 H :    0.499287
  19 H :    0.488249
  20 H :    0.297496
  21 H :    0.323427
  22 H :    0.415963
  23 H :    0.365019
  24 H :    0.262701
  25 H :    0.371785
  26 H :    0.044565
  27 H :    0.107564
  28 H :    0.011040
  29 H :    0.035612
Sum of atomic charges:   -0.0000000

LOEWDIN ATOMIC CHARGES
----------------------
   0 O :    0.096017
   1 O :    0.110853
   2 O :    0.091352
   3 O :    0.096513
   4 N :    0.290448
   5 N :    0.284595
   6 N :    0.331154
   7 N :    0.330540
   8 C :   -0.017901
   9 C :    0.001801
  10 C :   -0.137137
  11 C :   -0.140388
  12 C :    0.190353
  13 C :    0.191423
  14 C :   -0.397762
  15 C :   -0.407158
  16 C :   -0.490772
  17 C :   -0.485729
  18 H :    0.059922
  19 H :    0.045702
  20 H :    0.002894
  21 H :   -0.006880
  22 H :    0.020160
  23 H :    0.015961
  24 H :   -0.007005
  25 H :    0.003836
  26 H :   -0.028348
  27 H :   -0.031481
  28 H :   -0.007597
  29 H :   -0.005365

  Mayer bond orders larger than 0.100000
B(  0-O , 14-C ) :   1.2452 B(  1-O , 15-C ) :   1.4628 B(  2-O , 16-C ) :   1.5336
B(  3-O , 17-C ) :   1.5859 B(  4-N ,  8-C ) :   0.2500 B(  4-N , 10-C ) :   0.4090
B(  4-N , 16-C ) :   1.0580 B(  4-N , 26-H ) :   1.0973 B(  5-N ,  9-C ) :   0.2741
B(  5-N , 10-C ) :   0.1542 B(  5-N , 11-C ) :  -0.1247 B(  5-N , 17-C ) :   1.2272
B(  5-N , 27-H ) :   1.0172 B(  6-N , 14-C ) :   1.0419 B(  6-N , 16-C ) :   0.9087
B(  6-N , 28-H ) :   1.1211 B(  7-N , 11-C ) :   0.1525 B(  7-N , 15-C ) :   0.9401
B(  7-N , 17-C ) :   0.9748 B(  7-N , 29-H ) :   1.0951 B(  8-C ,  9-C ) :   0.6163
B(  8-C , 10-C ) :   0.4235 B(  8-C , 11-C ) :   0.1284 B(  8-C , 12-C ) :   0.3399
B(  8-C , 14-C ) :   0.8047 B(  8-C , 15-C ) :   0.1918 B(  8-C , 16-C ) :   0.1081
B(  8-C , 18-H ) :  -0.1915 B(  8-C , 20-H ) :  -0.1439 B(  8-C , 21-H ) :  -0.1307
B(  9-C , 11-C ) :   0.1105 B(  9-C , 13-C ) :   0.2975 B(  9-C , 14-C ) :   0.1456
B(  9-C , 15-C ) :   0.6174 B(  9-C , 19-H ) :  -0.1086 B(  9-C , 24-H ) :  -0.1045
B( 10-C , 11-C ) :   0.7075 B( 10-C , 12-C ) :  -0.2046 B( 10-C , 16-C ) :  -0.1385
B( 10-C , 18-H ) :   0.9046 B( 11-C , 13-C ) :  -0.2233 B( 11-C , 15-C ) :  -0.1727
B( 11-C , 17-C ) :  -0.2247 B( 11-C , 19-H ) :   0.9221 B( 12-C , 20-H ) :   1.0793
B( 12-C , 21-H ) :   1.0117 B( 12-C , 22-H ) :   0.7642 B( 13-C , 23-H ) :   0.8465
B( 13-C , 24-H ) :   1.0902 B( 13-C , 25-H ) :   0.9082

Dispersion correction           -0.060091402
FINAL SINGLE POINT ENERGY      -908.813947519967

DIPOLE MOMENT
-------------

Method             : SCF
Type of density    : Electron Density
Multiplicity       :   1
Irrep              :   0
Energy             :  -908.7538561184211403 Eh
Relativity type    :
Basis              : AO
                                X                 Y                 Z
Electronic contribution:     -2.186974391     -10.048748894      -7.117881298
Nuclear contribution   :      2.047655973      11.499051478       9.759467801
                        -----------------------------------------
Total Dipole Moment    :     -0.139318418       1.450302584       2.641586503
                        -----------------------------------------
Magnitude (a.u.)       :      3.016747663
Magnitude (Debye)      :      7.667963176

Rotational constants in cm-1:             0.019805             0.014997             0.012670
Rotational constants in MHz :           593.751903           449.604697           379.849655

                             ****ORCA TERMINATED NORMALLY****
TOTAL RUN TIME: 0 days 0 hours 36 minutes 48 seconds 703 msec
