                         Program Version 6.0.0  -   RELEASE  -
|  1> ! Engrad def2-TZVPPD wB97M-D3BJ
|  2> %pal nprocs 8 end%pal nprocs 64 end
|  3> %tddft Nroots 2 Iroot 2
|  4> sf true
|  5> end
|  6> *xyz 0 3
|  7> O   2.14471586 0.14308317 -1.17733601
|  8> O   -0.47780384 2.48121817 -2.46697187
|  9> O   0.44928279 -3.70171275 0.45229594
| 10> O   -2.4138917 -1.2596863 -1.08935676
| 11> N   0.44553937 -1.89670025 1.82921971
| 12> N   -1.46895588 -0.17887011 0.64207721
| 13> N   1.1067222 -1.69029912 -0.38544341
| 14> N   -1.05835097 0.45392839 -1.62049102
| 15> C   1.05821986 0.37481088 0.93503904
| 16> C   -0.05389627 2.36223473 -0.32564169
| 17> C   0.5633057 -0.50114911 2.05142831
| 18> C   -0.39592188 0.4323562 1.35803545
| 19> C   2.02271677 1.46059656 1.35269079
| 20> C   -0.95827484 3.29378699 0.3559684
| 21> C   1.48272357 -0.36511478 -0.30597352
| 22> C   -0.57604855 1.7409772 -1.50141809
| 23> C   0.63965872 -2.52052815 0.6348902
| 24> C   -1.68244223 -0.38076091 -0.69933729
| 25> H   0.8902957 -0.23662942 3.05116671
| 26> H   -0.64931915 1.32632997 1.91117802
| 27> H   2.3334483 2.049094 0.49381042
| 28> H   1.5624666 2.10896108 2.0958778
| 29> H   2.90097083 0.99436729 1.81162748
| 30> H   -1.9838874 2.92850493 0.52368502
| 31> H   -0.55367443 3.71503482 1.27223694
| 32> H   -1.03319024 4.10553216 -0.37462138
| 33> H   0.06501803 -2.48835887 2.54935099
| 34> H   -1.97340815 -0.88269675 1.16736556
| 35> H   1.35894332 -2.18238651 -1.22994443
| 36> H   -1.27581166 0.20496622 -2.56712636
| 37> *
| 38>
| 39>                          ****END OF INPUT****

CARTESIAN COORDINATES (ANGSTROEM)
---------------------------------
  O      2.144716    0.143083   -1.177336
  O     -0.477804    2.481218   -2.466972
  O      0.449283   -3.701713    0.452296
  O     -2.413892   -1.259686   -1.089357
  N      0.445539   -1.896700    1.829220
  N     -1.468956   -0.178870    0.642077
  N      1.106722   -1.690299   -0.385443
  N     -1.058351    0.453928   -1.620491
  C      1.058220    0.374811    0.935039
  C     -0.053896    2.362235   -0.325642
  C      0.563306   -0.501149    2.051428
  C     -0.395922    0.432356    1.358035
  C      2.022717    1.460597    1.352691
  C     -0.958275    3.293787    0.355968
  C      1.482724   -0.365115   -0.305974
  C     -0.576049    1.740977   -1.501418
  C      0.639659   -2.520528    0.634890
  C     -1.682442   -0.380761   -0.699337
  H      0.890296   -0.236629    3.051167
  H     -0.649319    1.326330    1.911178
  H      2.333448    2.049094    0.493810
  H      1.562467    2.108961    2.095878
  H      2.900971    0.994367    1.811627
  H     -1.983887    2.928505    0.523685
  H     -0.553674    3.715035    1.272237
  H     -1.033190    4.105532   -0.374621
  H      0.065018   -2.488359    2.549351
  H     -1.973408   -0.882697    1.167366
  H      1.358943   -2.182387   -1.229944
  H     -1.275812    0.204966   -2.567126

 Total Charge           Charge          ....    0
 Multiplicity           Mult            ....    3
 Number of Electrons    NEL             ....  132
 Basis Dimension        Dim             ....  882

ORBITAL ENERGIES
----------------
                 SPIN UP ORBITALS
  NO   OCC          E(Eh)            E(eV)
   0   1.0000     -19.338132      -526.2173
   1   1.0000     -19.334334      -526.1140
   2   1.0000     -19.321114      -525.7542
   3   1.0000     -19.320384      -525.7344
   4   1.0000     -14.568715      -396.4349
   5   1.0000     -14.567583      -396.4041
   6   1.0000     -14.565955      -396.3598
   7   1.0000     -14.564294      -396.3146
   8   1.0000     -10.510144      -285.9956
   9   1.0000     -10.508311      -285.9457
  10   1.0000     -10.493400      -285.5399
  11   1.0000     -10.480653      -285.1931
  12   1.0000     -10.437539      -284.0199
  13   1.0000     -10.435765      -283.9716
  14   1.0000     -10.417536      -283.4756
  15   1.0000     -10.394683      -282.8537
  16   1.0000     -10.373029      -282.2645
  17   1.0000     -10.370720      -282.2016
  18   1.0000      -1.227291       -33.3963
  19   1.0000      -1.220605       -33.2143
  20   1.0000      -1.203716       -32.7548
  21   1.0000      -1.201138       -32.6846
  22   1.0000      -1.130853       -30.7721
  23   1.0000      -1.090577       -29.6761
  24   1.0000      -1.074792       -29.2466
  25   1.0000      -1.063584       -28.9416
  26   1.0000      -1.016424       -27.6583
  27   1.0000      -0.937593       -25.5132
  28   1.0000      -0.881957       -23.9993
  29   1.0000      -0.823167       -22.3995
  30   1.0000      -0.819144       -22.2900
  31   1.0000      -0.810428       -22.0529
  32   1.0000      -0.792235       -21.5578
  33   1.0000      -0.774247       -21.0683
  34   1.0000      -0.729387       -19.8476
  35   1.0000      -0.702645       -19.1199
  36   1.0000      -0.695373       -18.9220
  37   1.0000      -0.666607       -18.1393
  38   1.0000      -0.642232       -17.4760
  39   1.0000      -0.630660       -17.1611
  40   1.0000      -0.614187       -16.7129
  41   1.0000      -0.610684       -16.6176
  42   1.0000      -0.598767       -16.2933
  43   1.0000      -0.590830       -16.0773
  44   1.0000      -0.579940       -15.7810
  45   1.0000      -0.569195       -15.4886
  46   1.0000      -0.564797       -15.3689
  47   1.0000      -0.562385       -15.3033
  48   1.0000      -0.555793       -15.1239
  49   1.0000      -0.552322       -15.0294
  50   1.0000      -0.546086       -14.8597
  51   1.0000      -0.543259       -14.7828
  52   1.0000      -0.535023       -14.5587
  53   1.0000      -0.513800       -13.9812
  54   1.0000      -0.505903       -13.7663
  55   1.0000      -0.481386       -13.0992
  56   1.0000      -0.452887       -12.3237
  57   1.0000      -0.428924       -11.6716
  58   1.0000      -0.419403       -11.4125
  59   1.0000      -0.409581       -11.1453
  60   1.0000      -0.404398       -11.0042
  61   1.0000      -0.400189       -10.8897
  62   1.0000      -0.394412       -10.7325
  63   1.0000      -0.390317       -10.6211
  64   1.0000      -0.380022       -10.3409
  65   1.0000      -0.369632       -10.0582
  66   1.0000      -0.297391        -8.0924
  67   0.0000       0.008912         0.2425
  68   0.0000       0.029478         0.8021
  69   0.0000       0.031913         0.8684
  70   0.0000       0.036767         1.0005
  71   0.0000       0.045880         1.2485

                 SPIN DOWN ORBITALS
  NO   OCC          E(Eh)            E(eV)
   0   1.0000     -19.338064      -526.2155
   1   1.0000     -19.328752      -525.9621
   2   1.0000     -19.321162      -525.7556
   3   1.0000     -19.320383      -525.7343
   4   1.0000     -14.568681      -396.4340
   5   1.0000     -14.567502      -396.4019
   6   1.0000     -14.565859      -396.3572
   7   1.0000     -14.564275      -396.3141
   8   1.0000     -10.510161      -285.9960
   9   1.0000     -10.508314      -285.9458
  10   1.0000     -10.493404      -285.5400
  11   1.0000     -10.481231      -285.2088
  12   1.0000     -10.437124      -284.0086
  13   1.0000     -10.435421      -283.9622
  14   1.0000     -10.416939      -283.4593
  15   1.0000     -10.373379      -282.2740
  16   1.0000     -10.370414      -282.1933
  17   1.0000     -10.367030      -282.1012
  18   1.0000      -1.226866       -33.3847
  19   1.0000      -1.219403       -33.1816
  20   1.0000      -1.203397       -32.7461
  21   1.0000      -1.193465       -32.4758
  22   1.0000      -1.130269       -30.7562
  23   1.0000      -1.089795       -29.6548
  24   1.0000      -1.073635       -29.2151
  25   1.0000      -1.062972       -28.9249
  26   1.0000      -1.015080       -27.6217
  27   1.0000      -0.909042       -24.7363
  28   1.0000      -0.880800       -23.9678
  29   1.0000      -0.822620       -22.3846
  30   1.0000      -0.815154       -22.1815
  31   1.0000      -0.804407       -21.8890
  32   1.0000      -0.788676       -21.4610
  33   1.0000      -0.769464       -20.9382
  34   1.0000      -0.724507       -19.7148
  35   1.0000      -0.700654       -19.0658
  36   1.0000      -0.686630       -18.6842
  37   1.0000      -0.665781       -18.1168
  38   1.0000      -0.635070       -17.2811
  39   1.0000      -0.627040       -17.0626
  40   1.0000      -0.611819       -16.6484
  41   1.0000      -0.607043       -16.5185
  42   1.0000      -0.589057       -16.0291
  43   1.0000      -0.581367       -15.8198
  44   1.0000      -0.576249       -15.6805
  45   1.0000      -0.563167       -15.3246
  46   1.0000      -0.560465       -15.2510
  47   1.0000      -0.553765       -15.0687
  48   1.0000      -0.551822       -15.0158
  49   1.0000      -0.549687       -14.9578
  50   1.0000      -0.540523       -14.7084
  51   1.0000      -0.530808       -14.4440
  52   1.0000      -0.528718       -14.3871
  53   1.0000      -0.511996       -13.9321
  54   1.0000      -0.494538       -13.4571
  55   1.0000      -0.480209       -13.0672
  56   1.0000      -0.444618       -12.0987
  57   1.0000      -0.421979       -11.4826
  58   1.0000      -0.418311       -11.3828
  59   1.0000      -0.405943       -11.0463
  60   1.0000      -0.400337       -10.8937
  61   1.0000      -0.392645       -10.6844
  62   1.0000      -0.388678       -10.5765
  63   1.0000      -0.381863       -10.3910
  64   1.0000      -0.368794       -10.0354
  65   0.0000      -0.050003        -1.3607
  66   0.0000       0.008470         0.2305
  67   0.0000       0.026226         0.7136
  68   0.0000       0.031511         0.8575
  69   0.0000       0.036123         0.9830

----------------------------------------------------------------------------------------------------
          SPIN FLIP ABSORPTION SPECTRUM VIA TRANSITION ELECTRIC DIPOLE MOMENTS
----------------------------------------------------------------------------------------------------
     Transition      Energy     Energy  Wavelength fosc(D2)      D2        DX        DY        DZ
                      (eV)      (cm-1)    (nm)                 (au**2)    (au)      (au)      (au)
----------------------------------------------------------------------------------------------------
  1-3A  ->  2-3A    1.967239   15866.9   630.2   0.000255304   0.00530   0.01774   0.04011  -0.05808

Dispersion correction             ... done (  0.1 sec)

MULLIKEN ATOMIC CHARGES AND SPIN DENSITIES
------------------------------------------
   0 O :   -0.635259   -0.000109
   1 O :   -0.581795   -0.003234
   2 O :   -0.655701   -0.000065
   3 O :   -0.664033   -0.000242
   4 N :   -0.126862   -0.000543
   5 N :   -0.128424   -0.001240
   6 N :    0.013085    0.000726
   7 N :    0.080112    0.000060
   8 C :    1.825067   -0.022623
   9 C :    0.576148    0.182095
  10 C :   -0.472970    0.001899
  11 C :   -0.539383   -0.005143
  12 C :   -1.636045    0.005216
  13 C :   -1.402131    0.015547
  14 C :   -0.042234   -0.001048
  15 C :    0.293563   -0.183442
  16 C :    0.453536    0.000349
  17 C :    0.563274    0.000993
  18 H :    0.238070    0.002003
  19 H :    0.400149    0.001679
  20 H :    0.350575    0.000160
  21 H :    0.348881   -0.003003
  22 H :    0.450183   -0.006938
  23 H :    0.336329    0.006033
  24 H :    0.312574   -0.002454
  25 H :    0.456974    0.009945
  26 H :    0.041048    0.000226
  27 H :    0.094046   -0.000294
  28 H :    0.041651   -0.000303
  29 H :    0.009569    0.003751
Sum of atomic charges       :    0.0000000

LOEWDIN ATOMIC CHARGES AND SPIN DENSITIES
-----------------------------------------
   0 O :    0.120627   -0.000972
   1 O :    0.115910   -0.011754
   2 O :    0.092781   -0.000021
   3 O :    0.097200   -0.000161
   4 N :    0.287508   -0.000192
   5 N :    0.292562   -0.000712
   6 N :    0.342960   -0.000121
   7 N :    0.335655   -0.001570
   8 C :   -0.238331   -0.000936
   9 C :    0.131614    0.039986
  10 C :   -0.049685   -0.000508
  11 C :   -0.090543   -0.001521
  12 C :    0.195611   -0.002137
  13 C :    0.108956   -0.004429
  14 C :   -0.371015   -0.000329
  15 C :   -0.472026   -0.008162
  16 C :   -0.474934   -0.000035
  17 C :   -0.476820   -0.000247
  18 H :    0.058881   -0.000059
  19 H :    0.028666   -0.000590
  20 H :   -0.006597   -0.001143
  21 H :    0.003753   -0.000138
  22 H :    0.017193   -0.000491
  23 H :    0.017839   -0.001443
  24 H :   -0.007999   -0.000170
  25 H :   -0.001089   -0.001858
  26 H :   -0.020732   -0.000020
  27 H :   -0.019922   -0.000030
  28 H :   -0.002594   -0.000019
  29 H :   -0.015429   -0.000218

  Mayer bond orders larger than 0.100000
B(  0-O ,  8-C ) :  -0.1645 B(  0-O , 14-C ) :   1.6102 B(  1-O ,  9-C ) :  -0.1079
B(  1-O , 15-C ) :   1.3844 B(  2-O , 16-C ) :   1.5633 B(  3-O , 17-C ) :   1.4709
B(  4-N ,  8-C ) :   0.1043 B(  4-N , 10-C ) :   0.6527 B(  4-N , 11-C ) :  -0.1240
B(  4-N , 16-C ) :   1.1060 B(  4-N , 26-H ) :   1.1210 B(  5-N , 10-C ) :  -0.1009
B(  5-N , 11-C ) :   0.7835 B(  5-N , 17-C ) :   0.9462 B(  5-N , 19-H ) :  -0.1219
B(  5-N , 27-H ) :   1.0697 B(  6-N , 14-C ) :   1.0574 B(  6-N , 16-C ) :   0.9392
B(  6-N , 28-H ) :   1.1020 B(  7-N , 15-C ) :   0.9540 B(  7-N , 17-C ) :   0.9768
B(  7-N , 29-H ) :   1.1228 B(  8-C ,  9-C ) :   0.1167 B(  8-C , 10-C ) :   0.4811
B(  8-C , 12-C ) :   0.1349 B(  8-C , 14-C ) :   0.1881 B(  8-C , 20-H ) :  -0.1076
B(  8-C , 21-H ) :  -0.1239 B(  9-C , 11-C ) :  -0.1051 B(  9-C , 13-C ) :   0.2624
B(  9-C , 15-C ) :   0.6807 B(  9-C , 24-H ) :  -0.1006 B( 10-C , 11-C ) :   0.6737
B( 10-C , 16-C ) :  -0.1067 B( 10-C , 18-H ) :   1.1668 B( 11-C , 14-C ) :  -0.1213
B( 11-C , 15-C ) :   0.1290 B( 11-C , 19-H ) :   1.0928 B( 12-C , 20-H ) :   0.9795
B( 12-C , 21-H ) :   1.0519 B( 12-C , 22-H ) :   0.7426 B( 13-C , 23-H ) :   0.9145
B( 13-C , 24-H ) :   1.0459 B( 13-C , 25-H ) :   0.8519 B( 15-C , 17-C ) :  -0.1256

Dispersion correction           -0.059771573
FINAL SINGLE POINT ENERGY      -908.659773915262

DIPOLE MOMENT
-------------

Method             : TDA/CIS
Type of density    : Electron Density
Level              : Relaxed density
State              :   2
Multiplicity       :   3
Irrep              :   0
Energy             :     0.0000000000000000 Eh
Relativity type    :
Basis              : AO
                                X                 Y                 Z
Electronic contribution:     -1.162192131      -9.901187429      -7.517829699
Nuclear contribution   :      1.150323205      10.924714663      10.201370320
                        -----------------------------------------
Total Dipole Moment    :     -0.011868925       1.023527234       2.683540621
                        -----------------------------------------
Magnitude (a.u.)       :      2.872131462
Magnitude (Debye)      :      7.300378005

Rotational constants in cm-1:             0.022276             0.013885             0.012070
Rotational constants in MHz :           667.831212           416.276475           361.836396

                             ****ORCA TERMINATED NORMALLY****
TOTAL RUN TIME: 0 days 0 hours 4 minutes 36 seconds 872 msec
