                         Program Version 6.0.0  -   RELEASE  -
|  1> ! Engrad def2-TZVPPD wB97M-D3BJ
|  2> %pal nprocs 8 end%pal nprocs 32 end
|  3>  %tddft nroots 2 Iroot 2
|  4> sf true
|  5> end
|  6> *xyz 0 3
|  7> O   3.34655816003862 0.46025837920768 -0.6654361557885
|  8> O   -0.74120900992082 1.3311158771902 -2.43631697419238
|  9> O   0.43864158750669 -2.97909435151829 -0.68060851817443
| 10> O   -3.13258546206483 -1.64120491776769 -0.07271122039811
| 11> N   0.29165770154302 -1.48281812107112 1.01935494686893
| 12> N   -2.09288682997029 0.02335584055352 1.08396700060999
| 13> N   1.68987234333445 -1.08609203101762 -0.79280032128646
| 14> N   -1.59763275214667 -0.35027756858549 -1.15885060364893
| 15> C   1.7460281065638 0.45069046652952 1.06077516371518
| 16> C   -0.77028972683406 1.61485827868418 -0.08502495759845
| 17> C   0.39699197926602 -0.13189470929857 1.52425579688226
| 18> C   -0.86674798468701 0.77609886603756 1.20144885102887
| 19> C   2.42637672701986 1.46654468712222 1.87863435965774
| 20> C   -0.74577085244634 3.08341028633762 -0.03939544484833
| 21> C   2.34050751691718 -0.02274516868682 -0.17741961631098
| 22> C   -1.00687021150601 0.90026181693208 -1.33272237029859
| 23> C   0.76872029791823 -1.92489427404458 -0.18776633070383
| 24> C   -2.33534268991342 -0.7361153360319 -0.03982125337671
| 25> H   0.43063020848475 -0.21483930532508 2.61517795722439
| 26> H   -0.97674448733653 1.46867215774797 2.03409017214766
| 27> H   3.3621092057537 1.76395456101745 1.41736283024749
| 28> H   1.79771278691654 2.35493195146415 2.01224670962826
| 29> H   2.61699224441233 1.07905356846654 2.88504392971255
| 30> H   -1.68500307733722 3.4642279976357 0.38088554533292
| 31> H   0.05125471376188 3.44316267353186 0.61756751984377
| 32> H   -0.61793810768144 3.49508338356458 -1.03568405754067
| 33> H   -0.39374388390127 -2.10041725933004 1.41850588014696
| 34> H   -2.6047377572901 -0.27406419456031 1.89662302428693
| 35> H   2.10169504242681 -1.43317130399638 -1.64319520377593
| 36> H   -1.78564578882792 -0.88305225078897 -1.99358665939161
| 37> *
| 38>
| 39>                          ****END OF INPUT****

CARTESIAN COORDINATES (ANGSTROEM)
---------------------------------
  O      3.346558    0.460258   -0.665436
  O     -0.741209    1.331116   -2.436317
  O      0.438642   -2.979094   -0.680609
  O     -3.132585   -1.641205   -0.072711
  N      0.291658   -1.482818    1.019355
  N     -2.092887    0.023356    1.083967
  N      1.689872   -1.086092   -0.792800
  N     -1.597633   -0.350278   -1.158851
  C      1.746028    0.450690    1.060775
  C     -0.770290    1.614858   -0.085025
  C      0.396992   -0.131895    1.524256
  C     -0.866748    0.776099    1.201449
  C      2.426377    1.466545    1.878634
  C     -0.745771    3.083410   -0.039395
  C      2.340508   -0.022745   -0.177420
  C     -1.006870    0.900262   -1.332722
  C      0.768720   -1.924894   -0.187766
  C     -2.335343   -0.736115   -0.039821
  H      0.430630   -0.214839    2.615178
  H     -0.976744    1.468672    2.034090
  H      3.362109    1.763955    1.417363
  H      1.797713    2.354932    2.012247
  H      2.616992    1.079054    2.885044
  H     -1.685003    3.464228    0.380886
  H      0.051255    3.443163    0.617568
  H     -0.617938    3.495083   -1.035684
  H     -0.393744   -2.100417    1.418506
  H     -2.604738   -0.274064    1.896623
  H      2.101695   -1.433171   -1.643195
  H     -1.785646   -0.883052   -1.993587

 Total Charge           Charge          ....    0
 Multiplicity           Mult            ....    3
 Number of Electrons    NEL             ....  132
 Basis Dimension        Dim             ....  882

ORBITAL ENERGIES
----------------
                 SPIN UP ORBITALS
  NO   OCC          E(Eh)            E(eV)
   0   1.0000     -19.333284      -526.0854
   1   1.0000     -19.332885      -526.0745
   2   1.0000     -19.321669      -525.7693
   3   1.0000     -19.314404      -525.5717
   4   1.0000     -14.563556      -396.2945
   5   1.0000     -14.559142      -396.1744
   6   1.0000     -14.559047      -396.1718
   7   1.0000     -14.555561      -396.0770
   8   1.0000     -10.504907      -285.8530
   9   1.0000     -10.500375      -285.7297
  10   1.0000     -10.479734      -285.1681
  11   1.0000     -10.478842      -285.1438
  12   1.0000     -10.446455      -284.2625
  13   1.0000     -10.445627      -284.2400
  14   1.0000     -10.421043      -283.5710
  15   1.0000     -10.415374      -283.4167
  16   1.0000     -10.375072      -282.3201
  17   1.0000     -10.373979      -282.2903
  18   1.0000      -1.221282       -33.2328
  19   1.0000      -1.215325       -33.0707
  20   1.0000      -1.197168       -32.5766
  21   1.0000      -1.194437       -32.5023
  22   1.0000      -1.118025       -30.4230
  23   1.0000      -1.096203       -29.8292
  24   1.0000      -1.064682       -28.9715
  25   1.0000      -1.054527       -28.6951
  26   1.0000      -0.975392       -26.5418
  27   1.0000      -0.953254       -25.9394
  28   1.0000      -0.889178       -24.1958
  29   1.0000      -0.838884       -22.8272
  30   1.0000      -0.828390       -22.5416
  31   1.0000      -0.802607       -21.8400
  32   1.0000      -0.783028       -21.3073
  33   1.0000      -0.778453       -21.1828
  34   1.0000      -0.698091       -18.9960
  35   1.0000      -0.693691       -18.8763
  36   1.0000      -0.685272       -18.6472
  37   1.0000      -0.663029       -18.0419
  38   1.0000      -0.655346       -17.8329
  39   1.0000      -0.645387       -17.5619
  40   1.0000      -0.618434       -16.8284
  41   1.0000      -0.602897       -16.4057
  42   1.0000      -0.591173       -16.0866
  43   1.0000      -0.584502       -15.9051
  44   1.0000      -0.577887       -15.7251
  45   1.0000      -0.572681       -15.5834
  46   1.0000      -0.564973       -15.3737
  47   1.0000      -0.558937       -15.2094
  48   1.0000      -0.558273       -15.1914
  49   1.0000      -0.553824       -15.0703
  50   1.0000      -0.546801       -14.8792
  51   1.0000      -0.543605       -14.7922
  52   1.0000      -0.533093       -14.5062
  53   1.0000      -0.523918       -14.2565
  54   1.0000      -0.515697       -14.0328
  55   1.0000      -0.507457       -13.8086
  56   1.0000      -0.488535       -13.2937
  57   1.0000      -0.420288       -11.4366
  58   1.0000      -0.418098       -11.3770
  59   1.0000      -0.411381       -11.1943
  60   1.0000      -0.403182       -10.9711
  61   1.0000      -0.398964       -10.8564
  62   1.0000      -0.392195       -10.6722
  63   1.0000      -0.388703       -10.5771
  64   1.0000      -0.381166       -10.3721
  65   1.0000      -0.345061        -9.3896
  66   1.0000      -0.329377        -8.9628
  67   0.0000       0.005340         0.1453
  68   0.0000       0.027884         0.7588
  69   0.0000       0.031948         0.8694
  70   0.0000       0.038567         1.0495
  71   0.0000       0.056301         1.5320

                 SPIN DOWN ORBITALS
  NO   OCC          E(Eh)            E(eV)
   0   1.0000     -19.329037      -525.9698
   1   1.0000     -19.328212      -525.9474
   2   1.0000     -19.321399      -525.7620
   3   1.0000     -19.314263      -525.5678
   4   1.0000     -14.562805      -396.2741
   5   1.0000     -14.558774      -396.1644
   6   1.0000     -14.558715      -396.1628
   7   1.0000     -14.555324      -396.0705
   8   1.0000     -10.504919      -285.8534
   9   1.0000     -10.500402      -285.7305
  10   1.0000     -10.480823      -285.1977
  11   1.0000     -10.479878      -285.1720
  12   1.0000     -10.446617      -284.2669
  13   1.0000     -10.445363      -284.2328
  14   1.0000     -10.409520      -283.2574
  15   1.0000     -10.403553      -283.0951
  16   1.0000     -10.375681      -282.3366
  17   1.0000     -10.374560      -282.3061
  18   1.0000      -1.219662       -33.1887
  19   1.0000      -1.213247       -33.0141
  20   1.0000      -1.191959       -32.4349
  21   1.0000      -1.189415       -32.3656
  22   1.0000      -1.115546       -30.3556
  23   1.0000      -1.093973       -29.7685
  24   1.0000      -1.063009       -28.9259
  25   1.0000      -1.053082       -28.6558
  26   1.0000      -0.961429       -26.1618
  27   1.0000      -0.936377       -25.4801
  28   1.0000      -0.884609       -24.0714
  29   1.0000      -0.833581       -22.6829
  30   1.0000      -0.819514       -22.3001
  31   1.0000      -0.797496       -21.7010
  32   1.0000      -0.781739       -21.2722
  33   1.0000      -0.776887       -21.1402
  34   1.0000      -0.692111       -18.8333
  35   1.0000      -0.687045       -18.6954
  36   1.0000      -0.679640       -18.4939
  37   1.0000      -0.655757       -17.8440
  38   1.0000      -0.645504       -17.5650
  39   1.0000      -0.641749       -17.4629
  40   1.0000      -0.615285       -16.7427
  41   1.0000      -0.598679       -16.2909
  42   1.0000      -0.583459       -15.8767
  43   1.0000      -0.576690       -15.6925
  44   1.0000      -0.570486       -15.5237
  45   1.0000      -0.564494       -15.3607
  46   1.0000      -0.559461       -15.2237
  47   1.0000      -0.555118       -15.1055
  48   1.0000      -0.551165       -14.9980
  49   1.0000      -0.542853       -14.7718
  50   1.0000      -0.539865       -14.6905
  51   1.0000      -0.537407       -14.6236
  52   1.0000      -0.526918       -14.3382
  53   1.0000      -0.513642       -13.9769
  54   1.0000      -0.506175       -13.7737
  55   1.0000      -0.501807       -13.6549
  56   1.0000      -0.482728       -13.1357
  57   1.0000      -0.416962       -11.3461
  58   1.0000      -0.413956       -11.2643
  59   1.0000      -0.404864       -11.0169
  60   1.0000      -0.390346       -10.6219
  61   1.0000      -0.387543       -10.5456
  62   1.0000      -0.386800       -10.5253
  63   1.0000      -0.384006       -10.4493
  64   1.0000      -0.374971       -10.2035
  65   0.0000      -0.064075        -1.7436
  66   0.0000      -0.040918        -1.1134
  67   0.0000       0.004931         0.1342
  68   0.0000       0.027755         0.7553
  69   0.0000       0.031676         0.8620

----------------------------------------------------------------------------------------------------
          SPIN FLIP ABSORPTION SPECTRUM VIA TRANSITION ELECTRIC DIPOLE MOMENTS
----------------------------------------------------------------------------------------------------
     Transition      Energy     Energy  Wavelength fosc(D2)      D2        DX        DY        DZ
                      (eV)      (cm-1)    (nm)                 (au**2)    (au)      (au)      (au)
----------------------------------------------------------------------------------------------------
  1-3A  ->  2-3A    0.096870     781.3  12799.1   0.000002279   0.00096   0.01701  -0.01965   0.01688

Dispersion correction             ... done (  0.0 sec)

MULLIKEN ATOMIC CHARGES AND SPIN DENSITIES
------------------------------------------
   0 O :   -0.676212    0.045915
   1 O :   -0.673032   -0.042462
   2 O :   -0.659710    0.001097
   3 O :   -0.636022   -0.001722
   4 N :   -0.280436    0.009741
   5 N :   -0.335191   -0.001507
   6 N :    0.073687    0.000680
   7 N :    0.067512    0.001727
   8 C :    0.322104    0.467159
   9 C :    0.969947    0.453131
  10 C :    0.025602   -0.164216
  11 C :    0.354617   -0.314787
  12 C :   -1.228461    0.036530
  13 C :   -1.388068    0.020240
  14 C :    0.264138   -0.203111
  15 C :   -0.192337   -0.401861
  16 C :    0.431583    0.011434
  17 C :    0.344919    0.019593
  18 H :    0.658088    0.013445
  19 H :    0.466018   -0.009254
  20 H :    0.292349   -0.000724
  21 H :    0.274434    0.013055
  22 H :    0.330337    0.015117
  23 H :    0.354279    0.007037
  24 H :    0.272462    0.031761
  25 H :    0.346554   -0.014518
  26 H :    0.062495    0.000892
  27 H :    0.091821    0.000969
  28 H :    0.032231    0.003016
  29 H :    0.034291    0.001624
Sum of atomic charges       :   -0.0000000

LOEWDIN ATOMIC CHARGES AND SPIN DENSITIES
-----------------------------------------
   0 O :    0.089961    0.040595
   1 O :    0.093921   -0.041686
   2 O :    0.091274    0.001466
   3 O :    0.098228   -0.001143
   4 N :    0.270900    0.000458
   5 N :    0.272314   -0.004899
   6 N :    0.330641    0.000810
   7 N :    0.325069   -0.004430
   8 C :   -0.004044    0.150353
   9 C :   -0.001684   -0.128756
  10 C :   -0.083558    0.005509
  11 C :   -0.096477   -0.008395
  12 C :    0.186418    0.022304
  13 C :    0.187291   -0.023345
  14 C :   -0.401575    0.018430
  15 C :   -0.416449   -0.026828
  16 C :   -0.497076   -0.000189
  17 C :   -0.489793   -0.000409
  18 H :    0.048542    0.000383
  19 H :    0.047438    0.000125
  20 H :   -0.003556   -0.000363
  21 H :   -0.000731    0.006347
  22 H :    0.010945    0.006348
  23 H :    0.018235   -0.007585
  24 H :   -0.003878   -0.004457
  25 H :    0.001348    0.000135
  26 H :   -0.029472    0.000099
  27 H :   -0.028848   -0.000561
  28 H :   -0.009160    0.000054
  29 H :   -0.006224   -0.000371

  Mayer bond orders larger than 0.100000
B(  0-O , 14-C ) :   1.3289 B(  1-O , 15-C ) :   1.4102 B(  2-O , 16-C ) :   1.5341
B(  3-O , 17-C ) :   1.5549 B(  4-N ,  8-C ) :   0.2445 B(  4-N , 10-C ) :   0.3316
B(  4-N , 16-C ) :   1.0331 B(  4-N , 26-H ) :   1.1020 B(  5-N ,  9-C ) :   0.2773
B(  5-N , 10-C ) :   0.1016 B(  5-N , 17-C ) :   1.1605 B(  5-N , 27-H ) :   1.0326
B(  6-N ,  8-C ) :  -0.1288 B(  6-N , 10-C ) :   0.1313 B(  6-N , 14-C ) :   1.0992
B(  6-N , 16-C ) :   0.9326 B(  6-N , 28-H ) :   1.0957 B(  7-N , 11-C ) :   0.1274
B(  7-N , 15-C ) :   0.9464 B(  7-N , 17-C ) :   0.9950 B(  7-N , 29-H ) :   1.0824
B(  8-C ,  9-C ) :   0.1109 B(  8-C , 10-C ) :   0.2666 B(  8-C , 12-C ) :   0.5079
B(  8-C , 14-C ) :   0.8426 B(  8-C , 18-H ) :  -0.1609 B(  8-C , 20-H ) :  -0.1140
B(  9-C , 10-C ) :   0.1010 B(  9-C , 11-C ) :   0.2856 B(  9-C , 13-C ) :   0.4333
B(  9-C , 15-C ) :   0.4495 B( 10-C , 11-C ) :   0.6453 B( 10-C , 14-C ) :  -0.1218
B( 10-C , 16-C ) :  -0.1391 B( 10-C , 18-H ) :   0.6544 B( 11-C , 13-C ) :  -0.1378
B( 11-C , 17-C ) :  -0.2013 B( 11-C , 19-H ) :   0.9186 B( 12-C , 20-H ) :   1.0552
B( 12-C , 21-H ) :   0.8634 B( 12-C , 22-H ) :   0.9202 B( 13-C , 23-H ) :   0.8765
B( 13-C , 24-H ) :   0.9625 B( 13-C , 25-H ) :   0.9605 B( 15-C , 17-C ) :  -0.1160

Dispersion correction           -0.058304653
FINAL SINGLE POINT ENERGY      -908.801230154225

DIPOLE MOMENT
-------------

Method             : TDA/CIS
Type of density    : Electron Density
Level              : Relaxed density
State              :   2
Multiplicity       :   3
Irrep              :   0
Energy             :     0.0000000000000000 Eh
Relativity type    :
Basis              : AO
                                X                 Y                 Z
Electronic contribution:     -2.326622191     -10.042228048      -7.231923182
Nuclear contribution   :      2.124796047      11.703802919      10.036428872
                        -----------------------------------------
Total Dipole Moment    :     -0.201826144       1.661574870       2.804505690
                        -----------------------------------------
Magnitude (a.u.)       :      3.266009340
Magnitude (Debye)      :      8.301536008

Rotational constants in cm-1:             0.019191             0.014697             0.012190
Rotational constants in MHz :           575.317348           440.619022           365.449949

                             ****ORCA TERMINATED NORMALLY****
TOTAL RUN TIME: 0 days 0 hours 21 minutes 31 seconds 397 msec
