                         Program Version 6.0.0  -   RELEASE  -
|  1> ! opt def2-TZVPPD wB97M-D3BJ
|  2> %pal nprocs 8 end%pal nprocs 64 end
|  3> %geom Constraints
|  4> {B 9 8 3.5 C}
|  5> {A 8 9 11 70.57142857142857 C}
|  6> end
|  7> MaxIter 300
|  8> end
|  9> *xyz 0 1
| 10> O   2.98579685529314 0.88758230159078 -0.86184571092411
| 11> O   -0.03983205397054 0.68929041702508 -2.10362336723772
| 12> O   0.93431434349854 -3.13274393337945 -0.68767288184107
| 13> O   -3.75829998830163 -0.84727300865116 -0.0472717177755
| 14> N   0.21184538946282 -1.54604804365365 0.7617588924445
| 15> N   -2.13631993928911 0.03188773433438 1.27350571071531
| 16> N   2.02598672506387 -1.14318467211666 -0.64531219127023
| 17> N   -1.91814233924584 0.03137116037665 -1.04498946748291
| 18> C   1.18097737274226 0.71693507080484 0.70173889017321
| 19> C   -0.20686880480777 1.27024627933494 0.21345042231937
| 20> C   0.41441080275909 -0.34173258966541 1.52336266615173
| 21> C   -0.82922175114212 0.58960593673968 1.44434972027296
| 22> C   1.92822011286806 1.69488653817281 1.5963734975385
| 23> C   -0.37809776891576 2.77134929626422 0.04819649358288
| 24> C   2.1403947470937 0.1972384729179 -0.35038567829864
| 25> C   -0.67361678962426 0.6214190571346 -1.0793014500539
| 26> C   1.04142578622994 -2.02697492875068 -0.21027082435993
| 27> C   -2.68467002550422 -0.30396816036989 0.07167054343891
| 28> H   0.80817443950001 -0.54572267081061 2.51895215321335
| 29> H   -0.83785272399001 1.27240685039143 2.28901317073582
| 30> H   2.31167340578204 2.52284411740894 1.00913016264629
| 31> H   1.28982602448342 2.08257620823614 2.38710022492991
| 32> H   2.77390820759972 1.19140411795486 2.06045858523949
| 33> H   -1.41857211141493 3.00964947214868 -0.16882755561625
| 34> H   -0.09065531563179 3.29799318042223 0.95389844358819
| 35> H   0.23426221611057 3.12492645074476 -0.77764887675592
| 36> H   -0.46772570547622 -2.21560145172536 1.0787081584806
| 37> H   -2.71769301149571 -0.17090724573546 2.06627440900372
| 38> H   2.60065167263658 -1.49057255715425 -1.3966820077142
| 39> H   -2.27169977231386 -0.32388339999036 -1.91951041514436
| 40> *
| 41>
| 42>                          ****END OF INPUT****
 Total Charge           Charge          ....    0
 Multiplicity           Mult            ....    1
 Number of Electrons    NEL             ....  132
Dispersion correction           -0.051135173
FINAL SINGLE POINT ENERGY      -908.576949545423
Dispersion correction             ... done (  0.2 sec)
Dispersion correction           -0.051925063
FINAL SINGLE POINT ENERGY      -908.637997354969
Dispersion correction             ... done (  0.2 sec)
Dispersion correction           -0.052685424
FINAL SINGLE POINT ENERGY      -908.692283140056
Dispersion correction             ... done (  0.2 sec)
FINAL SINGLE POINT ENERGY      -908.758728864206
FINAL SINGLE POINT ENERGY      -908.812227834308
FINAL SINGLE POINT ENERGY      -908.846391821132
FINAL SINGLE POINT ENERGY      -908.868484736561
FINAL SINGLE POINT ENERGY      -908.892424649410
FINAL SINGLE POINT ENERGY      -908.907669816776
FINAL SINGLE POINT ENERGY      -908.916113082097
FINAL SINGLE POINT ENERGY      -908.935329031893
FINAL SINGLE POINT ENERGY      -908.935445251741
FINAL SINGLE POINT ENERGY      -908.935558001608
FINAL SINGLE POINT ENERGY      -908.935637072205
FINAL SINGLE POINT ENERGY      -908.935676062128
FINAL SINGLE POINT ENERGY      -908.935689579007
FINAL SINGLE POINT ENERGY      -908.935695541142
Dispersion correction             ... done (  0.2 sec)
Dispersion correction           -0.059181812
FINAL SINGLE POINT ENERGY      -908.935698773949
Dispersion correction             ... done (  0.1 sec)
Dispersion correction           -0.059169072
FINAL SINGLE POINT ENERGY      -908.935700016712
Dispersion correction             ... done (  0.1 sec)
                    ***********************HURRAY********************

CARTESIAN COORDINATES (ANGSTROEM)
---------------------------------
  O      2.485467    1.256214   -0.333568
  O     -0.797825    0.822274   -2.401643
  O      0.553717   -2.660116   -1.588000
  O     -2.436064   -1.544749    1.115997
  N      0.614203   -2.134020    0.625884
  N     -1.848396    0.630953    1.435027
  N      1.608552   -0.748428   -0.922711
  N     -1.675146   -0.313993   -0.651046
  C      1.464899   -0.036639    1.373717
  C     -0.881783    1.941577   -0.308468
  C      0.848246   -1.201398    1.608079
  C     -1.262532    1.784898    0.964110
  C      1.744409    0.988129    2.423766
  C     -0.225981    3.172819   -0.842355
  C      1.909541    0.244235    0.007952
  C     -1.097683    0.823227   -1.229023
  C      0.900865   -1.910801   -0.703228
  C     -2.026052   -0.494383    0.665697
  H      0.487115   -1.474414    2.588083
  H     -1.136725    2.565459    1.698790
  H      1.342993    1.955653    2.127228
  H      1.308277    0.696716    3.376998
  H      2.815955    1.124954    2.557577
  H     -0.775865    3.557164   -1.698805
  H     -0.175927    3.944415   -0.077464
  H      0.784861    2.943907   -1.173638
  H     -0.006965   -2.904176    0.804701
  H     -2.092517    0.534127    2.403444
  H      1.796494   -0.529707   -1.889404
  H     -1.773533   -1.118894   -1.253097

 Multiplicity           Mult            ....    1
 Number of Electrons    NEL             ....  132
 Basis Dimension        Dim             ....  882

ORBITAL ENERGIES
----------------

  NO   OCC          E(Eh)            E(eV)
   0   2.0000     -19.328651      -525.9593
   1   2.0000     -19.323306      -525.8139
   2   2.0000     -19.320943      -525.7496
   3   2.0000     -19.319756      -525.7173
   4   2.0000     -14.584791      -396.8723
   5   2.0000     -14.575536      -396.6205
   6   2.0000     -14.570809      -396.4919
   7   2.0000     -14.564459      -396.3191
   8   2.0000     -10.515193      -286.1329
   9   2.0000     -10.506520      -285.8970
  10   2.0000     -10.478663      -285.1389
  11   2.0000     -10.476537      -285.0811
  12   2.0000     -10.430871      -283.8384
  13   2.0000     -10.429702      -283.8066
  14   2.0000     -10.379457      -282.4394
  15   2.0000     -10.378872      -282.4235
  16   2.0000     -10.362239      -281.9708
  17   2.0000     -10.348026      -281.5841
  18   2.0000      -1.228017       -33.4160
  19   2.0000      -1.219776       -33.1918
  20   2.0000      -1.194013       -32.4908
  21   2.0000      -1.189925       -32.3795
  22   2.0000      -1.123652       -30.5761
  23   2.0000      -1.117139       -30.3989
  24   2.0000      -1.070232       -29.1225
  25   2.0000      -1.064556       -28.9680
  26   2.0000      -0.957255       -26.0482
  27   2.0000      -0.954730       -25.9795
  28   2.0000      -0.849323       -23.1113
  29   2.0000      -0.844954       -22.9924
  30   2.0000      -0.810178       -22.0461
  31   2.0000      -0.807586       -21.9755
  32   2.0000      -0.794719       -21.6254
  33   2.0000      -0.788372       -21.4527
  34   2.0000      -0.695217       -18.9178
  35   2.0000      -0.692504       -18.8440
  36   2.0000      -0.691175       -18.8078
  37   2.0000      -0.687993       -18.7213
  38   2.0000      -0.642448       -17.4819
  39   2.0000      -0.638192       -17.3661
  40   2.0000      -0.634899       -17.2765
  41   2.0000      -0.597449       -16.2574
  42   2.0000      -0.595691       -16.2096
  43   2.0000      -0.592050       -16.1105
  44   2.0000      -0.568412       -15.4673
  45   2.0000      -0.561984       -15.2924
  46   2.0000      -0.560157       -15.2426
  47   2.0000      -0.550936       -14.9917
  48   2.0000      -0.549745       -14.9593
  49   2.0000      -0.547348       -14.8941
  50   2.0000      -0.520090       -14.1524
  51   2.0000      -0.516093       -14.0436
  52   2.0000      -0.514403       -13.9976
  53   2.0000      -0.513337       -13.9686
  54   2.0000      -0.505634       -13.7590
  55   2.0000      -0.495897       -13.4940
  56   2.0000      -0.479238       -13.0407
  57   2.0000      -0.470785       -12.8107
  58   2.0000      -0.420777       -11.4499
  59   2.0000      -0.412924       -11.2362
  60   2.0000      -0.404899       -11.0179
  61   2.0000      -0.396984       -10.8025
  62   2.0000      -0.387330       -10.5398
  63   2.0000      -0.384311       -10.4576
  64   2.0000      -0.346955        -9.4411
  65   2.0000      -0.343988        -9.3604
  66   0.0000       0.011191         0.3045
  67   0.0000       0.020594         0.5604
  68   0.0000       0.023907         0.6505
  69   0.0000       0.033650         0.9157
  70   0.0000       0.040881         1.1124

MULLIKEN ATOMIC CHARGES
-----------------------
   0 O :   -0.680425
   1 O :   -0.660041
   2 O :   -0.642830
   3 O :   -0.670842
   4 N :   -0.039543
   5 N :    0.022334
   6 N :    0.049014
   7 N :    0.056597
   8 C :    0.766265
   9 C :    0.843235
  10 C :    0.094248
  11 C :   -0.241764
  12 C :   -1.460051
  13 C :   -1.360069
  14 C :    0.371694
  15 C :    0.461836
  16 C :    0.336325
  17 C :    0.437262
  18 H :    0.140783
  19 H :    0.168392
  20 H :    0.243570
  21 H :    0.337756
  22 H :    0.361275
  23 H :    0.341274
  24 H :    0.333710
  25 H :    0.226494
  26 H :    0.057083
  27 H :    0.025100
  28 H :    0.044572
  29 H :    0.036743
Sum of atomic charges:   -0.0000000

LOEWDIN ATOMIC CHARGES
----------------------
   0 O :    0.087754
   1 O :    0.102258
   2 O :    0.087407
   3 O :    0.070761
   4 N :    0.279131
   5 N :    0.282555
   6 N :    0.344283
   7 N :    0.345890
   8 C :   -0.142950
   9 C :   -0.133277
  10 C :    0.045305
  11 C :    0.044017
  12 C :    0.174537
  13 C :    0.184300
  14 C :   -0.395789
  15 C :   -0.393026
  16 C :   -0.486071
  17 C :   -0.490086
  18 H :    0.041255
  19 H :    0.036379
  20 H :   -0.014486
  21 H :   -0.005707
  22 H :    0.002454
  23 H :    0.000727
  24 H :   -0.004693
  25 H :   -0.012976
  26 H :   -0.019560
  27 H :   -0.019305
  28 H :   -0.002998
  29 H :   -0.008091

  Mayer bond orders larger than 0.100000
B(  0-O , 14-C ) :   1.4593 B(  1-O , 15-C ) :   1.4672 B(  2-O , 16-C ) :   1.5681
B(  3-O , 17-C ) :   1.5298 B(  4-N , 10-C ) :   0.8494 B(  4-N , 16-C ) :   1.0195
B(  4-N , 26-H ) :   1.1106 B(  5-N , 11-C ) :   0.9559 B(  5-N , 17-C ) :   1.0281
B(  5-N , 27-H ) :   1.1248 B(  6-N , 14-C ) :   1.0097 B(  6-N , 16-C ) :   0.9079
B(  6-N , 28-H ) :   1.1043 B(  7-N , 15-C ) :   0.9570 B(  7-N , 16-C ) :   0.1151
B(  7-N , 17-C ) :   0.9514 B(  7-N , 29-H ) :   1.1146 B(  8-C , 10-C ) :   1.1484
B(  8-C , 12-C ) :   0.3263 B(  8-C , 14-C ) :   0.7598 B(  9-C , 11-C ) :   1.1903
B(  9-C , 13-C ) :   0.3396 B(  9-C , 15-C ) :   0.7532 B(  9-C , 19-H ) :  -0.1091
B( 10-C , 12-C ) :  -0.1466 B( 10-C , 18-H ) :   1.1378 B( 11-C , 13-C ) :  -0.1318
B( 11-C , 15-C ) :  -0.1016 B( 11-C , 19-H ) :   1.1382 B( 12-C , 20-H ) :   1.0007
B( 12-C , 21-H ) :   0.9995 B( 12-C , 22-H ) :   0.9242 B( 13-C , 23-H ) :   0.9286
B( 13-C , 24-H ) :   1.0104 B( 13-C , 25-H ) :   0.9893

Dispersion correction           -0.059175953
FINAL SINGLE POINT ENERGY      -908.935700454138

DIPOLE MOMENT
-------------

Method             : SCF
Type of density    : Electron Density
Multiplicity       :   1
Irrep              :   0
Energy             :  -908.8765245006965188 Eh
Relativity type    :
Basis              : AO
                                X                 Y                 Z
Electronic contribution:     -2.882901347      -9.542779698      -5.777879927
Nuclear contribution   :      2.505597518      10.316231174       8.267280518
                        -----------------------------------------
Total Dipole Moment    :     -0.377303829       0.773451476       2.489400592
                        -----------------------------------------
Magnitude (a.u.)       :      2.633951532
Magnitude (Debye)      :      6.694972735

Rotational constants in cm-1:             0.016975             0.015886             0.014078
Rotational constants in MHz :           508.884544           476.247090           422.055201

                             ****ORCA TERMINATED NORMALLY****
TOTAL RUN TIME: 0 days 1 hours 8 minutes 37 seconds 658 msec
