                         Program Version 6.0.0  -   RELEASE  -
|  1> ! Opt wB97M-D3BJ def2-TZVPPD
|  2> %pal nprocs 8 end %pal nprocs 64 end
|  3> %geom
|  4> Constraints
|  5>     {A 2 1 0 86.36363636363636 C }
|  6> end
|  7> MaxIter 500
|  8> end
|  9> *xyz 0 1
| 10> O   -0.0007 0.8141 0.0
| 11> C   0.7509 -0.4065 0.0
| 12> C   -0.7502 -0.4076 0.0
| 13> H   1.2625 -0.6786 0.9136
| 14> H   1.2625 -0.6787 -0.9136
| 15> H   -1.2614 -0.6806 -0.9136
| 16> H   -1.2614 -0.6805 0.9136
| 17> *
| 18>
| 19>                          ****END OF INPUT****
 Total Charge           Charge          ....    0
 Multiplicity           Mult            ....    1
 Number of Electrons    NEL             ....   24
Dispersion correction           -0.005495935
FINAL SINGLE POINT ENERGY      -153.812223815446
Dispersion correction             ... done (  0.1 sec)
Dispersion correction           -0.005536981
FINAL SINGLE POINT ENERGY      -153.827797703342
Dispersion correction             ... done (  0.1 sec)
Dispersion correction           -0.005559195
FINAL SINGLE POINT ENERGY      -153.833140807620
Dispersion correction             ... done (  0.2 sec)
FINAL SINGLE POINT ENERGY      -153.834643420438
FINAL SINGLE POINT ENERGY      -153.835007963654
FINAL SINGLE POINT ENERGY      -153.835134894598
FINAL SINGLE POINT ENERGY      -153.835182117445
FINAL SINGLE POINT ENERGY      -153.835200822205
Dispersion correction             ... done (  0.2 sec)
Dispersion correction           -0.005579091
FINAL SINGLE POINT ENERGY      -153.835210451192
Dispersion correction             ... done (  0.1 sec)
Dispersion correction           -0.005579167
FINAL SINGLE POINT ENERGY      -153.835214229709
Dispersion correction             ... done (  0.1 sec)
                    ***********************HURRAY********************

CARTESIAN COORDINATES (ANGSTROEM)
---------------------------------
  O      0.249579    0.954399   -0.001649
  C      0.646099   -0.329110   -0.000348
  C     -0.734930   -0.661465    0.000405
  H      1.203594   -0.642242    0.889912
  H      1.203897   -0.643694   -0.889849
  H     -1.283535   -0.699568   -0.926843
  H     -1.282505   -0.696719    0.928373

 Multiplicity           Mult            ....    1
 Number of Electrons    NEL             ....   24
 Basis Dimension        Dim             ....  182

ORBITAL ENERGIES
----------------

  NO   OCC          E(Eh)            E(eV)
   0   2.0000     -19.339613      -526.2576
   1   2.0000     -10.426381      -283.7163
   2   2.0000     -10.396782      -282.9108
   3   2.0000      -1.150467       -31.3058
   4   2.0000      -0.861367       -23.4390
   5   2.0000      -0.735885       -20.0245
   6   2.0000      -0.625882       -17.0311
   7   2.0000      -0.581910       -15.8346
   8   2.0000      -0.512663       -13.9503
   9   2.0000      -0.505207       -13.7474
  10   2.0000      -0.391800       -10.6614
  11   2.0000      -0.365881        -9.9561
  12   0.0000      -0.003774        -0.1027
  13   0.0000       0.041265         1.1229
  14   0.0000       0.060734         1.6526
  15   0.0000       0.076661         2.0861
  16   0.0000       0.098781         2.6880

MULLIKEN ATOMIC CHARGES
-----------------------
   0 O :   -0.471851
   1 C :   -0.083293
   2 C :   -0.309553
   3 H :    0.215743
   4 H :    0.215827
   5 H :    0.216524
   6 H :    0.216603
Sum of atomic charges:   -0.0000000

LOEWDIN ATOMIC CHARGES
----------------------
   0 O :   -0.018978
   1 C :   -0.326855
   2 C :    0.307888
   3 H :    0.024710
   4 H :    0.024711
   5 H :   -0.005734
   6 H :   -0.005741

  Mayer bond orders larger than 0.100000
B(  0-O ,  1-C ) :   0.6679 B(  0-O ,  2-C ) :   0.9480 B(  1-C ,  2-C ) :   0.7667
B(  1-C ,  3-H ) :   1.0500 B(  1-C ,  4-H ) :   1.0498 B(  2-C ,  5-H ) :   0.9647
B(  2-C ,  6-H ) :   0.9647

Dispersion correction           -0.005578955
FINAL SINGLE POINT ENERGY      -153.835215152908

DIPOLE MOMENT
-------------

Method             : SCF
Type of density    : Electron Density
Multiplicity       :   1
Irrep              :   0
Energy             :  -153.8296361983073837 Eh
Relativity type    :
Basis              : AO
                                X                 Y                 Z
Electronic contribution:      0.048884780       1.447120749      -0.002216134
Nuclear contribution   :     -0.381630377      -2.559408825       0.003530825
                        -----------------------------------------
Total Dipole Moment    :     -0.332745597      -1.112288077       0.001314692
                        -----------------------------------------
Magnitude (a.u.)       :      1.160993594
Magnitude (Debye)      :      2.951011196

Rotational constants in cm-1:             1.024085             0.531781             0.406216
Rotational constants in MHz :         30701.282725         15942.401396         12178.036799

                             ****ORCA TERMINATED NORMALLY****
TOTAL RUN TIME: 0 days 0 hours 2 minutes 30 seconds 313 msec
