                         Program Version 6.0.0  -   RELEASE  -
|  1> ! Engrad def2-TZVPPD wB97M-D3BJ
|  2> %pal nprocs 8 end%pal nprocs 32 end
|  3>  %tddft nroots 2 Iroot 2
|  4> sf true
|  5> end
|  6> *xyz 0 3
|  7> O   3.38496559557168 0.40700000570617 -0.70602622644166
|  8> O   -0.81710847092072 1.36989681985225 -2.45704968430023
|  9> O   0.41955080537578 -2.94893880556131 -0.58765432252202
| 10> O   -3.05183961980919 -1.72923074384794 -0.1131166090054
| 11> N   0.32357169508517 -1.40935222422431 1.07931302539054
| 12> N   -2.10454306842539 -0.01651953488306 1.0518224768746
| 13> N   1.62975209318622 -1.0348749539155 -0.80514862804919
| 14> N   -1.5665271160727 -0.3627677528871 -1.17998662964111
| 15> C   1.84153366568664 0.45537280604841 1.06929651827705
| 16> C   -0.88020029635716 1.6581655376497 -0.10775656046014
| 17> C   0.41030487354049 -0.0353476540255 1.51653665097437
| 18> C   -0.94276159910186 0.82231606339232 1.17365766984724
| 19> C   2.62338150392515 1.34367195921432 1.9402480550716
| 20> C   -0.91104636333761 3.12749978196278 -0.0839367981695
| 21> C   2.36339136338994 -0.01833038236269 -0.19369316837887
| 22> C   -1.06200654501126 0.92612130615342 -1.35252769231472
| 23> C   0.75461070022159 -1.87662357019629 -0.13990218152481
| 24> C   -2.29951127655971 -0.78751396508267 -0.07224387861071
| 25> H   0.42996866531437 -0.0673041986416 2.60930389184042
| 26> H   -1.0952078169674 1.49884567273827 2.01146411233236
| 27> H   3.59163120063304 1.55546835784798 1.49847356447401
| 28> H   2.09950109003949 2.28824188490487 2.12046989435462
| 29> H   2.7609917666133 0.88251534581966 2.92473467630969
| 30> H   -1.89579818628576 3.47577583784528 0.2546750454825
| 31> H   -0.1807418791121 3.53175785450564 0.6187796217035
| 32> H   -0.73352423619383 3.52573482973581 -1.07840960607027
| 33> H   -0.3213367558573 -2.03509840586137 1.53052717393937
| 34> H   -2.61451687992304 -0.32533327611904 1.86096524987388
| 35> H   2.01217396504549 -1.40209030648393 -1.66109387530211
| 36> H   -1.71605887369333 -0.90405828928456 -2.017121765955
| 37> *
| 38>
| 39>                          ****END OF INPUT****

CARTESIAN COORDINATES (ANGSTROEM)
---------------------------------
  O      3.384966    0.407000   -0.706026
  O     -0.817108    1.369897   -2.457050
  O      0.419551   -2.948939   -0.587654
  O     -3.051840   -1.729231   -0.113117
  N      0.323572   -1.409352    1.079313
  N     -2.104543   -0.016520    1.051822
  N      1.629752   -1.034875   -0.805149
  N     -1.566527   -0.362768   -1.179987
  C      1.841534    0.455373    1.069297
  C     -0.880200    1.658166   -0.107757
  C      0.410305   -0.035348    1.516537
  C     -0.942762    0.822316    1.173658
  C      2.623382    1.343672    1.940248
  C     -0.911046    3.127500   -0.083937
  C      2.363391   -0.018330   -0.193693
  C     -1.062007    0.926121   -1.352528
  C      0.754611   -1.876624   -0.139902
  C     -2.299511   -0.787514   -0.072244
  H      0.429969   -0.067304    2.609304
  H     -1.095208    1.498846    2.011464
  H      3.591631    1.555468    1.498474
  H      2.099501    2.288242    2.120470
  H      2.760992    0.882515    2.924735
  H     -1.895798    3.475776    0.254675
  H     -0.180742    3.531758    0.618780
  H     -0.733524    3.525735   -1.078410
  H     -0.321337   -2.035098    1.530527
  H     -2.614517   -0.325333    1.860965
  H      2.012174   -1.402090   -1.661094
  H     -1.716059   -0.904058   -2.017122

 Total Charge           Charge          ....    0
 Multiplicity           Mult            ....    3
 Number of Electrons    NEL             ....  132
 Basis Dimension        Dim             ....  882

ORBITAL ENERGIES
----------------
                 SPIN UP ORBITALS
  NO   OCC          E(Eh)            E(eV)
   0   1.0000     -19.333697      -526.0966
   1   1.0000     -19.332429      -526.0621
   2   1.0000     -19.320569      -525.7394
   3   1.0000     -19.314267      -525.5679
   4   1.0000     -14.563289      -396.2872
   5   1.0000     -14.557939      -396.1417
   6   1.0000     -14.557741      -396.1363
   7   1.0000     -14.554845      -396.0575
   8   1.0000     -10.503830      -285.8238
   9   1.0000     -10.499216      -285.6982
  10   1.0000     -10.479040      -285.1492
  11   1.0000     -10.477609      -285.1102
  12   1.0000     -10.448659      -284.3225
  13   1.0000     -10.446864      -284.2736
  14   1.0000     -10.423697      -283.6432
  15   1.0000     -10.414018      -283.3798
  16   1.0000     -10.374639      -282.3083
  17   1.0000     -10.372681      -282.2550
  18   1.0000      -1.220433       -33.2097
  19   1.0000      -1.214540       -33.0493
  20   1.0000      -1.195891       -32.5418
  21   1.0000      -1.193789       -32.4847
  22   1.0000      -1.116555       -30.3830
  23   1.0000      -1.095768       -29.8174
  24   1.0000      -1.063476       -28.9387
  25   1.0000      -1.053316       -28.6622
  26   1.0000      -0.968965       -26.3669
  27   1.0000      -0.953291       -25.9404
  28   1.0000      -0.884588       -24.0709
  29   1.0000      -0.838687       -22.8218
  30   1.0000      -0.826848       -22.4997
  31   1.0000      -0.802988       -21.8504
  32   1.0000      -0.782019       -21.2798
  33   1.0000      -0.775634       -21.1061
  34   1.0000      -0.696631       -18.9563
  35   1.0000      -0.692162       -18.8347
  36   1.0000      -0.680063       -18.5055
  37   1.0000      -0.660102       -17.9623
  38   1.0000      -0.652609       -17.7584
  39   1.0000      -0.644244       -17.5308
  40   1.0000      -0.617044       -16.7906
  41   1.0000      -0.601961       -16.3802
  42   1.0000      -0.591277       -16.0895
  43   1.0000      -0.584730       -15.9113
  44   1.0000      -0.574704       -15.6385
  45   1.0000      -0.570100       -15.5132
  46   1.0000      -0.563160       -15.3244
  47   1.0000      -0.558143       -15.1878
  48   1.0000      -0.556850       -15.1527
  49   1.0000      -0.552633       -15.0379
  50   1.0000      -0.544765       -14.8238
  51   1.0000      -0.543089       -14.7782
  52   1.0000      -0.533955       -14.5297
  53   1.0000      -0.521199       -14.1825
  54   1.0000      -0.515939       -14.0394
  55   1.0000      -0.505659       -13.7597
  56   1.0000      -0.487580       -13.2677
  57   1.0000      -0.420230       -11.4350
  58   1.0000      -0.418176       -11.3791
  59   1.0000      -0.411332       -11.1929
  60   1.0000      -0.403023       -10.9668
  61   1.0000      -0.397225       -10.8091
  62   1.0000      -0.390995       -10.6395
  63   1.0000      -0.388316       -10.5666
  64   1.0000      -0.378959       -10.3120
  65   1.0000      -0.340555        -9.2670
  66   1.0000      -0.331897        -9.0314
  67   0.0000       0.005399         0.1469
  68   0.0000       0.027395         0.7455
  69   0.0000       0.031690         0.8623
  70   0.0000       0.039034         1.0622
  71   0.0000       0.056185         1.5289

                 SPIN DOWN ORBITALS
  NO   OCC          E(Eh)            E(eV)
   0   1.0000     -19.328823      -525.9640
   1   1.0000     -19.328102      -525.9444
   2   1.0000     -19.320321      -525.7327
   3   1.0000     -19.314051      -525.5620
   4   1.0000     -14.562562      -396.2675
   5   1.0000     -14.557669      -396.1343
   6   1.0000     -14.557419      -396.1275
   7   1.0000     -14.554405      -396.0455
   8   1.0000     -10.503846      -285.8242
   9   1.0000     -10.499235      -285.6987
  10   1.0000     -10.480146      -285.1793
  11   1.0000     -10.478643      -285.1384
  12   1.0000     -10.448730      -284.3244
  13   1.0000     -10.446827      -284.2726
  14   1.0000     -10.412162      -283.3293
  15   1.0000     -10.402303      -283.0611
  16   1.0000     -10.375231      -282.3244
  17   1.0000     -10.373253      -282.2706
  18   1.0000      -1.218844       -33.1664
  19   1.0000      -1.212358       -32.9899
  20   1.0000      -1.190564       -32.3969
  21   1.0000      -1.188509       -32.3410
  22   1.0000      -1.114148       -30.3175
  23   1.0000      -1.093410       -29.7532
  24   1.0000      -1.061829       -28.8938
  25   1.0000      -1.051838       -28.6220
  26   1.0000      -0.954477       -25.9726
  27   1.0000      -0.936459       -25.4824
  28   1.0000      -0.880657       -23.9639
  29   1.0000      -0.833320       -22.6758
  30   1.0000      -0.818138       -22.2627
  31   1.0000      -0.797879       -21.7114
  32   1.0000      -0.780756       -21.2455
  33   1.0000      -0.774093       -21.0641
  34   1.0000      -0.690275       -18.7833
  35   1.0000      -0.685698       -18.6588
  36   1.0000      -0.674924       -18.3656
  37   1.0000      -0.653482       -17.7822
  38   1.0000      -0.643320       -17.5056
  39   1.0000      -0.640148       -17.4193
  40   1.0000      -0.614432       -16.7196
  41   1.0000      -0.597522       -16.2594
  42   1.0000      -0.582921       -15.8621
  43   1.0000      -0.575759       -15.6672
  44   1.0000      -0.567277       -15.4364
  45   1.0000      -0.562556       -15.3079
  46   1.0000      -0.557157       -15.1610
  47   1.0000      -0.554212       -15.0809
  48   1.0000      -0.547476       -14.8976
  49   1.0000      -0.543412       -14.7870
  50   1.0000      -0.539586       -14.6829
  51   1.0000      -0.535958       -14.5842
  52   1.0000      -0.527946       -14.3661
  53   1.0000      -0.510723       -13.8975
  54   1.0000      -0.505583       -13.7576
  55   1.0000      -0.500274       -13.6132
  56   1.0000      -0.481646       -13.1062
  57   1.0000      -0.416504       -11.3336
  58   1.0000      -0.413968       -11.2646
  59   1.0000      -0.404302       -11.0016
  60   1.0000      -0.390592       -10.6285
  61   1.0000      -0.385891       -10.5006
  62   1.0000      -0.385205       -10.4820
  63   1.0000      -0.383053       -10.4234
  64   1.0000      -0.372654       -10.1404
  65   0.0000      -0.059718        -1.6250
  66   0.0000      -0.044821        -1.2197
  67   0.0000       0.005092         0.1385
  68   0.0000       0.027274         0.7422
  69   0.0000       0.031469         0.8563

----------------------------------------------------------------------------------------------------
          SPIN FLIP ABSORPTION SPECTRUM VIA TRANSITION ELECTRIC DIPOLE MOMENTS
----------------------------------------------------------------------------------------------------
     Transition      Energy     Energy  Wavelength fosc(D2)      D2        DX        DY        DZ
                      (eV)      (cm-1)    (nm)                 (au**2)    (au)      (au)      (au)
----------------------------------------------------------------------------------------------------
  1-3A  ->  2-3A    0.018772     151.4  66047.0   0.000000096   0.00021  -0.00472   0.01111  -0.00792

Dispersion correction             ... done (  0.1 sec)

MULLIKEN ATOMIC CHARGES AND SPIN DENSITIES
------------------------------------------
   0 O :   -0.666128    0.102907
   1 O :   -0.680517   -0.090632
   2 O :   -0.655405    0.004404
   3 O :   -0.637194   -0.003655
   4 N :   -0.293202    0.015091
   5 N :   -0.315987   -0.004867
   6 N :    0.084288    0.001078
   7 N :    0.058809   -0.001404
   8 C :    0.159242    0.409028
   9 C :    1.089837    0.466507
  10 C :    0.140869   -0.040100
  11 C :    0.269319   -0.418825
  12 C :   -1.318023    0.008555
  13 C :   -1.395692    0.041579
  14 C :    0.398153   -0.021366
  15 C :   -0.217588   -0.535361
  16 C :    0.379512   -0.002904
  17 C :    0.377253    0.025491
  18 H :    0.632676    0.016371
  19 H :    0.464637   -0.015472
  20 H :    0.312665    0.004519
  21 H :    0.267295    0.012438
  22 H :    0.311033    0.018223
  23 H :    0.353396   -0.001961
  24 H :    0.323311    0.024349
  25 H :    0.334207   -0.019193
  26 H :    0.067653    0.000943
  27 H :    0.084156    0.000767
  28 H :    0.040300    0.001249
  29 H :    0.031123    0.002238
Sum of atomic charges       :   -0.0000000

LOEWDIN ATOMIC CHARGES AND SPIN DENSITIES
-----------------------------------------
   0 O :    0.093030    0.090834
   1 O :    0.088959   -0.085809
   2 O :    0.092767    0.004555
   3 O :    0.100066   -0.002905
   4 N :    0.259514    0.004459
   5 N :    0.267178   -0.009704
   6 N :    0.327079    0.003311
   7 N :    0.323136   -0.007987
   8 C :    0.003403    0.303547
   9 C :   -0.000709   -0.281941
  10 C :   -0.051988    0.007740
  11 C :   -0.086628   -0.017652
  12 C :    0.179013    0.048179
  13 C :    0.184169   -0.048229
  14 C :   -0.402232    0.045187
  15 C :   -0.420245   -0.052878
  16 C :   -0.499426   -0.000003
  17 C :   -0.490844   -0.000706
  18 H :    0.037319   -0.000115
  19 H :    0.043125    0.000426
  20 H :   -0.004887   -0.000720
  21 H :    0.004183    0.013453
  22 H :    0.009147    0.013074
  23 H :    0.019270   -0.016693
  24 H :   -0.000180   -0.008240
  25 H :    0.000033   -0.000196
  26 H :   -0.029226    0.000534
  27 H :   -0.028380   -0.001088
  28 H :   -0.010245    0.000244
  29 H :   -0.006402   -0.000677

  Mayer bond orders larger than 0.100000
B(  0-O , 14-C ) :   1.3717 B(  1-O , 15-C ) :   1.3905 B(  2-O , 16-C ) :   1.5234
B(  3-O , 17-C ) :   1.5434 B(  4-N ,  8-C ) :   0.2592 B(  4-N , 10-C ) :   0.2634
B(  4-N , 16-C ) :   1.0228 B(  4-N , 26-H ) :   1.0958 B(  5-N ,  9-C ) :   0.2821
B(  5-N , 17-C ) :   1.1347 B(  5-N , 27-H ) :   1.0411 B(  6-N ,  8-C ) :  -0.1147
B(  6-N , 10-C ) :   0.1095 B(  6-N , 14-C ) :   1.0926 B(  6-N , 16-C ) :   0.9742
B(  6-N , 28-H ) :   1.0742 B(  7-N , 11-C ) :   0.1213 B(  7-N , 15-C ) :   0.9276
B(  7-N , 17-C ) :   0.9861 B(  7-N , 29-H ) :   1.0846 B(  8-C , 12-C ) :   0.5209
B(  8-C , 14-C ) :   0.8199 B(  8-C , 16-C ) :   0.1109 B(  8-C , 18-H ) :  -0.1434
B(  8-C , 20-H ) :  -0.1173 B(  9-C , 10-C ) :   0.1419 B(  9-C , 11-C ) :   0.1935
B(  9-C , 13-C ) :   0.4938 B(  9-C , 15-C ) :   0.3202 B(  9-C , 25-H ) :  -0.1005
B( 10-C , 11-C ) :   0.6501 B( 10-C , 16-C ) :  -0.1345 B( 10-C , 18-H ) :   0.6728
B( 11-C , 13-C ) :  -0.1225 B( 11-C , 17-C ) :  -0.1900 B( 11-C , 19-H ) :   0.9086
B( 12-C , 20-H ) :   1.0057 B( 12-C , 21-H ) :   0.9332 B( 12-C , 22-H ) :   0.9149
B( 13-C , 23-H ) :   0.8861 B( 13-C , 24-H ) :   0.9033 B( 13-C , 25-H ) :   0.9740
B( 15-C , 17-C ) :  -0.1235

Dispersion correction           -0.057407629
FINAL SINGLE POINT ENERGY      -908.793200040279

DIPOLE MOMENT
-------------

Method             : TDA/CIS
Type of density    : Electron Density
Level              : Relaxed density
State              :   2
Multiplicity       :   3
Irrep              :   0
Energy             :     0.0000000000000000 Eh
Relativity type    :
Basis              : AO
                                X                 Y                 Z
Electronic contribution:     -2.384233768      -9.792714436      -7.301742667
Nuclear contribution   :      2.179589846      11.510325352      10.135395798
                        -----------------------------------------
Total Dipole Moment    :     -0.204643922       1.717610916       2.833653132
                        -----------------------------------------
Magnitude (a.u.)       :      3.319888020
Magnitude (Debye)      :      8.438484729

Rotational constants in cm-1:             0.019108             0.014369             0.011975
Rotational constants in MHz :           572.838020           430.757714           359.003460

                             ****ORCA TERMINATED NORMALLY****
TOTAL RUN TIME: 0 days 0 hours 5 minutes 28 seconds 471 msec
