                         Program Version 6.0.0  -   RELEASE  -
|  1> ! Engrad def2-TZVPPD wB97M-D3BJ
|  2> %pal nprocs 8 end%pal nprocs 32 end
|  3>  %tddft nroots 2 Iroot 2
|  4> sf true
|  5> end
|  6> *xyz 0 3
|  7> O   3.72978541990016 0.63909623961042 0.31246318949221
|  8> O   -1.4231755009928 0.68011164874635 -2.54859489678062
|  9> O   1.13526637484742 -2.57149577219248 -1.57309652340468
| 10> O   -3.78620390246214 -0.64499714070931 1.01227754420689
| 11> N   0.29418900419692 -1.43654400369561 0.19779257568483
| 12> N   -1.90706118995154 0.59466777572148 1.39817069101707
| 13> N   2.44619743065148 -1.01313064327252 -0.56687596791271
| 14> N   -2.32524259579694 -0.30998950665605 -0.70372758864776
| 15> C   1.61030377287192 0.29220867172611 1.27836460875134
| 16> C   -0.63052139100275 1.35185162600334 -0.41156419169844
| 17> C   0.35170586565154 -0.43781712539929 1.22452542825185
| 18> C   -0.46998575322947 0.79420569547641 0.98596327801469
| 19> C   1.95410849938293 1.18619791351167 2.40675518389169
| 20> C   -0.48072897738937 2.79789062781972 -0.67668706736989
| 21> C   2.67839390530248 0.02342277902711 0.32155322823651
| 22> C   -1.43811971018799 0.56020026675875 -1.34395761658199
| 23> C   1.27084221018278 -1.73546956158684 -0.71048376596911
| 24> C   -2.75073688484554 -0.15388674403688 0.62348272563818
| 25> H   0.0995609417426 -0.87412024017529 2.19781067074404
| 26> H   -0.13796315143875 1.60519429292044 1.61897497576729
| 27> H   2.0091681881735 2.23048126716549 2.08626402439572
| 28> H   1.24056136544265 1.10746979229371 3.22374982885024
| 29> H   2.95380145146102 0.94156023247257 2.76415216080911
| 30> H   -1.3860075382038 3.34633373511686 -0.3853792990038
| 31> H   0.35742569472246 3.2240274530395 -0.12987334077172
| 32> H   -0.3472827880839 2.95878277441236 -1.74454402373092
| 33> H   -0.56724960672526 -1.9289391398957 0.04645887188199
| 34> H   -2.20695795826793 0.67693540875922 2.35576467574967
| 35> H   3.15787139943779 -1.19645413797831 -1.25489920289123
| 36> H   -2.97934457538952 -0.79279418498325 -1.30024017662049
| 37> *
| 38>
| 39>                          ****END OF INPUT****

CARTESIAN COORDINATES (ANGSTROEM)
---------------------------------
  O      3.729785    0.639096    0.312463
  O     -1.423176    0.680112   -2.548595
  O      1.135266   -2.571496   -1.573097
  O     -3.786204   -0.644997    1.012278
  N      0.294189   -1.436544    0.197793
  N     -1.907061    0.594668    1.398171
  N      2.446197   -1.013131   -0.566876
  N     -2.325243   -0.309990   -0.703728
  C      1.610304    0.292209    1.278365
  C     -0.630521    1.351852   -0.411564
  C      0.351706   -0.437817    1.224525
  C     -0.469986    0.794206    0.985963
  C      1.954108    1.186198    2.406755
  C     -0.480729    2.797891   -0.676687
  C      2.678394    0.023423    0.321553
  C     -1.438120    0.560200   -1.343958
  C      1.270842   -1.735470   -0.710484
  C     -2.750737   -0.153887    0.623483
  H      0.099561   -0.874120    2.197811
  H     -0.137963    1.605194    1.618975
  H      2.009168    2.230481    2.086264
  H      1.240561    1.107470    3.223750
  H      2.953801    0.941560    2.764152
  H     -1.386008    3.346334   -0.385379
  H      0.357426    3.224027   -0.129873
  H     -0.347283    2.958783   -1.744544
  H     -0.567250   -1.928939    0.046459
  H     -2.206958    0.676935    2.355765
  H      3.157871   -1.196454   -1.254899
  H     -2.979345   -0.792794   -1.300240

 Total Charge           Charge          ....    0
 Multiplicity           Mult            ....    3
 Number of Electrons    NEL             ....  132
 Basis Dimension        Dim             ....  882

ORBITAL ENERGIES
----------------
                 SPIN UP ORBITALS
  NO   OCC          E(Eh)            E(eV)
   0   1.0000     -19.338857      -526.2371
   1   1.0000     -19.332320      -526.0592
   2   1.0000     -19.325079      -525.8621
   3   1.0000     -19.316150      -525.6192
   4   1.0000     -14.563969      -396.3058
   5   1.0000     -14.563123      -396.2827
   6   1.0000     -14.562727      -396.2720
   7   1.0000     -14.559482      -396.1837
   8   1.0000     -10.507708      -285.9293
   9   1.0000     -10.504622      -285.8453
  10   1.0000     -10.484446      -285.2963
  11   1.0000     -10.481734      -285.2225
  12   1.0000     -10.447076      -284.2794
  13   1.0000     -10.442919      -284.1663
  14   1.0000     -10.419222      -283.5214
  15   1.0000     -10.418626      -283.5052
  16   1.0000     -10.381525      -282.4957
  17   1.0000     -10.375310      -282.3265
  18   1.0000      -1.223554       -33.2946
  19   1.0000      -1.218627       -33.1605
  20   1.0000      -1.201660       -32.6988
  21   1.0000      -1.195942       -32.5432
  22   1.0000      -1.123403       -30.5693
  23   1.0000      -1.099710       -29.9246
  24   1.0000      -1.067511       -29.0485
  25   1.0000      -1.058580       -28.8054
  26   1.0000      -0.998815       -27.1791
  27   1.0000      -0.959870       -26.1194
  28   1.0000      -0.897445       -24.4207
  29   1.0000      -0.846647       -23.0384
  30   1.0000      -0.828733       -22.5510
  31   1.0000      -0.805115       -21.9083
  32   1.0000      -0.787503       -21.4290
  33   1.0000      -0.782669       -21.2975
  34   1.0000      -0.708516       -19.2797
  35   1.0000      -0.698592       -19.0097
  36   1.0000      -0.696005       -18.9393
  37   1.0000      -0.682523       -18.5724
  38   1.0000      -0.657811       -17.9000
  39   1.0000      -0.634658       -17.2699
  40   1.0000      -0.627823       -17.0839
  41   1.0000      -0.604142       -16.4395
  42   1.0000      -0.598280       -16.2800
  43   1.0000      -0.591619       -16.0988
  44   1.0000      -0.583251       -15.8711
  45   1.0000      -0.574610       -15.6359
  46   1.0000      -0.568285       -15.4638
  47   1.0000      -0.565645       -15.3920
  48   1.0000      -0.560276       -15.2459
  49   1.0000      -0.556316       -15.1381
  50   1.0000      -0.549626       -14.9561
  51   1.0000      -0.541011       -14.7216
  52   1.0000      -0.537628       -14.6296
  53   1.0000      -0.522527       -14.2187
  54   1.0000      -0.518250       -14.1023
  55   1.0000      -0.512308       -13.9406
  56   1.0000      -0.501818       -13.6552
  57   1.0000      -0.427606       -11.6357
  58   1.0000      -0.423132       -11.5140
  59   1.0000      -0.409667       -11.1476
  60   1.0000      -0.405725       -11.0403
  61   1.0000      -0.401780       -10.9330
  62   1.0000      -0.393764       -10.7149
  63   1.0000      -0.390463       -10.6251
  64   1.0000      -0.384064       -10.4509
  65   1.0000      -0.343784        -9.3548
  66   1.0000      -0.332634        -9.0514
  67   0.0000       0.009301         0.2531
  68   0.0000       0.028778         0.7831
  69   0.0000       0.032005         0.8709
  70   0.0000       0.033331         0.9070
  71   0.0000       0.051631         1.4050

                 SPIN DOWN ORBITALS
  NO   OCC          E(Eh)            E(eV)
   0   1.0000     -19.335368      -526.1421
   1   1.0000     -19.328629      -525.9587
   2   1.0000     -19.324719      -525.8523
   3   1.0000     -19.316172      -525.6198
   4   1.0000     -14.563840      -396.3022
   5   1.0000     -14.562279      -396.2598
   6   1.0000     -14.561031      -396.2258
   7   1.0000     -14.559436      -396.1824
   8   1.0000     -10.507723      -285.9297
   9   1.0000     -10.504669      -285.8466
  10   1.0000     -10.485419      -285.3227
  11   1.0000     -10.482563      -285.2451
  12   1.0000     -10.446441      -284.2621
  13   1.0000     -10.443159      -284.1728
  14   1.0000     -10.407208      -283.1945
  15   1.0000     -10.406986      -283.1885
  16   1.0000     -10.382103      -282.5114
  17   1.0000     -10.375893      -282.3424
  18   1.0000      -1.221598       -33.2414
  19   1.0000      -1.216936       -33.1145
  20   1.0000      -1.197572       -32.5876
  21   1.0000      -1.191835       -32.4315
  22   1.0000      -1.119927       -30.4748
  23   1.0000      -1.097214       -29.8567
  24   1.0000      -1.065450       -28.9924
  25   1.0000      -1.056631       -28.7524
  26   1.0000      -0.987329       -26.8666
  27   1.0000      -0.942611       -25.6497
  28   1.0000      -0.891042       -24.2465
  29   1.0000      -0.840789       -22.8790
  30   1.0000      -0.820028       -22.3141
  31   1.0000      -0.800335       -21.7782
  32   1.0000      -0.785782       -21.3822
  33   1.0000      -0.780785       -21.2462
  34   1.0000      -0.703868       -19.1532
  35   1.0000      -0.691791       -18.8246
  36   1.0000      -0.687325       -18.7031
  37   1.0000      -0.673535       -18.3278
  38   1.0000      -0.646751       -17.5990
  39   1.0000      -0.629540       -17.1307
  40   1.0000      -0.624955       -17.0059
  41   1.0000      -0.597560       -16.2604
  42   1.0000      -0.592302       -16.1174
  43   1.0000      -0.586243       -15.9525
  44   1.0000      -0.576275       -15.6813
  45   1.0000      -0.568608       -15.4726
  46   1.0000      -0.563102       -15.3228
  47   1.0000      -0.560978       -15.2650
  48   1.0000      -0.552846       -15.0437
  49   1.0000      -0.547724       -14.9043
  50   1.0000      -0.540712       -14.7135
  51   1.0000      -0.534065       -14.5326
  52   1.0000      -0.532319       -14.4851
  53   1.0000      -0.514734       -14.0066
  54   1.0000      -0.512134       -13.9359
  55   1.0000      -0.505593       -13.7579
  56   1.0000      -0.494773       -13.4635
  57   1.0000      -0.423009       -11.5107
  58   1.0000      -0.418692       -11.3932
  59   1.0000      -0.404946       -11.0191
  60   1.0000      -0.393963       -10.7203
  61   1.0000      -0.391998       -10.6668
  62   1.0000      -0.389197       -10.5906
  63   1.0000      -0.387011       -10.5311
  64   1.0000      -0.378073       -10.2879
  65   0.0000      -0.059806        -1.6274
  66   0.0000      -0.045848        -1.2476
  67   0.0000       0.008705         0.2369
  68   0.0000       0.028451         0.7742
  69   0.0000       0.032122         0.8741

----------------------------------------------------------------------------------------------------
          SPIN FLIP ABSORPTION SPECTRUM VIA TRANSITION ELECTRIC DIPOLE MOMENTS
----------------------------------------------------------------------------------------------------
     Transition      Energy     Energy  Wavelength fosc(D2)      D2        DX        DY        DZ
                      (eV)      (cm-1)    (nm)                 (au**2)    (au)      (au)      (au)
----------------------------------------------------------------------------------------------------
  1-3A  ->  2-3A    0.109638     884.3  11308.5   0.000000260   0.00010  -0.00239  -0.00935   0.00186

Dispersion correction             ... done (  0.1 sec)

MULLIKEN ATOMIC CHARGES AND SPIN DENSITIES
------------------------------------------
   0 O :   -0.673709    0.137794
   1 O :   -0.648812   -0.127993
   2 O :   -0.654700    0.000966
   3 O :   -0.650435   -0.005231
   4 N :   -0.225289   -0.043644
   5 N :   -0.302957   -0.017424
   6 N :   -0.039994    0.037248
   7 N :   -0.013645   -0.000836
   8 C :   -0.332078    0.365973
   9 C :    1.325398    0.319107
  10 C :    1.183639    0.285160
  11 C :   -0.433310   -0.669171
  12 C :   -1.764673   -0.025496
  13 C :   -1.397820    0.053430
  14 C :    0.618840    0.131478
  15 C :   -0.262983   -0.438903
  16 C :    0.468780   -0.015789
  17 C :    0.366355    0.014630
  18 H :    0.408908    0.039301
  19 H :    0.647291   -0.056747
  20 H :    0.319848    0.026835
  21 H :    0.349190    0.003111
  22 H :    0.414466    0.020897
  23 H :    0.369831   -0.010287
  24 H :    0.347933    0.017160
  25 H :    0.345586   -0.021612
  26 H :    0.075122   -0.012753
  27 H :    0.067638   -0.002266
  28 H :    0.027569   -0.005131
  29 H :    0.064011    0.000194
Sum of atomic charges       :   -0.0000000

LOEWDIN ATOMIC CHARGES AND SPIN DENSITIES
-----------------------------------------
   0 O :    0.090034    0.117239
   1 O :    0.103921   -0.117099
   2 O :    0.093509   -0.000653
   3 O :    0.086885   -0.005372
   4 N :    0.298570   -0.005796
   5 N :    0.298288   -0.027773
   6 N :    0.331527    0.027597
   7 N :    0.311144   -0.006822
   8 C :   -0.058006    0.480562
   9 C :    0.024483   -0.509902
  10 C :   -0.131738    0.060644
  11 C :   -0.126985   -0.011545
  12 C :    0.182185    0.067840
  13 C :    0.195148   -0.082152
  14 C :   -0.385930    0.076985
  15 C :   -0.419163   -0.075525
  16 C :   -0.473147   -0.000659
  17 C :   -0.491168   -0.001002
  18 H :    0.076879    0.018194
  19 H :    0.020554    0.004370
  20 H :    0.014687    0.021324
  21 H :    0.004116    0.001033
  22 H :    0.013121    0.014561
  23 H :    0.024232   -0.030295
  24 H :   -0.001005   -0.005249
  25 H :    0.006647   -0.007523
  26 H :   -0.033932   -0.000674
  27 H :   -0.032099   -0.004005
  28 H :   -0.010655    0.002663
  29 H :   -0.012103   -0.000968

  Mayer bond orders larger than 0.100000
B(  0-O ,  8-C ) :   0.1018 B(  0-O , 12-C ) :   0.1136 B(  0-O , 14-C ) :   1.2562
B(  1-O , 15-C ) :   1.4851 B(  2-O , 16-C ) :   1.5728 B(  3-O , 17-C ) :   1.5749
B(  4-N ,  8-C ) :   0.2535 B(  4-N , 10-C ) :   0.4007 B(  4-N , 16-C ) :   1.0508
B(  4-N , 26-H ) :   1.1139 B(  5-N ,  9-C ) :   0.3238 B(  5-N , 10-C ) :   0.1767
B(  5-N , 17-C ) :   1.2590 B(  5-N , 19-H ) :  -0.1022 B(  5-N , 27-H ) :   1.0593
B(  6-N , 14-C ) :   0.9954 B(  6-N , 16-C ) :   0.9232 B(  6-N , 28-H ) :   1.1130
B(  7-N , 15-C ) :   0.9510 B(  7-N , 17-C ) :   0.9746 B(  7-N , 29-H ) :   1.0687
B(  8-C ,  9-C ) :  -0.1084 B(  8-C , 10-C ) :  -0.9674 B(  8-C , 11-C ) :   1.1386
B(  8-C , 12-C ) :   0.2275 B(  8-C , 14-C ) :   0.9674 B(  8-C , 16-C ) :   0.1285
B(  8-C , 18-H ) :  -0.3055 B(  8-C , 21-H ) :  -0.1723 B(  9-C , 10-C ) :   0.2325
B(  9-C , 11-C ) :   0.2702 B(  9-C , 13-C ) :   0.4472 B(  9-C , 15-C ) :   0.1886
B(  9-C , 25-H ) :  -0.1067 B( 10-C , 11-C ) :  -0.2720 B( 10-C , 12-C ) :  -0.3726
B( 10-C , 14-C ) :  -0.1402 B( 10-C , 16-C ) :  -0.1674 B( 10-C , 18-H ) :   1.1657
B( 11-C , 12-C ) :   0.2225 B( 11-C , 13-C ) :  -0.1114 B( 11-C , 14-C ) :   0.1332
B( 11-C , 15-C ) :   0.1058 B( 11-C , 17-C ) :  -0.2086 B( 11-C , 18-H ) :  -0.2227
B( 11-C , 19-H ) :   0.6707 B( 12-C , 19-H ) :  -0.1199 B( 12-C , 20-H ) :   0.9330
B( 12-C , 21-H ) :   1.0955 B( 12-C , 22-H ) :   0.8231 B( 13-C , 23-H ) :   0.8614
B( 13-C , 24-H ) :   0.9327 B( 13-C , 25-H ) :   0.9873

Dispersion correction           -0.057671261
FINAL SINGLE POINT ENERGY      -908.777391708473

DIPOLE MOMENT
-------------

Method             : TDA/CIS
Type of density    : Electron Density
Level              : Relaxed density
State              :   2
Multiplicity       :   3
Irrep              :   0
Energy             :     0.0000000000000000 Eh
Relativity type    :
Basis              : AO
                                X                 Y                 Z
Electronic contribution:     -1.972567937      -8.865346833      -6.045893937
Nuclear contribution   :      2.001001881      10.249506390       8.233232899
                        -----------------------------------------
Total Dipole Moment    :      0.028433944       1.384159558       2.187338962
                        -----------------------------------------
Magnitude (a.u.)       :      2.588659480
Magnitude (Debye)      :      6.579849489

Rotational constants in cm-1:             0.021054             0.012055             0.010841
Rotational constants in MHz :           631.175245           361.409163           324.994832

                             ****ORCA TERMINATED NORMALLY****
TOTAL RUN TIME: 0 days 0 hours 5 minutes 31 seconds 370 msec
