                         Program Version 6.0.0  -   RELEASE  -
|  1> ! Engrad def2-TZVPPD wB97M-D3BJ
|  2> %pal nprocs 8 end%pal nprocs 64 end
|  3> %tddft
|  4>  Iroot 1 Nroots 3
|  5> sf true
|  6> end
|  7> *xyz 0 3
|  8> O   3.52892942 0.14052333 0.35851679
|  9> O   -0.388288 0.68779857 -2.800199
| 10> O   0.53631648 -2.91814032 -0.90048004
| 11> O   -3.94949178 -0.56179461 -0.18423944
| 12> N   -0.04284461 -1.48233636 0.75849731
| 13> N   -2.24338792 0.52158926 0.87000848
| 14> N   1.87771081 -1.04975424 -0.43556571
| 15> N   -2.05841678 -0.01910943 -1.3930059
| 16> C   1.4916569 0.22047726 1.57786872
| 17> C   -0.34086003 1.35540297 -0.50989499
| 18> C   0.04600092 -0.21358253 1.44612017
| 19> C   -0.84030849 0.91760887 0.82054298
| 20> C   1.99759385 1.16034102 2.5896841
| 21> C   0.83276845 2.26291138 -0.62883656
| 22> C   2.38934355 -0.25950901 0.54596395
| 23> C   -0.8574429 0.69602933 -1.67499588
| 24> C   0.77091953 -1.94800141 -0.28160992
| 25> C   -2.85232534 -0.03197081 -0.22698194
| 26> H   -0.31122628 -0.31556859 2.49617514
| 27> H   -0.76205094 1.77520693 1.51264172
| 28> H   3.07337467 1.13539415 2.61815313
| 29> H   1.63194558 2.1471856 2.32106932
| 30> H   1.50466486 1.0052442 3.5879978
| 31> H   1.76004666 1.68244479 -0.91831701
| 32> H   0.56326923 2.9622137 -1.45104381
| 33> H   1.00052872 2.78121177 0.28256703
| 34> H   -0.99773226 -1.85013458 0.79854199
| 35> H   -2.76489447 0.41190064 1.71235314
| 36> H   2.4501831 -1.21016552 -1.20860978
| 37> H   -2.20647585 -0.85323124 -2.10171151
| 38> *
| 39>
| 40>                          ****END OF INPUT****

CARTESIAN COORDINATES (ANGSTROEM)
---------------------------------
  O      3.528929    0.140523    0.358517
  O     -0.388288    0.687799   -2.800199
  O      0.536316   -2.918140   -0.900480
  O     -3.949492   -0.561795   -0.184239
  N     -0.042845   -1.482336    0.758497
  N     -2.243388    0.521589    0.870008
  N      1.877711   -1.049754   -0.435566
  N     -2.058417   -0.019109   -1.393006
  C      1.491657    0.220477    1.577869
  C     -0.340860    1.355403   -0.509895
  C      0.046001   -0.213583    1.446120
  C     -0.840308    0.917609    0.820543
  C      1.997594    1.160341    2.589684
  C      0.832768    2.262911   -0.628837
  C      2.389344   -0.259509    0.545964
  C     -0.857443    0.696029   -1.674996
  C      0.770920   -1.948001   -0.281610
  C     -2.852325   -0.031971   -0.226982
  H     -0.311226   -0.315569    2.496175
  H     -0.762051    1.775207    1.512642
  H      3.073375    1.135394    2.618153
  H      1.631946    2.147186    2.321069
  H      1.504665    1.005244    3.587998
  H      1.760047    1.682445   -0.918317
  H      0.563269    2.962214   -1.451044
  H      1.000529    2.781212    0.282567
  H     -0.997732   -1.850135    0.798542
  H     -2.764894    0.411901    1.712353
  H      2.450183   -1.210166   -1.208610
  H     -2.206476   -0.853231   -2.101712

 Total Charge           Charge          ....    0
 Multiplicity           Mult            ....    3
 Number of Electrons    NEL             ....  132
 Basis Dimension        Dim             ....  882

ORBITAL ENERGIES
----------------
                 SPIN UP ORBITALS
  NO   OCC          E(Eh)            E(eV)
   0   1.0000     -19.338106      -526.2166
   1   1.0000     -19.337642      -526.2040
   2   1.0000     -19.331943      -526.0489
   3   1.0000     -19.321919      -525.7761
   4   1.0000     -14.565830      -396.3564
   5   1.0000     -14.562859      -396.2755
   6   1.0000     -14.559470      -396.1833
   7   1.0000     -14.558850      -396.1664
   8   1.0000     -10.514430      -286.1122
   9   1.0000     -10.508837      -285.9600
  10   1.0000     -10.481629      -285.2196
  11   1.0000     -10.479265      -285.1553
  12   1.0000     -10.449579      -284.3475
  13   1.0000     -10.449391      -284.3424
  14   1.0000     -10.423608      -283.6408
  15   1.0000     -10.420209      -283.5483
  16   1.0000     -10.383115      -282.5389
  17   1.0000     -10.377963      -282.3987
  18   1.0000      -1.236034       -33.6342
  19   1.0000      -1.212447       -32.9924
  20   1.0000      -1.206785       -32.8383
  21   1.0000      -1.195110       -32.5206
  22   1.0000      -1.121128       -30.5075
  23   1.0000      -1.099383       -29.9157
  24   1.0000      -1.058336       -28.7988
  25   1.0000      -1.044798       -28.4304
  26   1.0000      -0.988116       -26.8880
  27   1.0000      -0.960430       -26.1346
  28   1.0000      -0.892813       -24.2947
  29   1.0000      -0.847524       -23.0623
  30   1.0000      -0.828020       -22.5316
  31   1.0000      -0.801906       -21.8210
  32   1.0000      -0.780350       -21.2344
  33   1.0000      -0.779799       -21.2194
  34   1.0000      -0.702333       -19.1115
  35   1.0000      -0.691983       -18.8298
  36   1.0000      -0.687364       -18.7041
  37   1.0000      -0.675998       -18.3949
  38   1.0000      -0.656979       -17.8773
  39   1.0000      -0.635454       -17.2916
  40   1.0000      -0.621619       -16.9151
  41   1.0000      -0.600888       -16.3510
  42   1.0000      -0.596495       -16.2314
  43   1.0000      -0.584484       -15.9046
  44   1.0000      -0.579505       -15.7691
  45   1.0000      -0.572744       -15.5852
  46   1.0000      -0.570545       -15.5253
  47   1.0000      -0.566082       -15.4039
  48   1.0000      -0.559955       -15.2371
  49   1.0000      -0.558372       -15.1941
  50   1.0000      -0.552960       -15.0468
  51   1.0000      -0.540464       -14.7068
  52   1.0000      -0.537113       -14.6156
  53   1.0000      -0.525803       -14.3078
  54   1.0000      -0.515424       -14.0254
  55   1.0000      -0.509181       -13.8555
  56   1.0000      -0.501552       -13.6479
  57   1.0000      -0.432735       -11.7753
  58   1.0000      -0.420324       -11.4376
  59   1.0000      -0.411777       -11.2050
  60   1.0000      -0.409697       -11.1484
  61   1.0000      -0.400026       -10.8852
  62   1.0000      -0.398344       -10.8395
  63   1.0000      -0.391631       -10.6568
  64   1.0000      -0.386192       -10.5088
  65   1.0000      -0.351442        -9.5632
  66   1.0000      -0.327788        -8.9196
  67   0.0000       0.006210         0.1690
  68   0.0000       0.029274         0.7966
  69   0.0000       0.033773         0.9190
  70   0.0000       0.035038         0.9534
  71   0.0000       0.054731         1.4893

                 SPIN DOWN ORBITALS
  NO   OCC          E(Eh)            E(eV)
   0   1.0000     -19.337575      -526.2022
   1   1.0000     -19.333959      -526.1038
   2   1.0000     -19.327476      -525.9274
   3   1.0000     -19.321811      -525.7732
   4   1.0000     -14.565564      -396.3492
   5   1.0000     -14.562087      -396.2545
   6   1.0000     -14.558856      -396.1666
   7   1.0000     -14.558743      -396.1635
   8   1.0000     -10.514470      -286.1133
   9   1.0000     -10.508891      -285.9615
  10   1.0000     -10.482549      -285.2447
  11   1.0000     -10.480262      -285.1824
  12   1.0000     -10.449302      -284.3400
  13   1.0000     -10.448892      -284.3288
  14   1.0000     -10.412303      -283.3332
  15   1.0000     -10.409037      -283.2443
  16   1.0000     -10.383711      -282.5551
  17   1.0000     -10.378490      -282.4131
  18   1.0000      -1.235406       -33.6171
  19   1.0000      -1.210557       -32.9409
  20   1.0000      -1.201141       -32.6847
  21   1.0000      -1.190237       -32.3880
  22   1.0000      -1.118383       -30.4327
  23   1.0000      -1.097256       -29.8579
  24   1.0000      -1.056269       -28.7425
  25   1.0000      -1.042867       -28.3779
  26   1.0000      -0.974885       -26.5280
  27   1.0000      -0.943141       -25.6642
  28   1.0000      -0.887443       -24.1486
  29   1.0000      -0.841907       -22.9095
  30   1.0000      -0.819063       -22.2878
  31   1.0000      -0.797006       -21.6876
  32   1.0000      -0.778749       -21.1908
  33   1.0000      -0.777674       -21.1616
  34   1.0000      -0.697017       -18.9668
  35   1.0000      -0.686890       -18.6912
  36   1.0000      -0.682327       -18.5671
  37   1.0000      -0.668949       -18.2030
  38   1.0000      -0.643665       -17.5150
  39   1.0000      -0.632776       -17.2187
  40   1.0000      -0.614996       -16.7349
  41   1.0000      -0.596412       -16.2292
  42   1.0000      -0.592482       -16.1223
  43   1.0000      -0.580514       -15.7966
  44   1.0000      -0.573849       -15.6152
  45   1.0000      -0.567393       -15.4396
  46   1.0000      -0.559646       -15.2287
  47   1.0000      -0.558290       -15.1918
  48   1.0000      -0.554615       -15.0919
  49   1.0000      -0.549482       -14.9522
  50   1.0000      -0.543679       -14.7943
  51   1.0000      -0.534001       -14.5309
  52   1.0000      -0.530367       -14.4320
  53   1.0000      -0.515952       -14.0398
  54   1.0000      -0.505521       -13.7559
  55   1.0000      -0.503111       -13.6903
  56   1.0000      -0.495135       -13.4733
  57   1.0000      -0.430046       -11.7022
  58   1.0000      -0.416658       -11.3378
  59   1.0000      -0.406647       -11.0654
  60   1.0000      -0.397619       -10.8198
  61   1.0000      -0.392055       -10.6684
  62   1.0000      -0.389228       -10.5914
  63   1.0000      -0.386939       -10.5291
  64   1.0000      -0.374530       -10.1915
  65   0.0000      -0.067683        -1.8418
  66   0.0000      -0.054684        -1.4880
  67   0.0000       0.005425         0.1476
  68   0.0000       0.028840         0.7848
  69   0.0000       0.033446         0.9101

----------------------------------------------------------------------------------------------------
          SPIN FLIP ABSORPTION SPECTRUM VIA TRANSITION ELECTRIC DIPOLE MOMENTS
----------------------------------------------------------------------------------------------------
     Transition      Energy     Energy  Wavelength fosc(D2)      D2        DX        DY        DZ
                      (eV)      (cm-1)    (nm)                 (au**2)    (au)      (au)      (au)
----------------------------------------------------------------------------------------------------
  1-3A  ->  2-3A    0.062628     505.1  19797.0   0.000019188   0.01251   0.10254  -0.02453   0.03729
  1-3A  ->  3-3A    2.181829   17597.6   568.3   0.003299401   0.06172   0.23745   0.02831   0.06739

Dispersion correction             ... done (  0.1 sec)

MULLIKEN ATOMIC CHARGES AND SPIN DENSITIES
------------------------------------------
   0 O :   -0.685990    0.060393
   1 O :   -0.668723   -0.055842
   2 O :   -0.575791    0.000577
   3 O :   -0.643253   -0.000450
   4 N :   -0.272446    0.000107
   5 N :   -0.175784   -0.009998
   6 N :    0.167846    0.002894
   7 N :   -0.107454   -0.012711
   8 C :    0.099848    0.354578
   9 C :    0.776570    0.275961
  10 C :    0.438127   -0.108254
  11 C :    0.281242   -0.239046
  12 C :   -1.163522    0.008196
  13 C :   -1.549133   -0.028897
  14 C :    0.159560   -0.058765
  15 C :   -0.074192   -0.209440
  16 C :    0.374738    0.002632
  17 C :    0.440584    0.011339
  18 H :    0.528500    0.010735
  19 H :    0.457844   -0.023443
  20 H :    0.331799    0.001471
  21 H :    0.272142    0.018402
  22 H :    0.291522    0.007943
  23 H :    0.244165   -0.006287
  24 H :    0.440921   -0.001708
  25 H :    0.338974   -0.001463
  26 H :    0.084952   -0.001501
  27 H :    0.053270    0.001417
  28 H :   -0.036584   -0.001817
  29 H :    0.170265    0.002975
Sum of atomic charges       :    0.0000000

LOEWDIN ATOMIC CHARGES AND SPIN DENSITIES
-----------------------------------------
   0 O :    0.073791    0.050041
   1 O :    0.085087   -0.047652
   2 O :    0.143452    0.000479
   3 O :    0.069441   -0.000597
   4 N :    0.271240    0.000461
   5 N :    0.281615   -0.000675
   6 N :    0.349769    0.002286
   7 N :    0.273337   -0.015004
   8 C :   -0.034329    0.186199
   9 C :   -0.024486   -0.163324
  10 C :   -0.110238    0.004476
  11 C :   -0.116233   -0.015460
  12 C :    0.192213    0.028143
  13 C :    0.208069   -0.022518
  14 C :   -0.444134    0.028733
  15 C :   -0.433258   -0.035827
  16 C :   -0.449866   -0.000527
  17 C :   -0.490614   -0.000939
  18 H :    0.069658    0.001656
  19 H :    0.061626   -0.003509
  20 H :   -0.004368    0.000388
  21 H :   -0.014130    0.010603
  22 H :    0.030913    0.005466
  23 H :    0.038053   -0.007644
  24 H :    0.033447   -0.005408
  25 H :   -0.035050    0.000531
  26 H :   -0.020231    0.000133
  27 H :   -0.037701    0.000019
  28 H :   -0.045944    0.000389
  29 H :    0.078872   -0.000918

  Mayer bond orders larger than 0.100000
B(  0-O , 14-C ) :   1.4033 B(  1-O , 15-C ) :   1.4023 B(  2-O , 16-C ) :   1.6259
B(  3-O , 17-C ) :   1.6291 B(  4-N ,  8-C ) :   0.2949 B(  4-N , 10-C ) :   0.3093
B(  4-N , 15-C ) :   0.1098 B(  4-N , 16-C ) :   0.9734 B(  4-N , 26-H ) :   1.0192
B(  5-N ,  9-C ) :   0.1042 B(  5-N , 10-C ) :   0.2025 B(  5-N , 11-C ) :   0.1724
B(  5-N , 17-C ) :   1.1486 B(  5-N , 27-H ) :   1.0945 B(  6-N ,  8-C ) :  -0.2071
B(  6-N , 10-C ) :   0.1956 B(  6-N , 14-C ) :   1.1308 B(  6-N , 16-C ) :   0.9114
B(  6-N , 28-H ) :   1.1382 B(  7-N ,  9-C ) :  -0.1698 B(  7-N , 11-C ) :   0.1486
B(  7-N , 15-C ) :   1.0481 B(  7-N , 17-C ) :   0.8873 B(  7-N , 29-H ) :   1.0075
B(  8-C ,  9-C ) :   0.1744 B(  8-C , 10-C ) :   0.3018 B(  8-C , 11-C ) :   0.2123
B(  8-C , 12-C ) :   0.6781 B(  8-C , 14-C ) :   0.7281 B(  8-C , 18-H ) :  -0.1403
B(  9-C , 10-C ) :   0.1501 B(  9-C , 11-C ) :   0.4455 B(  9-C , 13-C ) :   0.1878
B(  9-C , 15-C ) :   0.6616 B(  9-C , 19-H ) :  -0.1758 B(  9-C , 25-H ) :  -0.1562
B( 10-C , 11-C ) :   0.5663 B( 10-C , 16-C ) :  -0.1552 B( 10-C , 18-H ) :   0.7824
B( 11-C , 13-C ) :  -0.1183 B( 11-C , 15-C ) :  -0.1272 B( 11-C , 17-C ) :  -0.1881
B( 11-C , 19-H ) :   0.9218 B( 12-C , 20-H ) :   0.9332 B( 12-C , 21-H ) :   0.8528
B( 12-C , 22-H ) :   1.0118 B( 13-C , 14-C ) :   0.1104 B( 13-C , 23-H ) :   0.9626
B( 13-C , 24-H ) :   0.8374 B( 13-C , 25-H ) :   1.0566

Dispersion correction           -0.059843982
FINAL SINGLE POINT ENERGY      -908.780971604762

DIPOLE MOMENT
-------------

Method             : TDA/CIS
Type of density    : Electron Density
Level              : Relaxed density
State              :   1
Multiplicity       :   3
Irrep              :   0
Energy             :     0.0000000000000000 Eh
Relativity type    :
Basis              : AO
                                X                 Y                 Z
Electronic contribution:     -4.595924722      -8.153438653      -6.809890638
Nuclear contribution   :      4.719944988       9.524209601       9.249916566
                        -----------------------------------------
Total Dipole Moment    :      0.124020266       1.370770948       2.440025928
                        -----------------------------------------
Magnitude (a.u.)       :      2.801449723
Magnitude (Debye)      :      7.120719302

Rotational constants in cm-1:             0.021777             0.012476             0.011862
Rotational constants in MHz :           652.854197           374.023650           355.611922

                             ****ORCA TERMINATED NORMALLY****
TOTAL RUN TIME: 0 days 0 hours 5 minutes 15 seconds 58 msec
