                         Program Version 6.0.0  -   RELEASE  -
|  1> ! opt def2-TZVPPD wB97M-D3BJ
|  2> %pal nprocs 8 end%pal nprocs 64 end
|  3>  %geom Constraints
|  4>  {B 9 8 2.6 C}
|  5>  {A 8 9 11 79.71428571428571 C}
|  6>  end
|  7>  end
|  8> *xyz 0 1
|  9> O   2.98579685529314 0.88758230159078 -0.86184571092411
| 10> O   -0.03983205397054 0.68929041702508 -2.10362336723772
| 11> O   0.93431434349854 -3.13274393337945 -0.68767288184107
| 12> O   -3.75829998830163 -0.84727300865116 -0.0472717177755
| 13> N   0.21184538946282 -1.54604804365365 0.7617588924445
| 14> N   -2.13631993928911 0.03188773433438 1.27350571071531
| 15> N   2.02598672506387 -1.14318467211666 -0.64531219127023
| 16> N   -1.91814233924584 0.03137116037665 -1.04498946748291
| 17> C   1.18097737274226 0.71693507080484 0.70173889017321
| 18> C   -0.20686880480777 1.27024627933494 0.21345042231937
| 19> C   0.41441080275909 -0.34173258966541 1.52336266615173
| 20> C   -0.82922175114212 0.58960593673968 1.44434972027296
| 21> C   1.92822011286806 1.69488653817281 1.5963734975385
| 22> C   -0.37809776891576 2.77134929626422 0.04819649358288
| 23> C   2.1403947470937 0.1972384729179 -0.35038567829864
| 24> C   -0.67361678962426 0.6214190571346 -1.0793014500539
| 25> C   1.04142578622994 -2.02697492875068 -0.21027082435993
| 26> C   -2.68467002550422 -0.30396816036989 0.07167054343891
| 27> H   0.80817443950001 -0.54572267081061 2.51895215321335
| 28> H   -0.83785272399001 1.27240685039143 2.28901317073582
| 29> H   2.31167340578204 2.52284411740894 1.00913016264629
| 30> H   1.28982602448342 2.08257620823614 2.38710022492991
| 31> H   2.77390820759972 1.19140411795486 2.06045858523949
| 32> H   -1.41857211141493 3.00964947214868 -0.16882755561625
| 33> H   -0.09065531563179 3.29799318042223 0.95389844358819
| 34> H   0.23426221611057 3.12492645074476 -0.77764887675592
| 35> H   -0.46772570547622 -2.21560145172536 1.0787081584806
| 36> H   -2.71769301149571 -0.17090724573546 2.06627440900372
| 37> H   2.60065167263658 -1.49057255715425 -1.3966820077142
| 38> H   -2.27169977231386 -0.32388339999036 -1.91951041514436
| 39> *
| 40>
| 41>                          ****END OF INPUT****
 Total Charge           Charge          ....    0
 Multiplicity           Mult            ....    1
 Number of Electrons    NEL             ....  132
Dispersion correction           -0.054486853
FINAL SINGLE POINT ENERGY      -908.746940677561
Dispersion correction             ... done (  0.1 sec)
Dispersion correction           -0.055498731
FINAL SINGLE POINT ENERGY      -908.768020704937
Dispersion correction             ... done (  0.1 sec)
Dispersion correction           -0.056579517
FINAL SINGLE POINT ENERGY      -908.780810853085
Dispersion correction             ... done (  0.1 sec)
FINAL SINGLE POINT ENERGY      -908.788945940948
FINAL SINGLE POINT ENERGY      -908.792273585487
FINAL SINGLE POINT ENERGY      -908.796137539693
FINAL SINGLE POINT ENERGY      -908.798303485392
FINAL SINGLE POINT ENERGY      -908.800496189509
FINAL SINGLE POINT ENERGY      -908.803250098214
FINAL SINGLE POINT ENERGY      -908.804029025099
FINAL SINGLE POINT ENERGY      -908.804968035659
FINAL SINGLE POINT ENERGY      -908.805068430957
FINAL SINGLE POINT ENERGY      -908.805183560719
FINAL SINGLE POINT ENERGY      -908.805244509088
FINAL SINGLE POINT ENERGY      -908.805302571286
FINAL SINGLE POINT ENERGY      -908.805330234349
FINAL SINGLE POINT ENERGY      -908.805340912094
Dispersion correction             ... done (  0.1 sec)
Dispersion correction           -0.059595593
FINAL SINGLE POINT ENERGY      -908.805345346980
Dispersion correction             ... done (  0.1 sec)
Dispersion correction           -0.059596103
FINAL SINGLE POINT ENERGY      -908.805346559405
Dispersion correction             ... done (  0.1 sec)
                    ***********************HURRAY********************

CARTESIAN COORDINATES (ANGSTROEM)
---------------------------------
  O      2.989176    0.459401   -1.078210
  O     -0.408850    1.545181   -2.201838
  O      0.415859   -3.137324   -0.259745
  O     -3.047956   -1.686437   -0.530682
  N      0.354066   -1.463524    1.269890
  N     -2.174598   -0.190187    0.942577
  N      1.471748   -1.194354   -0.765457
  N     -1.446054   -0.238748   -1.258512
  C      1.623331    0.594116    0.833889
  C     -0.693177    1.560261    0.155397
  C      0.368589   -0.062370    1.591822
  C     -1.094753    0.677420    1.291348
  C      2.420165    1.623267    1.523416
  C     -0.598032    3.025145    0.306102
  C      2.098225   -0.011690   -0.399466
  C     -0.812768    0.998832   -1.198307
  C      0.711830   -2.009672    0.060247
  C     -2.283040   -0.786026   -0.287423
  H      0.556304    0.027167    2.663645
  H     -1.369352    1.261567    2.164528
  H      3.230316    1.964326    0.886693
  H      1.809325    2.481470    1.815534
  H      2.837576    1.214869    2.450165
  H     -1.595755    3.443177    0.481048
  H      0.007960    3.298760    1.172202
  H     -0.183760    3.472990   -0.591436
  H     -0.235121   -2.080927    1.801734
  H     -2.748250   -0.602100    1.656082
  H      1.796881   -1.628725   -1.613630
  H     -1.547286   -0.640867   -2.177011

 Multiplicity           Mult            ....    1
 Number of Electrons    NEL             ....  132
 Basis Dimension        Dim             ....  882

ORBITAL ENERGIES
----------------

  NO   OCC          E(Eh)            E(eV)
   0   2.0000     -19.331606      -526.0397
   1   2.0000     -19.322818      -525.8006
   2   2.0000     -19.322352      -525.7879
   3   2.0000     -19.316090      -525.6175
   4   2.0000     -14.565436      -396.3457
   5   2.0000     -14.563671      -396.2976
   6   2.0000     -14.557013      -396.1165
   7   2.0000     -14.554548      -396.0494
   8   2.0000     -10.507189      -285.9152
   9   2.0000     -10.500511      -285.7334
  10   2.0000     -10.485244      -285.3180
  11   2.0000     -10.476117      -285.0696
  12   2.0000     -10.445913      -284.2477
  13   2.0000     -10.440721      -284.1065
  14   2.0000     -10.435626      -283.9678
  15   2.0000     -10.426561      -283.7211
  16   2.0000     -10.377689      -282.3913
  17   2.0000     -10.371693      -282.2281
  18   2.0000      -1.222506       -33.2661
  19   2.0000      -1.213271       -33.0148
  20   2.0000      -1.197446       -32.5842
  21   2.0000      -1.188179       -32.3320
  22   2.0000      -1.116613       -30.3846
  23   2.0000      -1.093784       -29.7634
  24   2.0000      -1.065592       -28.9962
  25   2.0000      -1.053518       -28.6677
  26   2.0000      -0.975553       -26.5461
  27   2.0000      -0.939046       -25.5527
  28   2.0000      -0.882020       -24.0010
  29   2.0000      -0.833068       -22.6689
  30   2.0000      -0.825119       -22.4526
  31   2.0000      -0.800276       -21.7766
  32   2.0000      -0.787953       -21.4413
  33   2.0000      -0.773927       -21.0596
  34   2.0000      -0.698350       -19.0031
  35   2.0000      -0.691118       -18.8063
  36   2.0000      -0.684985       -18.6394
  37   2.0000      -0.655675       -17.8418
  38   2.0000      -0.648552       -17.6480
  39   2.0000      -0.640707       -17.4345
  40   2.0000      -0.614886       -16.7319
  41   2.0000      -0.600348       -16.3363
  42   2.0000      -0.584743       -15.9117
  43   2.0000      -0.578308       -15.7366
  44   2.0000      -0.576534       -15.6883
  45   2.0000      -0.569818       -15.5055
  46   2.0000      -0.564670       -15.3654
  47   2.0000      -0.559172       -15.2158
  48   2.0000      -0.553646       -15.0655
  49   2.0000      -0.546864       -14.8809
  50   2.0000      -0.543135       -14.7795
  51   2.0000      -0.536011       -14.5856
  52   2.0000      -0.529202       -14.4003
  53   2.0000      -0.521104       -14.1799
  54   2.0000      -0.505051       -13.7431
  55   2.0000      -0.504637       -13.7319
  56   2.0000      -0.481436       -13.1005
  57   2.0000      -0.420450       -11.4410
  58   2.0000      -0.413387       -11.2488
  59   2.0000      -0.403802       -10.9880
  60   2.0000      -0.403369       -10.9762
  61   2.0000      -0.390923       -10.6376
  62   2.0000      -0.386115       -10.5067
  63   2.0000      -0.381998       -10.3947
  64   2.0000      -0.373596       -10.1661
  65   2.0000      -0.303912        -8.2699
  66   0.0000      -0.080688        -2.1956
  67   0.0000       0.006988         0.1902
  68   0.0000       0.028571         0.7775
  69   0.0000       0.030414         0.8276
  70   0.0000       0.039445         1.0733

MULLIKEN ATOMIC CHARGES
-----------------------
   0 O :   -0.680101
   1 O :   -0.664349
   2 O :   -0.652748
   3 O :   -0.639986
   4 N :   -0.262867
   5 N :   -0.253242
   6 N :    0.073846
   7 N :    0.050770
   8 C :    0.403817
   9 C :    0.707577
  10 C :    0.073735
  11 C :    0.229651
  12 C :   -1.355567
  13 C :   -1.294347
  14 C :    0.292734
  15 C :    0.095957
  16 C :    0.427618
  17 C :    0.372574
  18 H :    0.554221
  19 H :    0.478968
  20 H :    0.335263
  21 H :    0.234020
  22 H :    0.322758
  23 H :    0.348091
  24 H :    0.316694
  25 H :    0.306918
  26 H :    0.057546
  27 H :    0.061281
  28 H :    0.025493
  29 H :    0.033673
Sum of atomic charges:    0.0000000

LOEWDIN ATOMIC CHARGES
----------------------
   0 O :    0.097498
   1 O :    0.106741
   2 O :    0.095548
   3 O :    0.103462
   4 N :    0.266273
   5 N :    0.275857
   6 N :    0.321371
   7 N :    0.332678
   8 C :    0.004967
   9 C :   -0.028797
  10 C :   -0.056689
  11 C :   -0.092071
  12 C :    0.178620
  13 C :    0.190208
  14 C :   -0.425021
  15 C :   -0.406193
  16 C :   -0.491031
  17 C :   -0.482854
  18 H :    0.028754
  19 H :    0.045869
  20 H :   -0.000489
  21 H :   -0.015561
  22 H :    0.012121
  23 H :    0.019180
  24 H :   -0.014261
  25 H :    0.005597
  26 H :   -0.028751
  27 H :   -0.027890
  28 H :   -0.009334
  29 H :   -0.005802

  Mayer bond orders larger than 0.100000
B(  0-O , 14-C ) :   1.3439 B(  1-O , 15-C ) :   1.4434 B(  2-O , 16-C ) :   1.5113
B(  3-O , 17-C ) :   1.5462 B(  4-N ,  5-N ) :   0.1236 B(  4-N ,  8-C ) :   0.2731
B(  4-N , 10-C ) :   0.3150 B(  4-N , 11-C ) :  -0.1152 B(  4-N , 16-C ) :   1.0608
B(  4-N , 26-H ) :   1.0854 B(  5-N ,  9-C ) :   0.3103 B(  5-N , 11-C ) :   0.1899
B(  5-N , 17-C ) :   1.1523 B(  5-N , 27-H ) :   1.0710 B(  6-N , 10-C ) :   0.1072
B(  6-N , 14-C ) :   1.0419 B(  6-N , 16-C ) :   0.9519 B(  6-N , 28-H ) :   1.1116
B(  7-N , 11-C ) :   0.1223 B(  7-N , 15-C ) :   0.9879 B(  7-N , 17-C ) :   0.9446
B(  7-N , 29-H ) :   1.0989 B(  8-C ,  9-C ) :   0.7190 B(  8-C , 10-C ) :   0.1255
B(  8-C , 12-C ) :   0.5205 B(  8-C , 14-C ) :   0.7702 B(  8-C , 15-C ) :   0.1953
B(  8-C , 20-H ) :  -0.1204 B(  9-C , 11-C ) :   0.4050 B(  9-C , 13-C ) :   0.5269
B(  9-C , 14-C ) :   0.1524 B(  9-C , 15-C ) :   0.6177 B(  9-C , 19-H ) :  -0.1018
B(  9-C , 25-H ) :  -0.1074 B( 10-C , 11-C ) :   0.7395 B( 10-C , 12-C ) :  -0.1084
B( 10-C , 16-C ) :  -0.1063 B( 10-C , 18-H ) :   0.7044 B( 11-C , 15-C ) :  -0.1024
B( 11-C , 17-C ) :  -0.1942 B( 11-C , 19-H ) :   0.8612 B( 12-C , 20-H ) :   1.0025
B( 12-C , 21-H ) :   0.9482 B( 12-C , 22-H ) :   0.8917 B( 13-C , 23-H ) :   0.8463
B( 13-C , 24-H ) :   0.8651 B( 13-C , 25-H ) :   1.0360 B( 15-C , 17-C ) :  -0.1222

Dispersion correction           -0.059599612
FINAL SINGLE POINT ENERGY      -908.805346932436

DIPOLE MOMENT
-------------

Method             : SCF
Type of density    : Electron Density
Multiplicity       :   1
Irrep              :   0
Energy             :  -908.7457473201566245 Eh
Relativity type    :
Basis              : AO
                                X                 Y                 Z
Electronic contribution:     -2.941087553     -10.231907472      -7.483246106
Nuclear contribution   :      2.501740663      11.787298179      10.218513067
                        -----------------------------------------
Total Dipole Moment    :     -0.439346890       1.555390708       2.735266961
                        -----------------------------------------
Magnitude (a.u.)       :      3.177097936
Magnitude (Debye)      :      8.075541178

Rotational constants in cm-1:             0.019176             0.015825             0.012712
Rotational constants in MHz :           574.873604           474.407156           381.088689

                             ****ORCA TERMINATED NORMALLY****
TOTAL RUN TIME: 0 days 0 hours 38 minutes 23 seconds 72 msec
