                         Program Version 6.0.0  -   RELEASE  -
|  1> ! Engrad def2-TZVPPD wB97M-D3BJ
|  2> %pal nprocs 8 end%pal nprocs 64 end
|  3> %tddft
|  4>  Iroot 2 Nroots 3
|  5> sf true
|  6> end
|  7> *xyz 0 3
|  8> O   -0.55855061 0.71583044 0.07985408
|  9> C   0.70662935 0.26064366 0.50363815
| 10> C   1.17394446 -0.85810209 -0.37961186
| 11> H   0.63161031 0.17735411 1.58110885
| 12> H   1.51935591 0.96763738 0.41411415
| 13> H   0.66890757 -1.84371828 -0.30281386
| 14> H   1.86978295 -0.74378444 -1.10855327
| 15> *
| 16>
| 17>                          ****END OF INPUT****

CARTESIAN COORDINATES (ANGSTROEM)
---------------------------------
  O     -0.558551    0.715830    0.079854
  C      0.706629    0.260644    0.503638
  C      1.173944   -0.858102   -0.379612
  H      0.631610    0.177354    1.581109
  H      1.519356    0.967637    0.414114
  H      0.668908   -1.843718   -0.302814
  H      1.869783   -0.743784   -1.108553

 Total Charge           Charge          ....    0
 Multiplicity           Mult            ....    3
 Number of Electrons    NEL             ....   24
 Basis Dimension        Dim             ....  182

ORBITAL ENERGIES
----------------
                 SPIN UP ORBITALS
  NO   OCC          E(Eh)            E(eV)
   0   1.0000     -19.392493      -527.6966
   1   1.0000     -10.411278      -283.3053
   2   1.0000     -10.364544      -282.0336
   3   1.0000      -1.156584       -31.4723
   4   1.0000      -0.878227       -23.8978
   5   1.0000      -0.746389       -20.3103
   6   1.0000      -0.614332       -16.7168
   7   1.0000      -0.584920       -15.9165
   8   1.0000      -0.550667       -14.9844
   9   1.0000      -0.516944       -14.0668
  10   1.0000      -0.438950       -11.9444
  11   1.0000      -0.416299       -11.3281
  12   1.0000      -0.330062        -8.9815
  13   0.0000       0.040720         1.1080
  14   0.0000       0.061277         1.6674
  15   0.0000       0.078312         2.1310
  16   0.0000       0.088595         2.4108
  17   0.0000       0.114768         3.1230

                 SPIN DOWN ORBITALS
  NO   OCC          E(Eh)            E(eV)
   0   1.0000     -19.367235      -527.0093
   1   1.0000     -10.412707      -283.3442
   2   1.0000     -10.351670      -281.6833
   3   1.0000      -1.098508       -29.8919
   4   1.0000      -0.845769       -23.0146
   5   1.0000      -0.721298       -19.6275
   6   1.0000      -0.583734       -15.8842
   7   1.0000      -0.558919       -15.2090
   8   1.0000      -0.522320       -14.2130
   9   1.0000      -0.479621       -13.0512
  10   1.0000      -0.384689       -10.4679
  11   0.0000      -0.054586        -1.4853
  12   0.0000      -0.005042        -0.1372
  13   0.0000       0.039322         1.0700
  14   0.0000       0.061414         1.6712
  15   0.0000       0.078340         2.1318

----------------------------------------------------------------------------------------------------
          SPIN FLIP ABSORPTION SPECTRUM VIA TRANSITION ELECTRIC DIPOLE MOMENTS
----------------------------------------------------------------------------------------------------
     Transition      Energy     Energy  Wavelength fosc(D2)      D2        DX        DY        DZ
                      (eV)      (cm-1)    (nm)                 (au**2)    (au)      (au)      (au)
----------------------------------------------------------------------------------------------------
  1-3A  ->  2-3A    0.211991    1709.8  5848.6   0.000068539   0.01320  -0.08810   0.03565   0.06453
  1-3A  ->  3-3A    1.106834    8927.2  1120.2   0.000378380   0.01395  -0.05270  -0.09703  -0.04196

Dispersion correction             ... done (  0.1 sec)

MULLIKEN ATOMIC CHARGES AND SPIN DENSITIES
------------------------------------------
   0 O :   -0.326153    0.730983
   1 C :   -0.106440    0.108714
   2 C :   -0.248853   -0.726577
   3 H :    0.214061    0.002049
   4 H :    0.197648    0.037739
   5 H :    0.113479   -0.081789
   6 H :    0.156257   -0.071119
Sum of atomic charges       :    0.0000000

LOEWDIN ATOMIC CHARGES AND SPIN DENSITIES
-----------------------------------------
   0 O :    0.037603    0.687482
   1 C :   -0.208244    0.003716
   2 C :    0.320297   -0.569747
   3 H :    0.016079    0.013370
   4 H :    0.009499    0.030434
   5 H :   -0.041601   -0.068082
   6 H :   -0.133633   -0.097173

  Mayer bond orders larger than 0.100000
B(  0-O ,  1-C ) :   0.9333 B(  1-C ,  2-C ) :   0.8443 B(  1-C ,  3-H ) :   0.9474
B(  1-C ,  4-H ) :   0.9564 B(  2-C ,  5-H ) :   1.0414 B(  2-C ,  6-H ) :   1.0286

Dispersion correction           -0.005489194
FINAL SINGLE POINT ENERGY      -153.740319733805

DIPOLE MOMENT
-------------

Method             : TDA/CIS
Type of density    : Electron Density
Level              : Relaxed density
State              :   2
Multiplicity       :   3
Irrep              :   0
Energy             :     0.0000000000000000 Eh
Relativity type    :
Basis              : AO
                                X                 Y                 Z
Electronic contribution:     -2.127894939       1.428709497      -0.040897568
Nuclear contribution   :      2.819701528      -1.584124307       0.261947192
                        -----------------------------------------
Total Dipole Moment    :      0.691806589      -0.155414810       0.221049624
                        -----------------------------------------
Magnitude (a.u.)       :      0.742706574
Magnitude (Debye)      :      1.887810086

Rotational constants in cm-1:             1.327862             0.351136             0.306379
Rotational constants in MHz :         39808.301264         10526.794367          9184.996950

                             ****ORCA TERMINATED NORMALLY****
TOTAL RUN TIME: 0 days 0 hours 0 minutes 27 seconds 275 msec
