                         Program Version 6.0.0  -   RELEASE  -
|  1> ! opt def2-TZVPPD wB97M-D3BJ
|  2> %pal nprocs 8 end%pal nprocs 32 end
|  3> %geom Constraints
|  4> {B 9 8 3.5 C}
|  5> {A 8 9 11 61.42857142857143 C}
|  6> end
|  7> MaxIter 300
|  8> end
|  9> *xyz 0 1
| 10> O   2.98579685529314 0.88758230159078 -0.86184571092411
| 11> O   -0.03983205397054 0.68929041702508 -2.10362336723772
| 12> O   0.93431434349854 -3.13274393337945 -0.68767288184107
| 13> O   -3.75829998830163 -0.84727300865116 -0.0472717177755
| 14> N   0.21184538946282 -1.54604804365365 0.7617588924445
| 15> N   -2.13631993928911 0.03188773433438 1.27350571071531
| 16> N   2.02598672506387 -1.14318467211666 -0.64531219127023
| 17> N   -1.91814233924584 0.03137116037665 -1.04498946748291
| 18> C   1.18097737274226 0.71693507080484 0.70173889017321
| 19> C   -0.20686880480777 1.27024627933494 0.21345042231937
| 20> C   0.41441080275909 -0.34173258966541 1.52336266615173
| 21> C   -0.82922175114212 0.58960593673968 1.44434972027296
| 22> C   1.92822011286806 1.69488653817281 1.5963734975385
| 23> C   -0.37809776891576 2.77134929626422 0.04819649358288
| 24> C   2.1403947470937 0.1972384729179 -0.35038567829864
| 25> C   -0.67361678962426 0.6214190571346 -1.0793014500539
| 26> C   1.04142578622994 -2.02697492875068 -0.21027082435993
| 27> C   -2.68467002550422 -0.30396816036989 0.07167054343891
| 28> H   0.80817443950001 -0.54572267081061 2.51895215321335
| 29> H   -0.83785272399001 1.27240685039143 2.28901317073582
| 30> H   2.31167340578204 2.52284411740894 1.00913016264629
| 31> H   1.28982602448342 2.08257620823614 2.38710022492991
| 32> H   2.77390820759972 1.19140411795486 2.06045858523949
| 33> H   -1.41857211141493 3.00964947214868 -0.16882755561625
| 34> H   -0.09065531563179 3.29799318042223 0.95389844358819
| 35> H   0.23426221611057 3.12492645074476 -0.77764887675592
| 36> H   -0.46772570547622 -2.21560145172536 1.0787081584806
| 37> H   -2.71769301149571 -0.17090724573546 2.06627440900372
| 38> H   2.60065167263658 -1.49057255715425 -1.3966820077142
| 39> H   -2.27169977231386 -0.32388339999036 -1.91951041514436
| 40> *
| 41>
| 42>                          ****END OF INPUT****
 Total Charge           Charge          ....    0
 Multiplicity           Mult            ....    1
 Number of Electrons    NEL             ....  132
Dispersion correction           -0.051080368
FINAL SINGLE POINT ENERGY      -908.600196915907
Dispersion correction             ... done (  0.1 sec)
Dispersion correction           -0.051729718
FINAL SINGLE POINT ENERGY      -908.637776365466
Dispersion correction             ... done (  0.0 sec)
Dispersion correction           -0.052349145
FINAL SINGLE POINT ENERGY      -908.663591398057
Dispersion correction             ... done (  0.0 sec)
FINAL SINGLE POINT ENERGY      -908.687047109838
FINAL SINGLE POINT ENERGY      -908.701813446196
FINAL SINGLE POINT ENERGY      -908.707532339582
FINAL SINGLE POINT ENERGY      -908.711068914403
FINAL SINGLE POINT ENERGY      -908.714157767462
FINAL SINGLE POINT ENERGY      -908.716468722795
FINAL SINGLE POINT ENERGY      -908.718296411384
FINAL SINGLE POINT ENERGY      -908.726498985822
FINAL SINGLE POINT ENERGY      -908.726517974919
FINAL SINGLE POINT ENERGY      -908.726532350337
FINAL SINGLE POINT ENERGY      -908.726545154297
FINAL SINGLE POINT ENERGY      -908.726552130421
FINAL SINGLE POINT ENERGY      -908.726554093346
FINAL SINGLE POINT ENERGY      -908.726551781738
Dispersion correction             ... done (  0.1 sec)
Dispersion correction           -0.056361458
FINAL SINGLE POINT ENERGY      -908.726554747775
Dispersion correction             ... done (  0.1 sec)
Dispersion correction           -0.056359570
FINAL SINGLE POINT ENERGY      -908.726555999174
Dispersion correction             ... done (  0.3 sec)
                    ***********************HURRAY********************

CARTESIAN COORDINATES (ANGSTROEM)
---------------------------------
  O      3.467416    0.459779   -0.711112
  O     -1.077669    1.331131   -2.517089
  O      0.470062   -2.795311   -0.576602
  O     -2.983823   -1.892176   -0.031042
  N      0.403713   -1.264203    1.104763
  N     -2.123084   -0.091858    1.063917
  N      1.580417   -0.817638   -0.847797
  N     -1.679272   -0.415897   -1.184741
  C      1.969274    0.512988    1.104144
  C     -1.076524    1.667790   -0.176304
  C      0.430142    0.107797    1.490557
  C     -1.085714    0.893974    1.109333
  C      2.838257    1.114347    2.122423
  C     -1.000581    3.135518   -0.230841
  C      2.420831    0.106585   -0.188739
  C     -1.265580    0.896971   -1.396804
  C      0.792614   -1.711027   -0.152981
  C     -2.314389   -0.888742   -0.036892
  H      0.388212    0.131625    2.580901
  H     -1.259430    1.566301    1.944497
  H      3.862499    1.161679    1.764575
  H      2.510392    2.123449    2.391798
  H      2.802807    0.527524    3.048137
  H     -2.005513    3.562678   -0.111124
  H     -0.383339    3.538643    0.569204
  H     -0.629009    3.457606   -1.199804
  H     -0.163886   -1.934151    1.597328
  H     -2.554581   -0.425410    1.907330
  H      1.935159   -1.162182   -1.725463
  H     -1.816802   -0.982789   -2.006971

 Multiplicity           Mult            ....    1
 Number of Electrons    NEL             ....  132
 Basis Dimension        Dim             ....  882

ORBITAL ENERGIES
----------------

  NO   OCC          E(Eh)            E(eV)
   0   2.0000     -19.335611      -526.1487
   1   2.0000     -19.326178      -525.8920
   2   2.0000     -19.320278      -525.7315
   3   2.0000     -19.315142      -525.5917
   4   2.0000     -14.569245      -396.4493
   5   2.0000     -14.567325      -396.3971
   6   2.0000     -14.566964      -396.3872
   7   2.0000     -14.547589      -395.8600
   8   2.0000     -10.509898      -285.9889
   9   2.0000     -10.500506      -285.7333
  10   2.0000     -10.485286      -285.3191
  11   2.0000     -10.465153      -284.7713
  12   2.0000     -10.451403      -284.3971
  13   2.0000     -10.450891      -284.3832
  14   2.0000     -10.437763      -284.0260
  15   2.0000     -10.413846      -283.3752
  16   2.0000     -10.380444      -282.4662
  17   2.0000     -10.370226      -282.1882
  18   2.0000      -1.225088       -33.3363
  19   2.0000      -1.213551       -33.0224
  20   2.0000      -1.198728       -32.6191
  21   2.0000      -1.178668       -32.0732
  22   2.0000      -1.119693       -30.4684
  23   2.0000      -1.098232       -29.8844
  24   2.0000      -1.066366       -29.0173
  25   2.0000      -1.050600       -28.5883
  26   2.0000      -0.967616       -26.3302
  27   2.0000      -0.938254       -25.5312
  28   2.0000      -0.877850       -23.8875
  29   2.0000      -0.838930       -22.8285
  30   2.0000      -0.821386       -22.3511
  31   2.0000      -0.802981       -21.8502
  32   2.0000      -0.788883       -21.4666
  33   2.0000      -0.768022       -20.8989
  34   2.0000      -0.699508       -19.0346
  35   2.0000      -0.683747       -18.6057
  36   2.0000      -0.680572       -18.5193
  37   2.0000      -0.657441       -17.8899
  38   2.0000      -0.646516       -17.5926
  39   2.0000      -0.638023       -17.3615
  40   2.0000      -0.619427       -16.8555
  41   2.0000      -0.600016       -16.3273
  42   2.0000      -0.583678       -15.8827
  43   2.0000      -0.580999       -15.8098
  44   2.0000      -0.569219       -15.4892
  45   2.0000      -0.565684       -15.3930
  46   2.0000      -0.565459       -15.3869
  47   2.0000      -0.553045       -15.0491
  48   2.0000      -0.549808       -14.9610
  49   2.0000      -0.546638       -14.8748
  50   2.0000      -0.544495       -14.8165
  51   2.0000      -0.538389       -14.6503
  52   2.0000      -0.529617       -14.4116
  53   2.0000      -0.519253       -14.1296
  54   2.0000      -0.506768       -13.7899
  55   2.0000      -0.501720       -13.6525
  56   2.0000      -0.480296       -13.0695
  57   2.0000      -0.423175       -11.5152
  58   2.0000      -0.416994       -11.3470
  59   2.0000      -0.411323       -11.1927
  60   2.0000      -0.400586       -10.9005
  61   2.0000      -0.393541       -10.7088
  62   2.0000      -0.387444       -10.5429
  63   2.0000      -0.377215       -10.2645
  64   2.0000      -0.370498       -10.0818
  65   2.0000      -0.263057        -7.1581
  66   0.0000      -0.127175        -3.4606
  67   0.0000       0.004476         0.1218
  68   0.0000       0.026651         0.7252
  69   0.0000       0.031394         0.8543
  70   0.0000       0.038842         1.0569

MULLIKEN ATOMIC CHARGES
-----------------------
   0 O :   -0.672972
   1 O :   -0.668586
   2 O :   -0.639803
   3 O :   -0.631863
   4 N :   -0.209784
   5 N :   -0.300511
   6 N :    0.107132
   7 N :    0.064468
   8 C :    0.327490
   9 C :    0.135454
  10 C :    0.107196
  11 C :    0.537819
  12 C :   -1.363172
  13 C :   -1.413574
  14 C :    0.310815
  15 C :    0.539073
  16 C :    0.296859
  17 C :    0.342015
  18 H :    0.473496
  19 H :    0.514077
  20 H :    0.341846
  21 H :    0.262897
  22 H :    0.320563
  23 H :    0.321566
  24 H :    0.325981
  25 H :    0.323553
  26 H :    0.104679
  27 H :    0.068558
  28 H :    0.057036
  29 H :    0.017690
Sum of atomic charges:   -0.0000000

LOEWDIN ATOMIC CHARGES
----------------------
   0 O :    0.078287
   1 O :    0.102422
   2 O :    0.099915
   3 O :    0.104037
   4 N :    0.260371
   5 N :    0.262255
   6 N :    0.313004
   7 N :    0.332402
   8 C :   -0.001112
   9 C :    0.005357
  10 C :   -0.024874
  11 C :   -0.072203
  12 C :    0.160230
  13 C :    0.185903
  14 C :   -0.433608
  15 C :   -0.403476
  16 C :   -0.492521
  17 C :   -0.491406
  18 H :    0.018317
  19 H :    0.036692
  20 H :   -0.003429
  21 H :    0.003690
  22 H :    0.006525
  23 H :    0.020485
  24 H :    0.001343
  25 H :    0.002363
  26 H :   -0.025247
  27 H :   -0.026578
  28 H :   -0.015247
  29 H :   -0.003897

  Mayer bond orders larger than 0.100000
B(  0-O , 14-C ) :   1.3646 B(  1-O , 15-C ) :   1.3665 B(  2-O , 16-C ) :   1.5117
B(  3-O , 17-C ) :   1.5508 B(  4-N ,  8-C ) :   0.2579 B(  4-N , 10-C ) :   0.4184
B(  4-N , 16-C ) :   0.9715 B(  4-N , 26-H ) :   1.0442 B(  5-N ,  9-C ) :   0.3549
B(  5-N , 10-C ) :   0.1118 B(  5-N , 17-C ) :   1.1377 B(  5-N , 27-H ) :   1.0591
B(  6-N , 14-C ) :   1.0140 B(  6-N , 16-C ) :   1.0449 B(  6-N , 28-H ) :   1.0371
B(  7-N , 11-C ) :   0.1287 B(  7-N , 15-C ) :   0.9744 B(  7-N , 17-C ) :   0.9593
B(  7-N , 29-H ) :   1.0914 B(  8-C ,  9-C ) :   0.3681 B(  8-C , 12-C ) :   0.4165
B(  8-C , 14-C ) :   0.9321 B(  8-C , 16-C ) :   0.1223 B(  8-C , 18-H ) :  -0.1296
B(  8-C , 20-H ) :  -0.1028 B(  9-C , 10-C ) :   0.3304 B(  9-C , 11-C ) :  -0.1580
B(  9-C , 13-C ) :   0.5978 B(  9-C , 15-C ) :   0.7978 B(  9-C , 17-C ) :   0.1119
B(  9-C , 19-H ) :  -0.1116 B(  9-C , 25-H ) :  -0.1187 B( 10-C , 11-C ) :   0.7184
B( 10-C , 16-C ) :  -0.1272 B( 10-C , 18-H ) :   0.7985 B( 11-C , 17-C ) :  -0.2219
B( 11-C , 19-H ) :   0.8691 B( 12-C , 20-H ) :   0.9571 B( 12-C , 21-H ) :   0.9755
B( 12-C , 22-H ) :   0.9021 B( 13-C , 23-H ) :   0.8629 B( 13-C , 24-H ) :   0.9399
B( 13-C , 25-H ) :   0.9697

Dispersion correction           -0.056357616
FINAL SINGLE POINT ENERGY      -908.726556202965

DIPOLE MOMENT
-------------

Method             : SCF
Type of density    : Electron Density
Multiplicity       :   1
Irrep              :   0
Energy             :  -908.6701985872732621 Eh
Relativity type    :
Basis              : AO
                                X                 Y                 Z
Electronic contribution:     -3.423377601      -9.175372466      -7.594641562
Nuclear contribution   :      2.698521425      10.831490791      10.257192968
                        -----------------------------------------
Total Dipole Moment    :     -0.724856176       1.656118325       2.662551406
                        -----------------------------------------
Magnitude (a.u.)       :      3.218279722
Magnitude (Debye)      :      8.180216961

Rotational constants in cm-1:             0.019485             0.013456             0.011619
Rotational constants in MHz :           584.139843           403.400455           348.318218

                             ****ORCA TERMINATED NORMALLY****
TOTAL RUN TIME: 0 days 8 hours 26 minutes 28 seconds 388 msec
