                         Program Version 6.0.0  -   RELEASE  -
|  1> ! Engrad def2-TZVPPD wB97M-D3BJ
|  2> %pal nprocs 8 end%pal nprocs 64 end
|  3> %tddft
|  4>  Iroot 1 Nroots 3
|  5> sf true
|  6> end
|  7> *xyz 0 3
|  8> O   1.21278339 0.70690855 0.53210143
|  9> C   -0.01769731 0.33927946 0.18278688
| 10> C   0.03184192 -0.93706118 -0.55741042
| 11> H   -0.46548505 1.23830717 -0.431678
| 12> H   -0.58956413 0.20639294 1.07438699
| 13> H   -0.81866317 -1.62945637 -0.55787673
| 14> H   1.00656819 -1.16926083 -0.90166471
| 15> *
| 16>
| 17>                          ****END OF INPUT****

CARTESIAN COORDINATES (ANGSTROEM)
---------------------------------
  O      1.212783    0.706909    0.532101
  C     -0.017697    0.339279    0.182787
  C      0.031842   -0.937061   -0.557410
  H     -0.465485    1.238307   -0.431678
  H     -0.589564    0.206393    1.074387
  H     -0.818663   -1.629456   -0.557877
  H      1.006568   -1.169261   -0.901665

 Total Charge           Charge          ....    0
 Multiplicity           Mult            ....    3
 Number of Electrons    NEL             ....   24
 Basis Dimension        Dim             ....  182

ORBITAL ENERGIES
----------------
                 SPIN UP ORBITALS
  NO   OCC          E(Eh)            E(eV)
   0   1.0000     -19.384203      -527.4710
   1   1.0000     -10.412251      -283.3318
   2   1.0000     -10.361903      -281.9617
   3   1.0000      -1.184401       -32.2292
   4   1.0000      -0.872400       -23.7392
   5   1.0000      -0.732078       -19.9209
   6   1.0000      -0.620597       -16.8873
   7   1.0000      -0.599146       -16.3036
   8   1.0000      -0.552093       -15.0232
   9   1.0000      -0.516219       -14.0470
  10   1.0000      -0.442674       -12.0458
  11   1.0000      -0.409033       -11.1304
  12   1.0000      -0.318205        -8.6588
  13   0.0000       0.041483         1.1288
  14   0.0000       0.062138         1.6909
  15   0.0000       0.079511         2.1636
  16   0.0000       0.083402         2.2695
  17   0.0000       0.110909         3.0180

                 SPIN DOWN ORBITALS
  NO   OCC          E(Eh)            E(eV)
   0   1.0000     -19.361505      -526.8533
   1   1.0000     -10.413781      -283.3734
   2   1.0000     -10.348577      -281.5991
   3   1.0000      -1.134609       -30.8743
   4   1.0000      -0.838649       -22.8208
   5   1.0000      -0.705660       -19.2020
   6   1.0000      -0.589366       -16.0375
   7   1.0000      -0.552704       -15.0398
   8   1.0000      -0.529521       -14.4090
   9   1.0000      -0.500179       -13.6106
  10   1.0000      -0.379546       -10.3280
  11   0.0000      -0.055977        -1.5232
  12   0.0000       0.003529         0.0960
  13   0.0000       0.040946         1.1142
  14   0.0000       0.061985         1.6867
  15   0.0000       0.079219         2.1556

----------------------------------------------------------------------------------------------------
          SPIN FLIP ABSORPTION SPECTRUM VIA TRANSITION ELECTRIC DIPOLE MOMENTS
----------------------------------------------------------------------------------------------------
     Transition      Energy     Energy  Wavelength fosc(D2)      D2        DX        DY        DZ
                      (eV)      (cm-1)    (nm)                 (au**2)    (au)      (au)      (au)
----------------------------------------------------------------------------------------------------
  1-3A  ->  2-3A    0.285837    2305.4  4337.6   0.000167312   0.02389  -0.00784   0.15149   0.02971
  1-3A  ->  3-3A    0.859370    6931.3  1442.7   0.024573594   1.16716  -0.68489  -0.64864  -0.52665

Dispersion correction             ... done (  0.2 sec)

MULLIKEN ATOMIC CHARGES AND SPIN DENSITIES
------------------------------------------
   0 O :   -0.501679   -0.498090
   1 C :    0.033616   -0.044377
   2 C :   -0.452644    0.464455
   3 H :    0.238330    0.086092
   4 H :    0.203602   -0.078448
   5 H :    0.229768    0.020375
   6 H :    0.249008    0.049994
Sum of atomic charges       :   -0.0000000

LOEWDIN ATOMIC CHARGES AND SPIN DENSITIES
-----------------------------------------
   0 O :   -0.068290   -0.493672
   1 C :   -0.321923   -0.003074
   2 C :    0.353998    0.414833
   3 H :    0.089610    0.040074
   4 H :    0.016904   -0.056924
   5 H :   -0.021894    0.045590
   6 H :   -0.048405    0.053173

  Mayer bond orders larger than 0.100000
B(  0-O ,  1-C ) :   1.0344 B(  0-O ,  2-C ) :   0.3088 B(  1-C ,  2-C ) :   0.8780
B(  1-C ,  3-H ) :   0.9221 B(  1-C ,  4-H ) :   0.9146 B(  2-C ,  5-H ) :   0.9754
B(  2-C ,  6-H ) :   0.9348

Dispersion correction           -0.005579125
FINAL SINGLE POINT ENERGY      -153.756048179456

DIPOLE MOMENT
-------------

Method             : TDA/CIS
Type of density    : Electron Density
Level              : Relaxed density
State              :   1
Multiplicity       :   3
Irrep              :   0
Energy             :     0.0000000000000000 Eh
Relativity type    :
Basis              : AO
                                X                 Y                 Z
Electronic contribution:      1.292626433       0.748829393       0.591794326
Nuclear contribution   :     -2.394782651      -1.496322281      -1.031288592
                        -----------------------------------------
Total Dipole Moment    :     -1.102156218      -0.747492888      -0.439494266
                        -----------------------------------------
Magnitude (a.u.)       :      1.402372688
Magnitude (Debye)      :      3.564548093

Rotational constants in cm-1:             1.421579             0.381014             0.322505
Rotational constants in MHz :         42617.872712         11422.502857          9668.442057

                             ****ORCA TERMINATED NORMALLY****
TOTAL RUN TIME: 0 days 0 hours 0 minutes 27 seconds 266 msec
