                         Program Version 6.0.0  -   RELEASE  -
|  1> ! Engrad wB97M-D3BJ def2-TZVPPD
|  2> %pal nprocs 8 end%pal nprocs 16 end
|  3> %tddft nroots 2 Iroot 1
|  4>  sf true
|  5> end
|  6> *xyz 0 3
|  7> O   0.15883013881521 0.85288595636108 -0.00010103575983
|  8> C   0.72415586006327 -0.3974672670823 3.151815362e-05
|  9> C   -0.69744200323837 -0.48396327459495 -5.835087716e-05
| 10> H   1.26401744467666 -0.67483984370286 0.90395818013518
| 11> H   1.26402819190212 -0.67488351214863 -0.90388219705368
| 12> H   -1.23553191863875 -0.61102380200577 -0.92503285327493
| 13> H   -1.23537557529214 -0.61048256582487 0.9250847386768
| 14> *
| 15>
| 16>                          ****END OF INPUT****

CARTESIAN COORDINATES (ANGSTROEM)
---------------------------------
  O      0.158830    0.852886   -0.000101
  C      0.724156   -0.397467    0.000032
  C     -0.697442   -0.483963   -0.000058
  H      1.264017   -0.674840    0.903958
  H      1.264028   -0.674884   -0.903882
  H     -1.235532   -0.611024   -0.925033
  H     -1.235376   -0.610483    0.925085

 Total Charge           Charge          ....    0
 Multiplicity           Mult            ....    3
 Number of Electrons    NEL             ....   24
 Basis Dimension        Dim             ....  182

ORBITAL ENERGIES
----------------
                 SPIN UP ORBITALS
  NO   OCC          E(Eh)            E(eV)
   0   1.0000     -19.457197      -529.4572
   1   1.0000     -10.418699      -283.5072
   2   1.0000     -10.353457      -281.7319
   3   1.0000      -1.280183       -34.8356
   4   1.0000      -0.861470       -23.4418
   5   1.0000      -0.770656       -20.9706
   6   1.0000      -0.679292       -18.4845
   7   1.0000      -0.642494       -17.4832
   8   1.0000      -0.564356       -15.3569
   9   1.0000      -0.502115       -13.6632
  10   1.0000      -0.491777       -13.3819
  11   1.0000      -0.468443       -12.7470
  12   1.0000      -0.163625        -4.4525
  13   0.0000       0.037753         1.0273
  14   0.0000       0.061988         1.6868
  15   0.0000       0.070992         1.9318
  16   0.0000       0.087175         2.3721
  17   0.0000       0.110878         3.0172

                 SPIN DOWN ORBITALS
  NO   OCC          E(Eh)            E(eV)
   0   1.0000     -19.424342      -528.5632
   1   1.0000     -10.419076      -283.5175
   2   1.0000     -10.343849      -281.4704
   3   1.0000      -1.213239       -33.0139
   4   1.0000      -0.827326       -22.5127
   5   1.0000      -0.751693       -20.4546
   6   1.0000      -0.625567       -17.0225
   7   1.0000      -0.609116       -16.5749
   8   1.0000      -0.526821       -14.3355
   9   1.0000      -0.478420       -13.0185
  10   1.0000      -0.432225       -11.7614
  11   0.0000      -0.108617        -2.9556
  12   0.0000       0.033483         0.9111
  13   0.0000       0.057561         1.5663
  14   0.0000       0.061490         1.6732
  15   0.0000       0.065151         1.7729

----------------------------------------------------------------------------------------------------
          SPIN FLIP ABSORPTION SPECTRUM VIA TRANSITION ELECTRIC DIPOLE MOMENTS
----------------------------------------------------------------------------------------------------
     Transition      Energy     Energy  Wavelength fosc(D2)      D2        DX        DY        DZ
                      (eV)      (cm-1)    (nm)                 (au**2)    (au)      (au)      (au)
----------------------------------------------------------------------------------------------------
  1-3A  ->  2-3A    5.921991   47764.1   209.4   0.007198993   0.04962   0.00010   0.00004  -0.22275

Dispersion correction             ... done (  0.0 sec)

MULLIKEN ATOMIC CHARGES AND SPIN DENSITIES
------------------------------------------
   0 O :   -0.390522    0.066926
   1 C :   -0.106760   -0.106948
   2 C :   -0.466276    0.036376
   3 H :    0.195738    0.022615
   4 H :    0.195733    0.022609
   5 H :    0.286052   -0.020793
   6 H :    0.286036   -0.020785
Sum of atomic charges       :   -0.0000000

LOEWDIN ATOMIC CHARGES AND SPIN DENSITIES
-----------------------------------------
   0 O :   -0.064646    0.031589
   1 C :   -0.150768   -0.009026
   2 C :    0.148099   -0.016500
   3 H :    0.023990    0.003829
   4 H :    0.023991    0.003830
   5 H :    0.009674   -0.006862
   6 H :    0.009659   -0.006860

  Mayer bond orders larger than 0.100000
B(  0-O ,  1-C ) :   0.7979 B(  0-O ,  2-C ) :   0.8816 B(  1-C ,  2-C ) :   0.7224
B(  1-C ,  3-H ) :   1.0288 B(  1-C ,  4-H ) :   1.0288 B(  2-C ,  5-H ) :   0.9157
B(  2-C ,  6-H ) :   0.9157

Dispersion correction           -0.005238678
FINAL SINGLE POINT ENERGY      -153.862012898817

DIPOLE MOMENT
-------------

Method             : TDA/CIS
Type of density    : Electron Density
Level              : Relaxed density
State              :   1
Multiplicity       :   3
Irrep              :   0
Energy             :     0.0000000000000000 Eh
Relativity type    :
Basis              : AO
                                X                 Y                 Z
Electronic contribution:     -0.033430910       1.236835968      -0.000207821
Nuclear contribution   :     -0.193733194      -2.439563192       0.000273252
                        -----------------------------------------
Total Dipole Moment    :     -0.227164104      -1.202727224       0.000065431
                        -----------------------------------------
Magnitude (a.u.)       :      1.223991957
Magnitude (Debye)      :      3.111140308

Rotational constants in cm-1:             0.880328             0.694912             0.459797
Rotational constants in MHz :         26391.572457         20832.939639         13784.381222

                             ****ORCA TERMINATED NORMALLY****
TOTAL RUN TIME: 0 days 0 hours 0 minutes 18 seconds 441 msec
