                         Program Version 6.0.0  -   RELEASE  -
|  1> ! Engrad def2-TZVPPD wB97M-D3BJ
|  2> %pal nprocs 8 end%pal nprocs 64 end
|  3> %tddft Nroots 2 Iroot 1
|  4> sf true
|  5> end
|  6> *xyz 0 3
|  7> O   2.98104474 1.16988282 -0.65066552
|  8> O   -0.59669904 0.57108862 -2.00886
|  9> O   1.13876946 -2.90326846 -1.7147405
| 10> O   -2.93777001 -1.40555415 1.28255229
| 11> N   0.6605954 -2.03565814 0.32123788
| 12> N   -2.36056975 0.76140654 1.63837588
| 13> N   1.94088662 -0.83562915 -1.11719412
| 14> N   -2.0735708 -0.25716475 -0.45416433
| 15> C   1.72947151 0.0076832 1.06608918
| 16> C   -1.04743121 1.8862098 -0.03772442
| 17> C   0.90877748 -1.08211572 1.31022136
| 18> C   -1.65350376 1.86102674 1.26549781
| 19> C   2.20228214 0.90666214 2.16263264
| 20> C   -0.15774545 3.08685711 -0.38211094
| 21> C   2.27449126 0.22907476 -0.24079442
| 22> C   -1.22597398 0.76334408 -0.94789703
| 23> C   1.27785437 -1.98408479 -0.88585509
| 24> C   -2.49736292 -0.39310639 0.83911008
| 25> H   0.38935051 -1.32277598 2.20558843
| 26> H   -1.71471889 2.70780395 1.97598398
| 27> H   2.10290857 1.91160874 1.92105506
| 28> H   1.62235667 0.66443775 3.03358731
| 29> H   3.21985113 0.74753793 2.33752808
| 30> H   -0.32265958 3.40403707 -1.43038671
| 31> H   -0.36159831 3.92035737 0.25785297
| 32> H   0.89098648 2.80941566 -0.35512592
| 33> H   0.08129604 -2.92894516 0.41036517
| 34> H   -2.82170952 0.6534013 2.5494529
| 35> H   2.20116969 -0.73785734 -2.08777163
| 36> H   -2.00063179 -1.21863854 -0.86427711
| 37> *
| 38>
| 39>                          ****END OF INPUT****

CARTESIAN COORDINATES (ANGSTROEM)
---------------------------------
  O      2.981045    1.169883   -0.650666
  O     -0.596699    0.571089   -2.008860
  O      1.138769   -2.903268   -1.714741
  O     -2.937770   -1.405554    1.282552
  N      0.660595   -2.035658    0.321238
  N     -2.360570    0.761407    1.638376
  N      1.940887   -0.835629   -1.117194
  N     -2.073571   -0.257165   -0.454164
  C      1.729472    0.007683    1.066089
  C     -1.047431    1.886210   -0.037724
  C      0.908777   -1.082116    1.310221
  C     -1.653504    1.861027    1.265498
  C      2.202282    0.906662    2.162633
  C     -0.157745    3.086857   -0.382111
  C      2.274491    0.229075   -0.240794
  C     -1.225974    0.763344   -0.947897
  C      1.277854   -1.984085   -0.885855
  C     -2.497363   -0.393106    0.839110
  H      0.389351   -1.322776    2.205588
  H     -1.714719    2.707804    1.975984
  H      2.102909    1.911609    1.921055
  H      1.622357    0.664438    3.033587
  H      3.219851    0.747538    2.337528
  H     -0.322660    3.404037   -1.430387
  H     -0.361598    3.920357    0.257853
  H      0.890986    2.809416   -0.355126
  H      0.081296   -2.928945    0.410365
  H     -2.821710    0.653401    2.549453
  H      2.201170   -0.737857   -2.087772
  H     -2.000632   -1.218639   -0.864277

 Total Charge           Charge          ....    0
 Multiplicity           Mult            ....    3
 Number of Electrons    NEL             ....  132
 Basis Dimension        Dim             ....  882

ORBITAL ENERGIES
----------------
                 SPIN UP ORBITALS
  NO   OCC          E(Eh)            E(eV)
   0   1.0000     -19.341969      -526.3217
   1   1.0000     -19.330809      -526.0181
   2   1.0000     -19.324494      -525.8462
   3   1.0000     -19.307876      -525.3940
   4   1.0000     -14.595190      -397.1553
   5   1.0000     -14.585425      -396.8896
   6   1.0000     -14.562990      -396.2791
   7   1.0000     -14.560844      -396.2207
   8   1.0000     -10.515204      -286.1333
   9   1.0000     -10.498101      -285.6679
  10   1.0000     -10.482556      -285.2448
  11   1.0000     -10.474059      -285.0136
  12   1.0000     -10.446382      -284.2605
  13   1.0000     -10.427613      -283.7498
  14   1.0000     -10.413215      -283.3580
  15   1.0000     -10.389337      -282.7082
  16   1.0000     -10.367997      -282.1275
  17   1.0000     -10.349542      -281.6253
  18   1.0000      -1.241910       -33.7941
  19   1.0000      -1.207083       -32.8464
  20   1.0000      -1.181768       -32.1575
  21   1.0000      -1.170632       -31.8545
  22   1.0000      -1.124652       -30.6033
  23   1.0000      -1.104129       -30.0449
  24   1.0000      -1.066440       -29.0193
  25   1.0000      -1.060113       -28.8471
  26   1.0000      -0.959747       -26.1160
  27   1.0000      -0.956724       -26.0338
  28   1.0000      -0.854584       -23.2544
  29   1.0000      -0.848233       -23.0816
  30   1.0000      -0.817663       -22.2497
  31   1.0000      -0.816626       -22.2215
  32   1.0000      -0.784624       -21.3507
  33   1.0000      -0.783430       -21.3182
  34   1.0000      -0.697515       -18.9803
  35   1.0000      -0.689737       -18.7687
  36   1.0000      -0.686874       -18.6908
  37   1.0000      -0.683684       -18.6040
  38   1.0000      -0.640214       -17.4211
  39   1.0000      -0.633016       -17.2253
  40   1.0000      -0.619070       -16.8458
  41   1.0000      -0.606493       -16.5035
  42   1.0000      -0.597965       -16.2714
  43   1.0000      -0.592865       -16.1327
  44   1.0000      -0.572392       -15.5756
  45   1.0000      -0.565993       -15.4015
  46   1.0000      -0.552583       -15.0366
  47   1.0000      -0.551447       -15.0056
  48   1.0000      -0.549968       -14.9654
  49   1.0000      -0.547712       -14.9040
  50   1.0000      -0.531099       -14.4519
  51   1.0000      -0.520313       -14.1584
  52   1.0000      -0.518930       -14.1208
  53   1.0000      -0.513071       -13.9614
  54   1.0000      -0.509818       -13.8728
  55   1.0000      -0.502999       -13.6873
  56   1.0000      -0.499056       -13.5800
  57   1.0000      -0.466446       -12.6926
  58   1.0000      -0.433721       -11.8022
  59   1.0000      -0.414042       -11.2667
  60   1.0000      -0.404673       -11.0117
  61   1.0000      -0.394297       -10.7294
  62   1.0000      -0.388060       -10.5596
  63   1.0000      -0.383660       -10.4399
  64   1.0000      -0.380052       -10.3417
  65   1.0000      -0.341911        -9.3039
  66   1.0000      -0.230881        -6.2826
  67   0.0000       0.006599         0.1796
  68   0.0000       0.012021         0.3271
  69   0.0000       0.028111         0.7649
  70   0.0000       0.036497         0.9931
  71   0.0000       0.041264         1.1228

                 SPIN DOWN ORBITALS
  NO   OCC          E(Eh)            E(eV)
   0   1.0000     -19.340403      -526.2791
   1   1.0000     -19.324487      -525.8460
   2   1.0000     -19.323744      -525.8258
   3   1.0000     -19.307850      -525.3933
   4   1.0000     -14.590444      -397.0262
   5   1.0000     -14.585370      -396.8881
   6   1.0000     -14.562107      -396.2551
   7   1.0000     -14.560838      -396.2205
   8   1.0000     -10.515447      -286.1399
   9   1.0000     -10.498095      -285.6677
  10   1.0000     -10.482560      -285.2450
  11   1.0000     -10.473966      -285.0111
  12   1.0000     -10.446251      -284.2569
  13   1.0000     -10.418007      -283.4884
  14   1.0000     -10.402733      -283.0728
  15   1.0000     -10.389319      -282.7077
  16   1.0000     -10.368383      -282.1381
  17   1.0000     -10.349519      -281.6247
  18   1.0000      -1.238714       -33.7071
  19   1.0000      -1.207009       -32.8444
  20   1.0000      -1.171623       -31.8815
  21   1.0000      -1.170548       -31.8522
  22   1.0000      -1.113646       -30.3038
  23   1.0000      -1.104021       -30.0419
  24   1.0000      -1.061401       -28.8822
  25   1.0000      -1.059294       -28.8249
  26   1.0000      -0.958296       -26.0766
  27   1.0000      -0.934965       -25.4417
  28   1.0000      -0.854432       -23.2503
  29   1.0000      -0.837308       -22.7843
  30   1.0000      -0.816996       -22.2316
  31   1.0000      -0.803974       -21.8772
  32   1.0000      -0.783454       -21.3189
  33   1.0000      -0.779446       -21.2098
  34   1.0000      -0.689919       -18.7736
  35   1.0000      -0.688916       -18.7463
  36   1.0000      -0.683679       -18.6039
  37   1.0000      -0.674594       -18.3566
  38   1.0000      -0.633201       -17.2303
  39   1.0000      -0.629688       -17.1347
  40   1.0000      -0.612438       -16.6653
  41   1.0000      -0.599877       -16.3235
  42   1.0000      -0.592787       -16.1306
  43   1.0000      -0.590873       -16.0785
  44   1.0000      -0.564631       -15.3644
  45   1.0000      -0.557487       -15.1700
  46   1.0000      -0.552107       -15.0236
  47   1.0000      -0.547769       -14.9055
  48   1.0000      -0.544373       -14.8131
  49   1.0000      -0.535467       -14.5708
  50   1.0000      -0.519376       -14.1329
  51   1.0000      -0.518891       -14.1197
  52   1.0000      -0.511830       -13.9276
  53   1.0000      -0.503392       -13.6980
  54   1.0000      -0.502431       -13.6718
  55   1.0000      -0.499937       -13.6040
  56   1.0000      -0.465450       -12.6655
  57   1.0000      -0.459407       -12.5011
  58   1.0000      -0.427207       -11.6249
  59   1.0000      -0.404591       -11.0095
  60   1.0000      -0.395083       -10.7508
  61   1.0000      -0.385525       -10.4907
  62   1.0000      -0.381958       -10.3936
  63   1.0000      -0.381233       -10.3739
  64   1.0000      -0.342487        -9.3195
  65   0.0000      -0.096434        -2.6241
  66   0.0000       0.007155         0.1947
  67   0.0000       0.011630         0.3165
  68   0.0000       0.027107         0.7376
  69   0.0000       0.033997         0.9251

----------------------------------------------------------------------------------------------------
          SPIN FLIP ABSORPTION SPECTRUM VIA TRANSITION ELECTRIC DIPOLE MOMENTS
----------------------------------------------------------------------------------------------------
     Transition      Energy     Energy  Wavelength fosc(D2)      D2        DX        DY        DZ
                      (eV)      (cm-1)    (nm)                 (au**2)    (au)      (au)      (au)
----------------------------------------------------------------------------------------------------
  1-3A  ->  2-3A    3.350559   27024.1   370.0   0.001298072   0.01581  -0.01821   0.05141   0.11331

Dispersion correction             ... done (  0.1 sec)

MULLIKEN ATOMIC CHARGES AND SPIN DENSITIES
------------------------------------------
   0 O :   -0.704676   -0.000806
   1 O :   -0.675416    0.037164
   2 O :   -0.714380   -0.000249
   3 O :   -0.615141    0.006006
   4 N :   -0.077934   -0.000095
   5 N :   -0.015255    0.046079
   6 N :    0.037645    0.000756
   7 N :   -0.064545    0.003832
   8 C :    0.767531   -0.018143
   9 C :    0.924025    0.574785
  10 C :   -0.109703    0.012351
  11 C :   -0.252459   -0.425703
  12 C :   -1.594703   -0.005533
  13 C :   -1.261152   -0.062265
  14 C :    0.517041    0.012937
  15 C :    0.317557   -0.256169
  16 C :    0.515864    0.000271
  17 C :    0.413793    0.011263
  18 H :    0.184731   -0.003512
  19 H :    0.184462    0.030235
  20 H :    0.274810    0.001111
  21 H :    0.381070    0.000732
  22 H :    0.370627   -0.000763
  23 H :    0.321894   -0.006048
  24 H :    0.370461    0.018694
  25 H :    0.155379    0.020038
  26 H :    0.142483   -0.000280
  27 H :    0.065182    0.001498
  28 H :    0.011713   -0.000194
  29 H :    0.129093    0.002008
Sum of atomic charges       :    0.0000000

LOEWDIN ATOMIC CHARGES AND SPIN DENSITIES
-----------------------------------------
   0 O :    0.062839   -0.000103
   1 O :    0.045528    0.031551
   2 O :    0.041020   -0.000108
   3 O :    0.098013    0.004778
   4 N :    0.243865   -0.000135
   5 N :    0.253580    0.017765
   6 N :    0.332856    0.000179
   7 N :    0.308546   -0.000486
   8 C :   -0.119956   -0.000518
   9 C :   -0.098949   -0.028798
  10 C :    0.098605   -0.000516
  11 C :    0.081614   -0.029540
  12 C :    0.204585   -0.000091
  13 C :    0.179737   -0.003385
  14 C :   -0.363027    0.000091
  15 C :   -0.383731    0.009950
  16 C :   -0.501608    0.000054
  17 C :   -0.507217   -0.000073
  18 H :    0.018843   -0.000003
  19 H :    0.046729   -0.002261
  20 H :   -0.040645   -0.000038
  21 H :   -0.009339   -0.000042
  22 H :   -0.023475    0.000022
  23 H :    0.010757   -0.000200
  24 H :   -0.027618    0.000241
  25 H :   -0.029223   -0.000245
  26 H :    0.051368   -0.000007
  27 H :    0.001061    0.001749
  28 H :   -0.001486    0.000041
  29 H :    0.026731    0.000128

  Mayer bond orders larger than 0.100000
B(  0-O , 14-C ) :   1.3713 B(  1-O , 15-C ) :   1.4223 B(  2-O , 16-C ) :   1.5058
B(  3-O , 17-C ) :   1.5328 B(  4-N , 10-C ) :   1.0058 B(  4-N , 16-C ) :   1.0461
B(  4-N , 26-H ) :   1.0390 B(  5-N , 11-C ) :   0.9981 B(  5-N , 17-C ) :   0.9996
B(  5-N , 27-H ) :   1.1061 B(  6-N , 14-C ) :   0.9644 B(  6-N , 16-C ) :   0.9752
B(  6-N , 28-H ) :   1.1248 B(  7-N , 15-C ) :   0.9257 B(  7-N , 17-C ) :   1.0105
B(  7-N , 29-H ) :   0.9984 B(  8-C , 10-C ) :   1.1388 B(  8-C , 12-C ) :   0.2456
B(  8-C , 14-C ) :   0.7802 B(  8-C , 20-H ) :  -0.1115 B(  9-C , 11-C ) :   1.0609
B(  9-C , 13-C ) :   0.4704 B(  9-C , 15-C ) :   0.8003 B( 10-C , 14-C ) :  -0.1275
B( 10-C , 18-H ) :   1.1202 B( 11-C , 19-H ) :   1.0775 B( 12-C , 14-C ) :  -0.1085
B( 12-C , 20-H ) :   1.0572 B( 12-C , 21-H ) :   0.9038 B( 12-C , 22-H ) :   0.8551
B( 13-C , 23-H ) :   0.9811 B( 13-C , 24-H ) :   0.9343 B( 13-C , 25-H ) :   0.9742

Dispersion correction           -0.054381915
FINAL SINGLE POINT ENERGY      -908.878145572200

DIPOLE MOMENT
-------------

Method             : TDA/CIS
Type of density    : Electron Density
Level              : Relaxed density
State              :   1
Multiplicity       :   3
Irrep              :   0
Energy             :     0.0000000000000000 Eh
Relativity type    :
Basis              : AO
                                X                 Y                 Z
Electronic contribution:     -3.786890393      -8.901358786      -5.645941909
Nuclear contribution   :      2.688249530       9.908177735       8.582637103
                        -----------------------------------------
Total Dipole Moment    :     -1.098640863       1.006818949       2.936695194
                        -----------------------------------------
Magnitude (a.u.)       :      3.293155752
Magnitude (Debye)      :      8.370536704

Rotational constants in cm-1:             0.017997             0.013325             0.011063
Rotational constants in MHz :           539.540946           399.461928           331.671507

                             ****ORCA TERMINATED NORMALLY****
TOTAL RUN TIME: 0 days 0 hours 5 minutes 47 seconds 685 msec
