                         Program Version 6.0.0  -   RELEASE  -
|  1> ! Engrad wB97M-D3BJ def2-TZVPPD
|  2> %pal nprocs 8 end%pal nprocs 16 end
|  3> %tddft nroots 2 Iroot 2
|  4>  sf true
|  5> end
|  6> *xyz 0 3
|  7> O   0.36697830137089 0.93006150839828 -0.00034548909656
|  8> C   0.73512331010449 -0.3666205150644 -0.00013009362684
|  9> C   -0.67074552472979 -0.54436928567605 -0.00014532067911
| 10> H   1.26935612228399 -0.70419199484327 0.89325992805004
| 11> H   1.26970852925442 -0.70459329313556 -0.89316150731315
| 12> H   -1.21718309293053 -0.56687522793385 -0.92805539577289
| 13> H   -1.2159169357911 -0.56540602703629 0.92857787843851
| 14> *
| 15>
| 16>                          ****END OF INPUT****

CARTESIAN COORDINATES (ANGSTROEM)
---------------------------------
  O      0.366978    0.930062   -0.000345
  C      0.735123   -0.366621   -0.000130
  C     -0.670746   -0.544369   -0.000145
  H      1.269356   -0.704192    0.893260
  H      1.269709   -0.704593   -0.893162
  H     -1.217183   -0.566875   -0.928055
  H     -1.215917   -0.565406    0.928578

 Total Charge           Charge          ....    0
 Multiplicity           Mult            ....    3
 Number of Electrons    NEL             ....   24
 Basis Dimension        Dim             ....  182

ORBITAL ENERGIES
----------------
                 SPIN UP ORBITALS
  NO   OCC          E(Eh)            E(eV)
   0   1.0000     -19.422066      -528.5013
   1   1.0000     -10.408576      -283.2317
   2   1.0000     -10.334331      -281.2114
   3   1.0000      -1.233875       -33.5754
   4   1.0000      -0.861419       -23.4404
   5   1.0000      -0.747379       -20.3372
   6   1.0000      -0.654577       -17.8119
   7   1.0000      -0.618442       -16.8287
   8   1.0000      -0.549885       -14.9631
   9   1.0000      -0.501012       -13.6332
  10   1.0000      -0.464702       -12.6452
  11   1.0000      -0.449473       -12.2308
  12   1.0000      -0.235130        -6.3982
  13   0.0000       0.040173         1.0932
  14   0.0000       0.063595         1.7305
  15   0.0000       0.072152         1.9634
  16   0.0000       0.085555         2.3281
  17   0.0000       0.114965         3.1284

                 SPIN DOWN ORBITALS
  NO   OCC          E(Eh)            E(eV)
   0   1.0000     -19.391537      -527.6706
   1   1.0000     -10.409560      -283.2585
   2   1.0000     -10.322131      -280.8795
   3   1.0000      -1.170252       -31.8442
   4   1.0000      -0.826833       -22.4993
   5   1.0000      -0.727258       -19.7897
   6   1.0000      -0.608028       -16.5453
   7   1.0000      -0.581734       -15.8298
   8   1.0000      -0.522295       -14.2124
   9   1.0000      -0.471161       -12.8209
  10   1.0000      -0.400328       -10.8935
  11   0.0000      -0.084532        -2.3002
  12   0.0000       0.037551         1.0218
  13   0.0000       0.047915         1.3038
  14   0.0000       0.062868         1.7107
  15   0.0000       0.069700         1.8966

----------------------------------------------------------------------------------------------------
          SPIN FLIP ABSORPTION SPECTRUM VIA TRANSITION ELECTRIC DIPOLE MOMENTS
----------------------------------------------------------------------------------------------------
     Transition      Energy     Energy  Wavelength fosc(D2)      D2        DX        DY        DZ
                      (eV)      (cm-1)    (nm)                 (au**2)    (au)      (au)      (au)
----------------------------------------------------------------------------------------------------
  1-3A  ->  2-3A    5.081994   40989.1   244.0   0.226592085   1.81992   0.88405   1.01900  -0.00050

Dispersion correction             ... done (  0.0 sec)

MULLIKEN ATOMIC CHARGES AND SPIN DENSITIES
------------------------------------------
   0 O :   -0.428218   -0.136972
   1 C :   -0.002080   -0.217059
   2 C :   -0.471442    0.284064
   3 H :    0.215353    0.017744
   4 H :    0.215232    0.015589
   5 H :    0.235810    0.018274
   6 H :    0.235345    0.018360
Sum of atomic charges       :    0.0000000

LOEWDIN ATOMIC CHARGES AND SPIN DENSITIES
-----------------------------------------
   0 O :   -0.041861   -0.122006
   1 C :   -0.193553   -0.131700
   2 C :    0.222052    0.187717
   3 H :    0.034264   -0.008176
   4 H :    0.034033   -0.009609
   5 H :   -0.027503    0.042027
   6 H :   -0.027432    0.041747

  Mayer bond orders larger than 0.100000
B(  0-O ,  1-C ) :   0.8431 B(  0-O ,  2-C ) :   0.7335 B(  1-C ,  2-C ) :   0.6940
B(  1-C ,  3-H ) :   0.9870 B(  1-C ,  4-H ) :   0.9877 B(  2-C ,  5-H ) :   0.9780
B(  2-C ,  6-H ) :   0.9785

Dispersion correction           -0.005387342
FINAL SINGLE POINT ENERGY      -153.643706414977

DIPOLE MOMENT
-------------

Method             : TDA/CIS
Type of density    : Electron Density
Level              : Relaxed density
State              :   2
Multiplicity       :   3
Irrep              :   0
Energy             :     0.0000000000000000 Eh
Relativity type    :
Basis              : AO
                                X                 Y                 Z
Electronic contribution:      0.482972725       1.640732120       0.000059080
Nuclear contribution   :     -0.472546344      -2.487956880       0.001279509
                        -----------------------------------------
Total Dipole Moment    :      0.010426382      -0.847224759       0.001338588
                        -----------------------------------------
Magnitude (a.u.)       :      0.847289971
Magnitude (Debye)      :      2.153639952

Rotational constants in cm-1:             0.976983             0.575335             0.422880
Rotational constants in MHz :         29289.209003         17248.096569         12677.623156

                             ****ORCA TERMINATED NORMALLY****
TOTAL RUN TIME: 0 days 0 hours 0 minutes 17 seconds 160 msec
