                         Program Version 6.0.0  -   RELEASE  -
|  1> ! Opt wB97M-D3BJ def2-TZVPPD
|  2> %pal nprocs 8 end %pal nprocs 64 end
|  3> %geom
|  4> Constraints
|  5>     {A 2 1 0 101.81818181818181 C }
|  6> end
|  7> MaxIter 500
|  8> end
|  9> *xyz 0 1
| 10> O   -0.0007 0.8141 0.0
| 11> C   0.7509 -0.4065 0.0
| 12> C   -0.7502 -0.4076 0.0
| 13> H   1.2625 -0.6786 0.9136
| 14> H   1.2625 -0.6787 -0.9136
| 15> H   -1.2614 -0.6806 -0.9136
| 16> H   -1.2614 -0.6805 0.9136
| 17> *
| 18>
| 19>                          ****END OF INPUT****
 Total Charge           Charge          ....    0
 Multiplicity           Mult            ....    1
 Number of Electrons    NEL             ....   24
Dispersion correction           -0.005790685
FINAL SINGLE POINT ENERGY      -153.732719030187
Dispersion correction             ... done (  0.2 sec)
Dispersion correction           -0.005695121
FINAL SINGLE POINT ENERGY      -153.773623401062
Dispersion correction             ... done (  0.1 sec)
Dispersion correction           -0.005644065
FINAL SINGLE POINT ENERGY      -153.785793692065
Dispersion correction             ... done (  0.1 sec)
FINAL SINGLE POINT ENERGY      -153.791238320732
FINAL SINGLE POINT ENERGY      -153.792639020870
FINAL SINGLE POINT ENERGY      -153.792917697200
FINAL SINGLE POINT ENERGY      -153.793039236611
FINAL SINGLE POINT ENERGY      -153.793116044439
FINAL SINGLE POINT ENERGY      -153.793161573092
FINAL SINGLE POINT ENERGY      -153.793214042316
FINAL SINGLE POINT ENERGY      -153.793261139616
FINAL SINGLE POINT ENERGY      -153.793295685397
FINAL SINGLE POINT ENERGY      -153.793315035700
Dispersion correction             ... done (  0.1 sec)
Dispersion correction           -0.005643538
FINAL SINGLE POINT ENERGY      -153.793323375345
Dispersion correction             ... done (  0.2 sec)
Dispersion correction           -0.005644493
FINAL SINGLE POINT ENERGY      -153.793325766992
Dispersion correction             ... done (  0.2 sec)
                    ***********************HURRAY********************

CARTESIAN COORDINATES (ANGSTROEM)
---------------------------------
  O      0.434250    1.065487   -0.002884
  C      0.612463   -0.261435   -0.000592
  C     -0.746222   -0.741703    0.000761
  H      1.162397   -0.625805    0.881044
  H      1.162280   -0.628933   -0.880971
  H     -1.312299   -0.765140   -0.921387
  H     -1.310667   -0.760872    0.924029

 Multiplicity           Mult            ....    1
 Number of Electrons    NEL             ....   24
 Basis Dimension        Dim             ....  182

ORBITAL ENERGIES
----------------

  NO   OCC          E(Eh)            E(eV)
   0   2.0000     -19.328261      -525.9487
   1   2.0000     -10.447932      -284.3027
   2   2.0000     -10.397226      -282.9229
   3   2.0000      -1.125796       -30.6345
   4   2.0000      -0.884967       -24.0812
   5   2.0000      -0.733636       -19.9632
   6   2.0000      -0.624940       -17.0055
   7   2.0000      -0.573096       -15.5947
   8   2.0000      -0.517929       -14.0936
   9   2.0000      -0.512303       -13.9405
  10   2.0000      -0.366800        -9.9811
  11   2.0000      -0.352577        -9.5941
  12   0.0000      -0.063417        -1.7257
  13   0.0000       0.035930         0.9777
  14   0.0000       0.061269         1.6672
  15   0.0000       0.076280         2.0757
  16   0.0000       0.098427         2.6783

MULLIKEN ATOMIC CHARGES
-----------------------
   0 O :   -0.512092
   1 C :   -0.114779
   2 C :   -0.231753
   3 H :    0.212864
   4 H :    0.212965
   5 H :    0.216339
   6 H :    0.216455
Sum of atomic charges:    0.0000000

LOEWDIN ATOMIC CHARGES
----------------------
   0 O :   -0.018580
   1 C :   -0.406856
   2 C :    0.398353
   3 H :    0.021831
   4 H :    0.021827
   5 H :   -0.008283
   6 H :   -0.008292

  Mayer bond orders larger than 0.100000
B(  0-O ,  1-C ) :   0.7447 B(  0-O ,  2-C ) :   0.8835 B(  1-C ,  2-C ) :   0.7871
B(  1-C ,  3-H ) :   1.0415 B(  1-C ,  4-H ) :   1.0414 B(  2-C ,  5-H ) :   0.9681
B(  2-C ,  6-H ) :   0.9681

Dispersion correction           -0.005645131
FINAL SINGLE POINT ENERGY      -153.793326329162

DIPOLE MOMENT
-------------

Method             : SCF
Type of density    : Electron Density
Multiplicity       :   1
Irrep              :   0
Energy             :  -153.7876811985683503 Eh
Relativity type    :
Basis              : AO
                                X                 Y                 Z
Electronic contribution:      0.106536294       1.414463676      -0.003382047
Nuclear contribution   :     -0.704481503      -2.780800494       0.006042697
                        -----------------------------------------
Total Dipole Moment    :     -0.597945209      -1.366336818       0.002660650
                        -----------------------------------------
Magnitude (a.u.)       :      1.491449581
Magnitude (Debye)      :      3.790963562

Rotational constants in cm-1:             1.210733             0.422355             0.356590
Rotational constants in MHz :         36296.868551         12661.870622         10690.290392

                             ****ORCA TERMINATED NORMALLY****
TOTAL RUN TIME: 0 days 0 hours 3 minutes 48 seconds 583 msec
