                         Program Version 6.0.0  -   RELEASE  -
|  1> ! Engrad def2-TZVPPD wB97M-D3BJ
|  2> %pal nprocs 8 end%pal nprocs 64 end
|  3> %tddft Nroots 2 Iroot 1
|  4> sf true
|  5> end
|  6> *xyz 0 3
|  7> O   2.34313038 1.32537801 -0.41608998
|  8> O   -0.59767037 0.85084614 -2.3496631
|  9> O   0.66966585 -2.76292596 -1.47942232
| 10> O   -2.40434074 -1.59938269 1.11666761
| 11> N   0.77155686 -2.18532395 0.68618758
| 12> N   -2.07610599 0.64177615 1.3629097
| 13> N   1.69838293 -0.83446277 -0.90548534
| 14> N   -1.4719519 -0.38911942 -0.62603846
| 15> C   1.5958092 -0.05102001 1.35619767
| 16> C   -1.07403321 2.01509568 -0.35905568
| 17> C   0.96496972 -1.26979244 1.67125317
| 18> C   -1.61679047 1.83303529 0.90942356
| 19> C   1.84251994 1.0167627 2.37053423
| 20> C   -0.48584648 3.26665894 -0.84540861
| 21> C   1.90349703 0.27357095 -0.06269938
| 22> C   -1.03216037 0.80667566 -1.23274926
| 23> C   1.07057743 -1.99988679 -0.61944214
| 24> C   -1.96007297 -0.54038237 0.66318075
| 25> H   0.5839705 -1.53174182 2.62953581
| 26> H   -1.59890468 2.69081844 1.56563275
| 27> H   0.91545084 1.56710214 2.51524087
| 28> H   2.15253888 0.57513915 3.31404337
| 29> H   2.59191443 1.66327888 1.95361183
| 30> H   -1.30676203 3.81367115 -1.29086947
| 31> H   -0.02302266 3.80658955 0.08551112
| 32> H   0.39359567 3.10837219 -1.50454992
| 33> H   0.20492321 -3.01404243 0.81759186
| 34> H   -2.51081983 0.65206102 2.27251651
| 35> H   1.68490685 -0.68440842 -1.893922
| 36> H   -1.47212876 -1.21327001 -1.22710066
| 37> *
| 38>
| 39>                          ****END OF INPUT****

CARTESIAN COORDINATES (ANGSTROEM)
---------------------------------
  O      2.343130    1.325378   -0.416090
  O     -0.597670    0.850846   -2.349663
  O      0.669666   -2.762926   -1.479422
  O     -2.404341   -1.599383    1.116668
  N      0.771557   -2.185324    0.686188
  N     -2.076106    0.641776    1.362910
  N      1.698383   -0.834463   -0.905485
  N     -1.471952   -0.389119   -0.626038
  C      1.595809   -0.051020    1.356198
  C     -1.074033    2.015096   -0.359056
  C      0.964970   -1.269792    1.671253
  C     -1.616790    1.833035    0.909424
  C      1.842520    1.016763    2.370534
  C     -0.485846    3.266659   -0.845409
  C      1.903497    0.273571   -0.062699
  C     -1.032160    0.806676   -1.232749
  C      1.070577   -1.999887   -0.619442
  C     -1.960073   -0.540382    0.663181
  H      0.583970   -1.531742    2.629536
  H     -1.598905    2.690818    1.565633
  H      0.915451    1.567102    2.515241
  H      2.152539    0.575139    3.314043
  H      2.591914    1.663279    1.953612
  H     -1.306762    3.813671   -1.290869
  H     -0.023023    3.806590    0.085511
  H      0.393596    3.108372   -1.504550
  H      0.204923   -3.014042    0.817592
  H     -2.510820    0.652061    2.272517
  H      1.684907   -0.684408   -1.893922
  H     -1.472129   -1.213270   -1.227101

 Total Charge           Charge          ....    0
 Multiplicity           Mult            ....    3
 Number of Electrons    NEL             ....  132
 Basis Dimension        Dim             ....  882

ORBITAL ENERGIES
----------------
                 SPIN UP ORBITALS
  NO   OCC          E(Eh)            E(eV)
   0   1.0000     -19.328985      -525.9684
   1   1.0000     -19.326611      -525.9038
   2   1.0000     -19.326238      -525.8937
   3   1.0000     -19.324345      -525.8422
   4   1.0000     -14.588583      -396.9755
   5   1.0000     -14.585395      -396.8888
   6   1.0000     -14.575163      -396.6104
   7   1.0000     -14.549875      -395.9222
   8   1.0000     -10.520542      -286.2785
   9   1.0000     -10.502035      -285.7749
  10   1.0000     -10.478622      -285.1378
  11   1.0000     -10.470052      -284.9046
  12   1.0000     -10.431582      -283.8578
  13   1.0000     -10.408710      -283.2354
  14   1.0000     -10.397970      -282.9432
  15   1.0000     -10.380936      -282.4796
  16   1.0000     -10.365229      -282.0522
  17   1.0000     -10.357107      -281.8312
  18   1.0000      -1.228630       -33.4327
  19   1.0000      -1.218320       -33.1522
  20   1.0000      -1.202846       -32.7311
  21   1.0000      -1.195534       -32.5321
  22   1.0000      -1.122539       -30.5458
  23   1.0000      -1.121177       -30.5088
  24   1.0000      -1.070625       -29.1332
  25   1.0000      -1.068720       -29.0814
  26   1.0000      -0.961913       -26.1750
  27   1.0000      -0.945705       -25.7339
  28   1.0000      -0.856940       -23.3185
  29   1.0000      -0.844040       -22.9675
  30   1.0000      -0.811225       -22.0746
  31   1.0000      -0.804085       -21.8803
  32   1.0000      -0.790740       -21.5171
  33   1.0000      -0.787994       -21.4424
  34   1.0000      -0.693243       -18.8641
  35   1.0000      -0.690229       -18.7821
  36   1.0000      -0.688689       -18.7402
  37   1.0000      -0.686849       -18.6901
  38   1.0000      -0.643991       -17.5239
  39   1.0000      -0.639174       -17.3928
  40   1.0000      -0.629265       -17.1232
  41   1.0000      -0.599975       -16.3261
  42   1.0000      -0.595383       -16.2012
  43   1.0000      -0.592578       -16.1249
  44   1.0000      -0.572424       -15.5764
  45   1.0000      -0.564092       -15.3497
  46   1.0000      -0.562566       -15.3082
  47   1.0000      -0.561255       -15.2725
  48   1.0000      -0.558424       -15.1955
  49   1.0000      -0.546203       -14.8629
  50   1.0000      -0.535381       -14.5684
  51   1.0000      -0.523665       -14.2496
  52   1.0000      -0.522110       -14.2073
  53   1.0000      -0.514144       -13.9906
  54   1.0000      -0.506005       -13.7691
  55   1.0000      -0.491309       -13.3692
  56   1.0000      -0.474354       -12.9078
  57   1.0000      -0.470459       -12.8018
  58   1.0000      -0.422192       -11.4884
  59   1.0000      -0.415543       -11.3075
  60   1.0000      -0.407649       -11.0927
  61   1.0000      -0.404189       -10.9985
  62   1.0000      -0.392140       -10.6707
  63   1.0000      -0.385545       -10.4912
  64   1.0000      -0.376959       -10.2576
  65   1.0000      -0.336252        -9.1499
  66   1.0000      -0.217775        -5.9260
  67   0.0000       0.012449         0.3388
  68   0.0000       0.018068         0.4917
  69   0.0000       0.033566         0.9134
  70   0.0000       0.040741         1.1086
  71   0.0000       0.042491         1.1562

                 SPIN DOWN ORBITALS
  NO   OCC          E(Eh)            E(eV)
   0   1.0000     -19.326546      -525.9021
   1   1.0000     -19.324345      -525.8422
   2   1.0000     -19.323944      -525.8312
   3   1.0000     -19.323840      -525.8284
   4   1.0000     -14.588455      -396.9720
   5   1.0000     -14.581050      -396.7706
   6   1.0000     -14.575151      -396.6100
   7   1.0000     -14.548949      -395.8970
   8   1.0000     -10.520556      -286.2789
   9   1.0000     -10.502239      -285.7804
  10   1.0000     -10.478623      -285.1378
  11   1.0000     -10.470265      -284.9104
  12   1.0000     -10.431562      -283.8572
  13   1.0000     -10.398373      -282.9541
  14   1.0000     -10.387422      -282.6561
  15   1.0000     -10.380919      -282.4792
  16   1.0000     -10.365703      -282.0651
  17   1.0000     -10.357099      -281.8310
  18   1.0000      -1.224104       -33.3096
  19   1.0000      -1.217874       -33.1400
  20   1.0000      -1.196212       -32.5506
  21   1.0000      -1.194517       -32.5045
  22   1.0000      -1.121040       -30.5050
  23   1.0000      -1.112691       -30.2779
  24   1.0000      -1.070499       -29.1298
  25   1.0000      -1.063876       -28.9495
  26   1.0000      -0.945742       -25.7350
  27   1.0000      -0.938736       -25.5443
  28   1.0000      -0.844852       -22.9896
  29   1.0000      -0.843093       -22.9417
  30   1.0000      -0.804283       -21.8856
  31   1.0000      -0.799398       -21.7527
  32   1.0000      -0.790670       -21.5152
  33   1.0000      -0.783110       -21.3095
  34   1.0000      -0.690155       -18.7801
  35   1.0000      -0.686807       -18.6890
  36   1.0000      -0.682866       -18.5817
  37   1.0000      -0.677841       -18.4450
  38   1.0000      -0.643190       -17.5021
  39   1.0000      -0.629164       -17.1204
  40   1.0000      -0.622360       -16.9353
  41   1.0000      -0.593685       -16.1550
  42   1.0000      -0.589614       -16.0442
  43   1.0000      -0.587552       -15.9881
  44   1.0000      -0.561645       -15.2831
  45   1.0000      -0.560483       -15.2515
  46   1.0000      -0.557989       -15.1837
  47   1.0000      -0.555253       -15.1092
  48   1.0000      -0.547946       -14.9104
  49   1.0000      -0.545734       -14.8502
  50   1.0000      -0.528131       -14.3712
  51   1.0000      -0.514812       -14.0088
  52   1.0000      -0.513981       -13.9861
  53   1.0000      -0.510006       -13.8780
  54   1.0000      -0.500745       -13.6260
  55   1.0000      -0.477325       -12.9887
  56   1.0000      -0.470421       -12.8008
  57   1.0000      -0.442703       -12.0466
  58   1.0000      -0.415427       -11.3043
  59   1.0000      -0.414235       -11.2719
  60   1.0000      -0.404794       -11.0150
  61   1.0000      -0.387430       -10.5425
  62   1.0000      -0.385730       -10.4962
  63   1.0000      -0.383800       -10.4437
  64   1.0000      -0.335561        -9.1311
  65   0.0000      -0.092599        -2.5197
  66   0.0000       0.011271         0.3067
  67   0.0000       0.018715         0.5093
  68   0.0000       0.031225         0.8497
  69   0.0000       0.039020         1.0618

----------------------------------------------------------------------------------------------------
          SPIN FLIP ABSORPTION SPECTRUM VIA TRANSITION ELECTRIC DIPOLE MOMENTS
----------------------------------------------------------------------------------------------------
     Transition      Energy     Energy  Wavelength fosc(D2)      D2        DX        DY        DZ
                      (eV)      (cm-1)    (nm)                 (au**2)    (au)      (au)      (au)
----------------------------------------------------------------------------------------------------
  1-3A  ->  2-3A    3.685521   29725.7   336.4   0.001168708   0.01294  -0.04357  -0.06706   0.08092

Dispersion correction             ... done (  0.1 sec)

MULLIKEN ATOMIC CHARGES AND SPIN DENSITIES
------------------------------------------
   0 O :   -0.643026    0.030259
   1 O :   -0.633342   -0.000442
   2 O :   -0.658620    0.006989
   3 O :   -0.690629    0.001094
   4 N :    0.001193    0.040008
   5 N :    0.018252    0.001315
   6 N :   -0.015783    0.007161
   7 N :    0.087633   -0.005513
   8 C :    0.963112    0.598516
   9 C :    0.647245   -0.015723
  10 C :   -0.263254   -0.448099
  11 C :   -0.156408    0.000152
  12 C :   -1.190856   -0.007783
  13 C :   -1.347242    0.000239
  14 C :    0.188270   -0.352601
  15 C :    0.531804    0.037350
  16 C :    0.425174    0.029696
  17 C :    0.348193   -0.013744
  18 H :    0.186449    0.040052
  19 H :    0.176306   -0.002106
  20 H :    0.222240    0.041173
  21 H :    0.384004    0.023978
  22 H :    0.276487   -0.014504
  23 H :    0.361352   -0.000287
  24 H :    0.310088   -0.000916
  25 H :    0.251820   -0.000468
  26 H :    0.057999    0.003461
  27 H :    0.036374   -0.001726
  28 H :    0.061949    0.004259
  29 H :    0.063219   -0.001790
Sum of atomic charges       :    0.0000000

LOEWDIN ATOMIC CHARGES AND SPIN DENSITIES
-----------------------------------------
   0 O :    0.100291    0.023083
   1 O :    0.102798   -0.000098
   2 O :    0.077504    0.005574
   3 O :    0.047876    0.000194
   4 N :    0.268372    0.018639
   5 N :    0.267278   -0.000858
   6 N :    0.346279   -0.000024
   7 N :    0.340429   -0.000556
   8 C :   -0.096863   -0.023028
   9 C :   -0.137661   -0.000131
  10 C :    0.088327   -0.029535
  11 C :    0.049698   -0.000161
  12 C :    0.172711   -0.002481
  13 C :    0.142294    0.000068
  14 C :   -0.414648    0.009744
  15 C :   -0.396984    0.000145
  16 C :   -0.511533   -0.000225
  17 C :   -0.458308   -0.000675
  18 H :    0.025565   -0.002270
  19 H :    0.029073    0.000041
  20 H :   -0.017239    0.000385
  21 H :   -0.005142    0.000073
  22 H :   -0.019593    0.000109
  23 H :   -0.013634    0.000003
  24 H :    0.048672    0.000012
  25 H :    0.005344    0.000035
  26 H :   -0.001782    0.001803
  27 H :   -0.012828   -0.000007
  28 H :   -0.021028    0.000174
  29 H :   -0.005270   -0.000033

  Mayer bond orders larger than 0.100000
B(  0-O , 14-C ) :   1.4638 B(  1-O , 15-C ) :   1.5183 B(  2-O , 16-C ) :   1.5271
B(  3-O , 17-C ) :   1.5009 B(  4-N , 10-C ) :   0.9735 B(  4-N , 16-C ) :   0.9803
B(  4-N , 26-H ) :   1.1202 B(  5-N , 11-C ) :   0.9603 B(  5-N , 17-C ) :   1.0657
B(  5-N , 27-H ) :   1.1255 B(  6-N , 14-C ) :   0.8555 B(  6-N , 16-C ) :   0.9465
B(  6-N , 28-H ) :   1.0867 B(  7-N , 15-C ) :   0.9932 B(  7-N , 16-C ) :   0.1094
B(  7-N , 17-C ) :   0.9806 B(  7-N , 29-H ) :   1.0965 B(  8-C , 10-C ) :   1.0415
B(  8-C , 12-C ) :   0.5034 B(  8-C , 14-C ) :   0.5812 B(  9-C , 11-C ) :   1.1398
B(  9-C , 13-C ) :   0.5048 B(  9-C , 15-C ) :   0.7710 B(  9-C , 19-H ) :  -0.1114
B(  9-C , 25-H ) :  -0.1060 B( 10-C , 14-C ) :   0.2612 B( 10-C , 16-C ) :  -0.1156
B( 10-C , 18-H ) :   1.1050 B( 11-C , 19-H ) :   1.1127 B( 12-C , 20-H ) :   0.9240
B( 12-C , 21-H ) :   0.9401 B( 12-C , 22-H ) :   1.0172 B( 13-C , 23-H ) :   0.8866
B( 13-C , 24-H ) :   0.9444 B( 13-C , 25-H ) :   1.0112

Dispersion correction           -0.057428900
FINAL SINGLE POINT ENERGY      -908.894568985952

DIPOLE MOMENT
-------------

Method             : TDA/CIS
Type of density    : Electron Density
Level              : Relaxed density
State              :   1
Multiplicity       :   3
Irrep              :   0
Energy             :     0.0000000000000000 Eh
Relativity type    :
Basis              : AO
                                X                 Y                 Z
Electronic contribution:     -2.072597545      -9.888927409      -5.628336428
Nuclear contribution   :      1.455383146      10.586610620       8.048879818
                        -----------------------------------------
Total Dipole Moment    :     -0.617214399       0.697683212       2.420543391
                        -----------------------------------------
Magnitude (a.u.)       :      2.593597074
Magnitude (Debye)      :      6.592399856

Rotational constants in cm-1:             0.017429             0.014976             0.013249
Rotational constants in MHz :           522.521216           448.954876           397.192051

                             ****ORCA TERMINATED NORMALLY****
TOTAL RUN TIME: 0 days 0 hours 5 minutes 5 seconds 408 msec
