                         Program Version 6.0.0  -   RELEASE  -
|  1> ! Engrad def2-TZVPPD wB97M-D3BJ
|  2> %pal nprocs 8 end%pal nprocs 64 end
|  3> %tddft
|  4>  Iroot 1 Nroots 3
|  5> sf true
|  6> end
|  7> *xyz 0 3
|  8> O   3.16719713 -1.11663848 -2.17584777
|  9> O   -2.23699813 1.91309627 -1.3139669
| 10> O   -1.14878089 -2.41104464 -1.64529748
| 11> O   -2.7820789 0.97339103 3.013559
| 12> N   -0.11895352 -1.5813311 0.12188641
| 13> N   -0.71685116 0.49469886 2.22398916
| 14> N   0.88240778 -1.56990148 -1.99161422
| 15> N   -2.40897466 1.19949192 0.83946796
| 16> C   2.14723709 -0.87089503 -0.09067297
| 17> C   -0.19564462 1.34780493 -0.03773138
| 18> C   0.89883524 -0.78792005 0.68434809
| 19> C   0.29324551 0.6184425 1.15345427
| 20> C   3.42632816 -0.62182351 0.63967879
| 21> C   0.63471426 2.17671424 -0.86642966
| 22> C   2.14892919 -1.16012357 -1.5453414
| 23> C   -1.62229974 1.5166785 -0.30739448
| 24> C   -0.13632602 -1.91020472 -1.18852762
| 25> C   -2.01256397 0.90206059 2.09390598
| 26> H   1.11085648 -1.257353 1.704657
| 27> H   1.16209503 1.090302 1.54667846
| 28> H   3.39695683 0.41440019 1.0109939
| 29> H   3.40389332 -1.23463661 1.482048
| 30> H   4.31961435 -0.88221941 0.04579123
| 31> H   -0.01069582 2.77910487 -1.43069341
| 32> H   1.35848682 2.6899704 -0.17729309
| 33> H   1.34583744 1.63886231 -1.60667019
| 34> H   -0.99829358 -1.52564195 0.6630244
| 35> H   -0.42062619 0.375875 3.19167439
| 36> H   0.79368083 -1.75957413 -3.00494318
| 37> H   -3.38317193 1.56285716 0.70882081
| 38> *
| 39>
| 40>                          ****END OF INPUT****

CARTESIAN COORDINATES (ANGSTROEM)
---------------------------------
  O      3.167197   -1.116638   -2.175848
  O     -2.236998    1.913096   -1.313967
  O     -1.148781   -2.411045   -1.645297
  O     -2.782079    0.973391    3.013559
  N     -0.118954   -1.581331    0.121886
  N     -0.716851    0.494699    2.223989
  N      0.882408   -1.569901   -1.991614
  N     -2.408975    1.199492    0.839468
  C      2.147237   -0.870895   -0.090673
  C     -0.195645    1.347805   -0.037731
  C      0.898835   -0.787920    0.684348
  C      0.293246    0.618443    1.153454
  C      3.426328   -0.621824    0.639679
  C      0.634714    2.176714   -0.866430
  C      2.148929   -1.160124   -1.545341
  C     -1.622300    1.516678   -0.307394
  C     -0.136326   -1.910205   -1.188528
  C     -2.012564    0.902061    2.093906
  H      1.110856   -1.257353    1.704657
  H      1.162095    1.090302    1.546678
  H      3.396957    0.414400    1.010994
  H      3.403893   -1.234637    1.482048
  H      4.319614   -0.882219    0.045791
  H     -0.010696    2.779105   -1.430693
  H      1.358487    2.689970   -0.177293
  H      1.345837    1.638862   -1.606670
  H     -0.998294   -1.525642    0.663024
  H     -0.420626    0.375875    3.191674
  H      0.793681   -1.759574   -3.004943
  H     -3.383172    1.562857    0.708821

 Total Charge           Charge          ....    0
 Multiplicity           Mult            ....    3
 Number of Electrons    NEL             ....  132
 Basis Dimension        Dim             ....  882

ORBITAL ENERGIES
----------------
                 SPIN UP ORBITALS
  NO   OCC          E(Eh)            E(eV)
   0   1.0000     -19.348028      -526.4866
   1   1.0000     -19.343896      -526.3742
   2   1.0000     -19.316779      -525.6363
   3   1.0000     -19.302671      -525.2524
   4   1.0000     -14.574563      -396.5940
   5   1.0000     -14.571852      -396.5202
   6   1.0000     -14.563172      -396.2840
   7   1.0000     -14.555512      -396.0756
   8   1.0000     -10.502692      -285.7928
   9   1.0000     -10.497910      -285.6627
  10   1.0000     -10.493491      -285.5424
  11   1.0000     -10.492400      -285.5127
  12   1.0000     -10.453610      -284.4572
  13   1.0000     -10.442747      -284.1616
  14   1.0000     -10.424747      -283.6718
  15   1.0000     -10.422426      -283.6086
  16   1.0000     -10.380756      -282.4747
  17   1.0000     -10.377255      -282.3795
  18   1.0000      -1.228776       -33.4367
  19   1.0000      -1.224287       -33.3146
  20   1.0000      -1.204887       -32.7866
  21   1.0000      -1.191426       -32.4203
  22   1.0000      -1.119201       -30.4550
  23   1.0000      -1.100873       -29.9563
  24   1.0000      -1.077784       -29.3280
  25   1.0000      -1.057537       -28.7770
  26   1.0000      -0.989673       -26.9304
  27   1.0000      -0.966296       -26.2943
  28   1.0000      -0.895916       -24.3791
  29   1.0000      -0.845921       -23.0187
  30   1.0000      -0.828796       -22.5527
  31   1.0000      -0.806485       -21.9456
  32   1.0000      -0.793791       -21.6002
  33   1.0000      -0.789229       -21.4760
  34   1.0000      -0.708619       -19.2825
  35   1.0000      -0.700387       -19.0585
  36   1.0000      -0.685912       -18.6646
  37   1.0000      -0.681023       -18.5316
  38   1.0000      -0.653741       -17.7892
  39   1.0000      -0.642644       -17.4872
  40   1.0000      -0.625080       -17.0093
  41   1.0000      -0.610707       -16.6182
  42   1.0000      -0.607990       -16.5443
  43   1.0000      -0.592938       -16.1347
  44   1.0000      -0.580868       -15.8062
  45   1.0000      -0.575041       -15.6477
  46   1.0000      -0.573873       -15.6159
  47   1.0000      -0.565506       -15.3882
  48   1.0000      -0.561514       -15.2796
  49   1.0000      -0.557459       -15.1692
  50   1.0000      -0.548130       -14.9154
  51   1.0000      -0.534659       -14.5488
  52   1.0000      -0.532308       -14.4848
  53   1.0000      -0.526663       -14.3312
  54   1.0000      -0.513872       -13.9832
  55   1.0000      -0.512231       -13.9385
  56   1.0000      -0.508663       -13.8414
  57   1.0000      -0.424971       -11.5641
  58   1.0000      -0.423058       -11.5120
  59   1.0000      -0.416209       -11.3256
  60   1.0000      -0.407221       -11.0810
  61   1.0000      -0.402316       -10.9476
  62   1.0000      -0.392105       -10.6697
  63   1.0000      -0.386201       -10.5091
  64   1.0000      -0.375536       -10.2189
  65   1.0000      -0.357731        -9.7343
  66   1.0000      -0.323269        -8.7966
  67   0.0000       0.006421         0.1747
  68   0.0000       0.029314         0.7977
  69   0.0000       0.031646         0.8611
  70   0.0000       0.033366         0.9079
  71   0.0000       0.052020         1.4155

                 SPIN DOWN ORBITALS
  NO   OCC          E(Eh)            E(eV)
   0   1.0000     -19.344295      -526.3850
   1   1.0000     -19.340016      -526.2686
   2   1.0000     -19.316565      -525.6304
   3   1.0000     -19.302583      -525.2500
   4   1.0000     -14.573920      -396.5765
   5   1.0000     -14.571689      -396.5158
   6   1.0000     -14.562401      -396.2631
   7   1.0000     -14.555408      -396.0728
   8   1.0000     -10.502732      -285.7939
   9   1.0000     -10.497943      -285.6636
  10   1.0000     -10.494480      -285.5693
  11   1.0000     -10.493307      -285.5374
  12   1.0000     -10.453052      -284.4420
  13   1.0000     -10.442478      -284.1543
  14   1.0000     -10.413755      -283.3727
  15   1.0000     -10.410968      -283.2968
  16   1.0000     -10.381434      -282.4932
  17   1.0000     -10.377780      -282.3937
  18   1.0000      -1.225207       -33.3396
  19   1.0000      -1.223078       -33.2816
  20   1.0000      -1.202411       -32.7193
  21   1.0000      -1.186170       -32.2773
  22   1.0000      -1.116599       -30.3842
  23   1.0000      -1.098853       -29.9013
  24   1.0000      -1.076165       -29.2839
  25   1.0000      -1.055792       -28.7296
  26   1.0000      -0.976180       -26.5632
  27   1.0000      -0.950193       -25.8561
  28   1.0000      -0.890432       -24.2299
  29   1.0000      -0.840239       -22.8641
  30   1.0000      -0.819928       -22.3114
  31   1.0000      -0.801808       -21.8183
  32   1.0000      -0.791863       -21.5477
  33   1.0000      -0.786972       -21.4146
  34   1.0000      -0.704531       -19.1713
  35   1.0000      -0.695391       -18.9226
  36   1.0000      -0.679175       -18.4813
  37   1.0000      -0.673775       -18.3344
  38   1.0000      -0.644526       -17.5384
  39   1.0000      -0.634425       -17.2636
  40   1.0000      -0.619641       -16.8613
  41   1.0000      -0.605921       -16.4880
  42   1.0000      -0.603165       -16.4130
  43   1.0000      -0.587615       -15.9898
  44   1.0000      -0.573999       -15.6193
  45   1.0000      -0.567873       -15.4526
  46   1.0000      -0.565474       -15.3873
  47   1.0000      -0.559266       -15.2184
  48   1.0000      -0.555403       -15.1133
  49   1.0000      -0.545077       -14.8323
  50   1.0000      -0.542319       -14.7572
  51   1.0000      -0.526445       -14.3253
  52   1.0000      -0.524814       -14.2809
  53   1.0000      -0.520850       -14.1730
  54   1.0000      -0.509311       -13.8590
  55   1.0000      -0.502936       -13.6856
  56   1.0000      -0.499866       -13.6020
  57   1.0000      -0.421196       -11.4613
  58   1.0000      -0.418126       -11.3778
  59   1.0000      -0.407839       -11.0979
  60   1.0000      -0.396418       -10.7871
  61   1.0000      -0.390554       -10.6275
  62   1.0000      -0.388536       -10.5726
  63   1.0000      -0.384345       -10.4585
  64   1.0000      -0.369567       -10.0564
  65   0.0000      -0.076285        -2.0758
  66   0.0000      -0.050206        -1.3662
  67   0.0000       0.005941         0.1617
  68   0.0000       0.028904         0.7865
  69   0.0000       0.031019         0.8441

----------------------------------------------------------------------------------------------------
          SPIN FLIP ABSORPTION SPECTRUM VIA TRANSITION ELECTRIC DIPOLE MOMENTS
----------------------------------------------------------------------------------------------------
     Transition      Energy     Energy  Wavelength fosc(D2)      D2        DX        DY        DZ
                      (eV)      (cm-1)    (nm)                 (au**2)    (au)      (au)      (au)
----------------------------------------------------------------------------------------------------
  1-3A  ->  2-3A    0.211353    1704.7  5866.2   0.000084382   0.01630   0.10835  -0.04812  -0.04735
  1-3A  ->  3-3A    2.458545   19829.5   504.3   0.005535178   0.09190  -0.12550   0.22433  -0.16069

Dispersion correction             ... done (  0.1 sec)

MULLIKEN ATOMIC CHARGES AND SPIN DENSITIES
------------------------------------------
   0 O :   -0.622139    0.027817
   1 O :   -0.692218   -0.029348
   2 O :   -0.692431    0.000606
   3 O :   -0.652542   -0.000753
   4 N :   -0.304481   -0.018082
   5 N :   -0.225582    0.002943
   6 N :    0.003690    0.004552
   7 N :   -0.085908   -0.010668
   8 C :    0.319960    0.476771
   9 C :    0.815045    0.352240
  10 C :    0.378634   -0.214251
  11 C :    0.045076   -0.244797
  12 C :   -1.535393    0.013242
  13 C :   -1.274923   -0.026722
  14 C :    0.119152   -0.114500
  15 C :   -0.001176   -0.264898
  16 C :    0.468450   -0.002864
  17 C :    0.482030    0.013041
  18 H :    0.565869    0.001578
  19 H :    0.607193   -0.021146
  20 H :    0.323924    0.018384
  21 H :    0.359688    0.012234
  22 H :    0.294219   -0.002128
  23 H :    0.371086   -0.003947
  24 H :    0.302026    0.010959
  25 H :    0.227002    0.018005
  26 H :    0.136305   -0.000830
  27 H :    0.068815    0.000019
  28 H :    0.079711    0.001512
  29 H :    0.118918    0.001029
Sum of atomic charges       :   -0.0000000

LOEWDIN ATOMIC CHARGES AND SPIN DENSITIES
-----------------------------------------
   0 O :    0.103216    0.025479
   1 O :    0.064997   -0.026181
   2 O :    0.073827    0.000468
   3 O :    0.092650   -0.001012
   4 N :    0.258316   -0.001589
   5 N :    0.287789   -0.000359
   6 N :    0.325726    0.003770
   7 N :    0.297478   -0.008843
   8 C :   -0.013299    0.119217
   9 C :   -0.043094   -0.091554
  10 C :   -0.151584    0.001859
  11 C :   -0.081130   -0.009845
  12 C :    0.205092    0.015930
  13 C :    0.188714   -0.017889
  14 C :   -0.405923    0.014657
  15 C :   -0.350288   -0.019838
  16 C :   -0.516951   -0.000628
  17 C :   -0.547170   -0.000896
  18 H :    0.086107    0.001411
  19 H :    0.021336   -0.002271
  20 H :    0.011396    0.005497
  21 H :   -0.043142    0.003485
  22 H :    0.018517   -0.000149
  23 H :   -0.036989   -0.000283
  24 H :    0.034423   -0.003321
  25 H :    0.062360   -0.006775
  26 H :    0.008472   -0.000039
  27 H :   -0.011911    0.000004
  28 H :    0.028928    0.000250
  29 H :    0.032136   -0.000555

  Mayer bond orders larger than 0.100000
B(  0-O , 14-C ) :   1.5048 B(  1-O , 15-C ) :   1.3421 B(  2-O , 16-C ) :   1.4908
B(  3-O , 17-C ) :   1.6053 B(  4-N ,  8-C ) :   0.2222 B(  4-N , 10-C ) :   0.2990
B(  4-N , 16-C ) :   1.1216 B(  4-N , 26-H ) :   1.0562 B(  5-N , 10-C ) :   0.2814
B(  5-N , 11-C ) :   0.4938 B(  5-N , 17-C ) :   1.1268 B(  5-N , 27-H ) :   1.1122
B(  6-N , 14-C ) :   1.0966 B(  6-N , 16-C ) :   0.9930 B(  6-N , 28-H ) :   1.0842
B(  7-N ,  9-C ) :  -0.1223 B(  7-N , 15-C ) :   1.0591 B(  7-N , 17-C ) :   0.9742
B(  7-N , 29-H ) :   1.0292 B(  8-C ,  9-C ) :   0.2523 B(  8-C , 12-C ) :   0.4379
B(  8-C , 14-C ) :   0.6032 B(  8-C , 16-C ) :   0.1419 B(  8-C , 18-H ) :  -0.2118
B(  9-C , 10-C ) :   0.1573 B(  9-C , 11-C ) :   0.8525 B(  9-C , 13-C ) :   0.3732
B(  9-C , 15-C ) :   0.5545 B(  9-C , 19-H ) :  -0.1844 B( 10-C , 11-C ) :   0.4762
B( 10-C , 12-C ) :  -0.1798 B( 10-C , 14-C ) :  -0.2024 B( 10-C , 16-C ) :  -0.1951
B( 10-C , 18-H ) :   0.7941 B( 11-C , 12-C ) :   0.1081 B( 11-C , 13-C ) :  -0.1485
B( 11-C , 15-C ) :  -0.1058 B( 11-C , 17-C ) :  -0.1006 B( 11-C , 19-H ) :   0.7902
B( 12-C , 14-C ) :  -0.1110 B( 12-C , 20-H ) :   0.9488 B( 12-C , 21-H ) :   0.9029
B( 12-C , 22-H ) :   1.0130 B( 13-C , 23-H ) :   0.9031 B( 13-C , 24-H ) :   0.9412
B( 13-C , 25-H ) :   0.9577

Dispersion correction           -0.056561531
FINAL SINGLE POINT ENERGY      -908.771850565446

DIPOLE MOMENT
-------------

Method             : TDA/CIS
Type of density    : Electron Density
Level              : Relaxed density
State              :   1
Multiplicity       :   3
Irrep              :   0
Energy             :     0.0000000000000000 Eh
Relativity type    :
Basis              : AO
                                X                 Y                 Z
Electronic contribution:     -9.149177930      -3.554999692      -2.717377509
Nuclear contribution   :     11.358623850       4.182385067       4.151564793
                        -----------------------------------------
Total Dipole Moment    :      2.209445920       0.627385375       1.434187283
                        -----------------------------------------
Magnitude (a.u.)       :      2.707795570
Magnitude (Debye)      :      6.882669363

Rotational constants in cm-1:             0.022872             0.010652             0.009998
Rotational constants in MHz :           685.699254           319.332499           299.722602

                             ****ORCA TERMINATED NORMALLY****
TOTAL RUN TIME: 0 days 0 hours 4 minutes 59 seconds 923 msec
