                         Program Version 6.0.0  -   RELEASE  -
|  1> ! Engrad def2-TZVPPD wB97M-D3BJ
|  2> %pal nprocs 8 end%pal nprocs 64 end
|  3>  %tddft nroots 2 Iroot 1
|  4> sf true
|  5> end
|  6> *xyz 0 3
|  7> O   2.81462201537297 1.10202629003869 -0.69669971754522
|  8> O   -0.4067081185525 0.78355506519792 -2.02908569182846
|  9> O   0.74080387156998 -2.85356158520905 -1.5235089411645
| 10> O   -2.7007551621977 -1.68268121219518 1.01285008954333
| 11> N   0.69549041169349 -2.02388761842937 0.59524382617175
| 12> N   -2.39212670631226 0.53999523753984 1.40941480401685
| 13> N   1.8910124475752 -0.9390770524662 -1.04918665092726
| 14> N   -1.64528605093179 -0.40014952681369 -0.55130212211944
| 15> C   1.60805365196701 0.122248476897 1.09247927328223
| 16> C   -0.98516465408252 1.85238831223295 0.00996598006292
| 17> C   0.91870725936385 -0.96938847885491 1.44840557172956
| 18> C   -1.75852508286819 1.72500070377966 1.09210576928919
| 19> C   1.88068673446066 1.26453478308559 2.01695932709708
| 20> C   -0.24594599871832 3.09795577145272 -0.36079328250366
| 21> C   2.16526524748455 0.17648936659381 -0.26016471594925
| 22> C   -0.96201990319985 0.74875589949847 -0.95377305415228
| 23> C   1.08410759433154 -2.0076517221632 -0.72810480765091
| 24> C   -2.28003345089885 -0.6038137856909 0.65156598165462
| 25> H   0.48977699650448 -1.08206129197351 2.43299656862074
| 26> H   -1.88596703026209 2.52181235120543 1.80893385613774
| 27> H   1.48959806014349 2.19444923275349 1.61058663745984
| 28> H   1.42627858633419 1.08823049640095 2.98949621518341
| 29> H   2.95184305042969 1.40364947647615 2.15011961551474
| 30> H   -0.63821975208796 3.51556015887753 -1.28616789205847
| 31> H   -0.32472409979745 3.84481929838402 0.42604583370937
| 32> H   0.80505411041528 2.87512144556353 -0.53760781607659
| 33> H   0.04172734444799 -2.74712848066882 0.84226527327094
| 34> H   -2.8838108367454 0.43338649000429 2.27796269727075
| 35> H   2.14220833121128 -0.86470278340156 -2.02275838394683
| 36> H   -1.5833488666508 -1.2008753181157 -1.16364424409219
| 37> *
| 38>
| 39>                          ****END OF INPUT****

CARTESIAN COORDINATES (ANGSTROEM)
---------------------------------
  O      2.814622    1.102026   -0.696700
  O     -0.406708    0.783555   -2.029086
  O      0.740804   -2.853562   -1.523509
  O     -2.700755   -1.682681    1.012850
  N      0.695490   -2.023888    0.595244
  N     -2.392127    0.539995    1.409415
  N      1.891012   -0.939077   -1.049187
  N     -1.645286   -0.400150   -0.551302
  C      1.608054    0.122248    1.092479
  C     -0.985165    1.852388    0.009966
  C      0.918707   -0.969388    1.448406
  C     -1.758525    1.725001    1.092106
  C      1.880687    1.264535    2.016959
  C     -0.245946    3.097956   -0.360793
  C      2.165265    0.176489   -0.260165
  C     -0.962020    0.748756   -0.953773
  C      1.084108   -2.007652   -0.728105
  C     -2.280033   -0.603814    0.651566
  H      0.489777   -1.082061    2.432997
  H     -1.885967    2.521812    1.808934
  H      1.489598    2.194449    1.610587
  H      1.426279    1.088230    2.989496
  H      2.951843    1.403649    2.150120
  H     -0.638220    3.515560   -1.286168
  H     -0.324724    3.844819    0.426046
  H      0.805054    2.875121   -0.537608
  H      0.041727   -2.747128    0.842265
  H     -2.883811    0.433386    2.277963
  H      2.142208   -0.864703   -2.022758
  H     -1.583349   -1.200875   -1.163644

 Total Charge           Charge          ....    0
 Multiplicity           Mult            ....    3
 Number of Electrons    NEL             ....  132
 Basis Dimension        Dim             ....  882

ORBITAL ENERGIES
----------------
                 SPIN UP ORBITALS
  NO   OCC          E(Eh)            E(eV)
   0   1.0000     -19.330438      -526.0079
   1   1.0000     -19.329138      -525.9726
   2   1.0000     -19.323740      -525.8257
   3   1.0000     -19.316103      -525.6179
   4   1.0000     -14.592160      -397.0729
   5   1.0000     -14.584595      -396.8670
   6   1.0000     -14.571218      -396.5030
   7   1.0000     -14.546217      -395.8227
   8   1.0000     -10.515327      -286.1366
   9   1.0000     -10.507374      -285.9202
  10   1.0000     -10.479697      -285.1671
  11   1.0000     -10.454041      -284.4689
  12   1.0000     -10.434648      -283.9412
  13   1.0000     -10.405672      -283.1527
  14   1.0000     -10.395960      -282.8885
  15   1.0000     -10.382628      -282.5257
  16   1.0000     -10.368456      -282.1400
  17   1.0000     -10.354141      -281.7505
  18   1.0000      -1.228290       -33.4235
  19   1.0000      -1.223326       -33.2884
  20   1.0000      -1.195023       -32.5182
  21   1.0000      -1.186534       -32.2872
  22   1.0000      -1.123979       -30.5850
  23   1.0000      -1.123130       -30.5619
  24   1.0000      -1.071375       -29.1536
  25   1.0000      -1.057795       -28.7841
  26   1.0000      -0.973564       -26.4920
  27   1.0000      -0.958363       -26.0784
  28   1.0000      -0.855779       -23.2869
  29   1.0000      -0.848914       -23.1001
  30   1.0000      -0.811889       -22.0926
  31   1.0000      -0.807682       -21.9781
  32   1.0000      -0.795244       -21.6397
  33   1.0000      -0.786584       -21.4040
  34   1.0000      -0.699458       -19.0332
  35   1.0000      -0.696917       -18.9641
  36   1.0000      -0.693290       -18.8654
  37   1.0000      -0.688687       -18.7401
  38   1.0000      -0.645177       -17.5562
  39   1.0000      -0.637719       -17.3532
  40   1.0000      -0.627108       -17.0645
  41   1.0000      -0.603761       -16.4292
  42   1.0000      -0.598786       -16.2938
  43   1.0000      -0.591761       -16.1026
  44   1.0000      -0.573475       -15.6050
  45   1.0000      -0.568729       -15.4759
  46   1.0000      -0.567495       -15.4423
  47   1.0000      -0.552804       -15.0426
  48   1.0000      -0.549276       -14.9466
  49   1.0000      -0.544639       -14.8204
  50   1.0000      -0.529273       -14.4022
  51   1.0000      -0.526443       -14.3252
  52   1.0000      -0.517654       -14.0861
  53   1.0000      -0.515884       -14.0379
  54   1.0000      -0.507770       -13.8171
  55   1.0000      -0.501258       -13.6399
  56   1.0000      -0.492406       -13.3991
  57   1.0000      -0.480064       -13.0632
  58   1.0000      -0.421201       -11.4615
  59   1.0000      -0.418098       -11.3770
  60   1.0000      -0.407357       -11.0848
  61   1.0000      -0.397846       -10.8259
  62   1.0000      -0.388981       -10.5847
  63   1.0000      -0.385402       -10.4873
  64   1.0000      -0.383503       -10.4357
  65   1.0000      -0.348557        -9.4847
  66   1.0000      -0.207413        -5.6440
  67   0.0000       0.011333         0.3084
  68   0.0000       0.019380         0.5274
  69   0.0000       0.032424         0.8823
  70   0.0000       0.037413         1.0181
  71   0.0000       0.043392         1.1808

                 SPIN DOWN ORBITALS
  NO   OCC          E(Eh)            E(eV)
   0   1.0000     -19.329111      -525.9719
   1   1.0000     -19.328500      -525.9552
   2   1.0000     -19.323755      -525.8261
   3   1.0000     -19.309798      -525.4463
   4   1.0000     -14.586842      -396.9282
   5   1.0000     -14.584384      -396.8613
   6   1.0000     -14.571236      -396.5035
   7   1.0000     -14.545319      -395.7983
   8   1.0000     -10.515336      -286.1368
   9   1.0000     -10.507776      -285.9311
  10   1.0000     -10.479677      -285.1665
  11   1.0000     -10.453757      -284.4612
  12   1.0000     -10.434378      -283.9339
  13   1.0000     -10.396210      -282.8953
  14   1.0000     -10.385837      -282.6130
  15   1.0000     -10.382676      -282.5270
  16   1.0000     -10.368926      -282.1528
  17   1.0000     -10.354122      -281.7500
  18   1.0000      -1.227927       -33.4136
  19   1.0000      -1.219193       -33.1759
  20   1.0000      -1.194956       -32.5164
  21   1.0000      -1.177192       -32.0330
  22   1.0000      -1.123472       -30.5712
  23   1.0000      -1.112255       -30.2660
  24   1.0000      -1.071246       -29.1501
  25   1.0000      -1.052309       -28.6348
  26   1.0000      -0.959313       -26.1042
  27   1.0000      -0.948533       -25.8109
  28   1.0000      -0.849009       -23.1027
  29   1.0000      -0.844418       -22.9778
  30   1.0000      -0.811592       -22.0846
  31   1.0000      -0.797631       -21.7046
  32   1.0000      -0.794052       -21.6073
  33   1.0000      -0.779778       -21.2188
  34   1.0000      -0.696750       -18.9595
  35   1.0000      -0.693359       -18.8673
  36   1.0000      -0.687430       -18.7059
  37   1.0000      -0.680588       -18.5197
  38   1.0000      -0.644235       -17.5305
  39   1.0000      -0.628802       -17.1106
  40   1.0000      -0.620771       -16.8920
  41   1.0000      -0.598669       -16.2906
  42   1.0000      -0.592347       -16.1186
  43   1.0000      -0.583459       -15.8767
  44   1.0000      -0.568812       -15.4782
  45   1.0000      -0.561202       -15.2711
  46   1.0000      -0.560253       -15.2453
  47   1.0000      -0.551959       -15.0196
  48   1.0000      -0.541743       -14.7416
  49   1.0000      -0.537245       -14.6192
  50   1.0000      -0.520736       -14.1699
  51   1.0000      -0.518962       -14.1217
  52   1.0000      -0.514657       -14.0045
  53   1.0000      -0.505295       -13.7498
  54   1.0000      -0.501772       -13.6539
  55   1.0000      -0.497300       -13.5322
  56   1.0000      -0.478886       -13.0311
  57   1.0000      -0.446832       -12.1589
  58   1.0000      -0.420834       -11.4515
  59   1.0000      -0.412947       -11.2368
  60   1.0000      -0.403237       -10.9726
  61   1.0000      -0.388734       -10.5780
  62   1.0000      -0.376313       -10.2400
  63   1.0000      -0.374445       -10.1892
  64   1.0000      -0.348374        -9.4797
  65   0.0000      -0.105256        -2.8642
  66   0.0000       0.010728         0.2919
  67   0.0000       0.019876         0.5408
  68   0.0000       0.029835         0.8119
  69   0.0000       0.035925         0.9776

----------------------------------------------------------------------------------------------------
          SPIN FLIP ABSORPTION SPECTRUM VIA TRANSITION ELECTRIC DIPOLE MOMENTS
----------------------------------------------------------------------------------------------------
     Transition      Energy     Energy  Wavelength fosc(D2)      D2        DX        DY        DZ
                      (eV)      (cm-1)    (nm)                 (au**2)    (au)      (au)      (au)
----------------------------------------------------------------------------------------------------
  1-3A  ->  2-3A    4.224278   34071.1   293.5   0.001887755   0.01824  -0.06200  -0.09109   0.07809

Dispersion correction             ... done (  0.0 sec)

MULLIKEN ATOMIC CHARGES AND SPIN DENSITIES
------------------------------------------
   0 O :   -0.682717    0.035809
   1 O :   -0.656585    0.001327
   2 O :   -0.642580    0.007754
   3 O :   -0.664215    0.000720
   4 N :   -0.044495    0.051765
   5 N :   -0.038983    0.003307
   6 N :    0.014205    0.002623
   7 N :    0.013549   -0.001193
   8 C :    1.099817    0.499842
   9 C :    0.499728    0.004944
  10 C :   -0.186842   -0.409598
  11 C :    0.121650   -0.003836
  12 C :   -1.393542   -0.029337
  13 C :   -1.441441    0.008291
  14 C :    0.212455   -0.240256
  15 C :    0.590153   -0.011744
  16 C :    0.456781    0.022264
  17 C :    0.463361   -0.002343
  18 H :    0.187536    0.039367
  19 H :    0.150756   -0.001840
  20 H :    0.192572    0.014183
  21 H :    0.340697    0.012210
  22 H :    0.355705    0.000893
  23 H :    0.361359    0.000157
  24 H :    0.331981    0.001400
  25 H :    0.227801   -0.005542
  26 H :    0.061318   -0.000678
  27 H :    0.020923   -0.000597
  28 H :    0.029292    0.002963
  29 H :    0.019758   -0.002855
Sum of atomic charges       :   -0.0000000

LOEWDIN ATOMIC CHARGES AND SPIN DENSITIES
-----------------------------------------
   0 O :    0.084896    0.029567
   1 O :    0.104699    0.000772
   2 O :    0.088979    0.006283
   3 O :    0.073847   -0.000021
   4 N :    0.287671    0.024237
   5 N :    0.278927    0.000497
   6 N :    0.339837   -0.000128
   7 N :    0.340734   -0.000464
   8 C :   -0.136052   -0.034110
   9 C :   -0.141586   -0.000502
  10 C :    0.054083   -0.032167
  11 C :    0.059641   -0.001045
  12 C :    0.180034   -0.003414
  13 C :    0.177456    0.000091
  14 C :   -0.414505    0.009659
  15 C :   -0.392656   -0.000012
  16 C :   -0.481027    0.000819
  17 C :   -0.488242   -0.000340
  18 H :    0.038999   -0.002113
  19 H :    0.036473    0.000015
  20 H :   -0.020398   -0.000234
  21 H :   -0.005212    0.000319
  22 H :    0.003734   -0.000259
  23 H :    0.003436   -0.000002
  24 H :   -0.004522    0.000014
  25 H :   -0.015380    0.000091
  26 H :   -0.018234    0.002240
  27 H :   -0.022667    0.000039
  28 H :   -0.003204    0.000208
  29 H :   -0.009760   -0.000040

  Mayer bond orders larger than 0.100000
B(  0-O , 14-C ) :   1.4326 B(  1-O , 15-C ) :   1.4243 B(  2-O , 16-C ) :   1.5730
B(  3-O , 17-C ) :   1.5426 B(  4-N , 10-C ) :   0.9098 B(  4-N , 16-C ) :   0.9670
B(  4-N , 26-H ) :   1.1158 B(  5-N , 11-C ) :   0.9546 B(  5-N , 17-C ) :   1.0409
B(  5-N , 27-H ) :   1.1370 B(  6-N , 14-C ) :   0.9822 B(  6-N , 16-C ) :   0.9461
B(  6-N , 28-H ) :   1.0998 B(  7-N , 15-C ) :   0.9843 B(  7-N , 17-C ) :   0.9451
B(  7-N , 29-H ) :   1.1246 B(  8-C , 10-C ) :   1.0779 B(  8-C , 12-C ) :   0.3553
B(  8-C , 14-C ) :   0.6271 B(  8-C , 18-H ) :  -0.1024 B(  9-C , 11-C ) :   1.2264
B(  9-C , 13-C ) :   0.2871 B(  9-C , 15-C ) :   0.8548 B(  9-C , 24-H ) :  -0.1037
B(  9-C , 25-H ) :  -0.1249 B( 10-C , 12-C ) :  -0.1093 B( 10-C , 16-C ) :  -0.1003
B( 10-C , 18-H ) :   1.1208 B( 11-C , 13-C ) :  -0.1778 B( 11-C , 19-H ) :   1.0870
B( 12-C , 20-H ) :   1.0238 B( 12-C , 21-H ) :   0.9817 B( 12-C , 22-H ) :   0.9148
B( 13-C , 23-H ) :   0.8926 B( 13-C , 24-H ) :   1.0427 B( 13-C , 25-H ) :   1.0142

Dispersion correction           -0.058157150
FINAL SINGLE POINT ENERGY      -908.925034597707

DIPOLE MOMENT
-------------

Method             : TDA/CIS
Type of density    : Electron Density
Level              : Relaxed density
State              :   1
Multiplicity       :   3
Irrep              :   0
Energy             :     0.0000000000000000 Eh
Relativity type    :
Basis              : AO
                                X                 Y                 Z
Electronic contribution:     -2.562802936     -10.472008085      -5.913560418
Nuclear contribution   :      1.633428181      11.408610350       8.370515970
                        -----------------------------------------
Total Dipole Moment    :     -0.929374754       0.936602265       2.456955552
                        -----------------------------------------
Magnitude (a.u.)       :      2.788833415
Magnitude (Debye)      :      7.088651198

Rotational constants in cm-1:             0.018003             0.015450             0.012087
Rotational constants in MHz :           539.705397           463.192465           362.358226

                             ****ORCA TERMINATED NORMALLY****
TOTAL RUN TIME: 0 days 0 hours 5 minutes 39 seconds 937 msec
