                         Program Version 6.0.0  -   RELEASE  -
|  1> ! Opt wB97M-D3BJ def2-TZVPPD
|  2> %pal nprocs 8 end %pal nprocs 64 end
|  3> %geom
|  4> Constraints
|  5>     {A 2 1 0 134.54545454545456 C }
|  6> end
|  7> MaxIter 500
|  8> end
|  9> *xyz 0 1
| 10> O   -0.0007 0.8141 0.0
| 11> C   0.7509 -0.4065 0.0
| 12> C   -0.7502 -0.4076 0.0
| 13> H   1.2625 -0.6786 0.9136
| 14> H   1.2625 -0.6787 -0.9136
| 15> H   -1.2614 -0.6806 -0.9136
| 16> H   -1.2614 -0.6805 0.9136
| 17> *
| 18>
| 19>                          ****END OF INPUT****
 Total Charge           Charge          ....    0
 Multiplicity           Mult            ....    1
 Number of Electrons    NEL             ....   24
Dispersion correction           -0.005726723
FINAL SINGLE POINT ENERGY      -153.528719173642
Dispersion correction             ... done (  0.1 sec)
Dispersion correction           -0.005646258
FINAL SINGLE POINT ENERGY      -153.664749694628
Dispersion correction             ... done (  0.1 sec)
Dispersion correction           -0.005584707
FINAL SINGLE POINT ENERGY      -153.704043197315
Dispersion correction             ... done (  0.1 sec)
FINAL SINGLE POINT ENERGY      -153.719897891509
FINAL SINGLE POINT ENERGY      -153.726070108389
FINAL SINGLE POINT ENERGY      -153.730605595533
FINAL SINGLE POINT ENERGY      -153.734437682721
FINAL SINGLE POINT ENERGY      -153.735776298204
FINAL SINGLE POINT ENERGY      -153.736505569896
FINAL SINGLE POINT ENERGY      -153.737562105380
FINAL SINGLE POINT ENERGY      -153.925966447552
FINAL SINGLE POINT ENERGY      -153.927162306540
FINAL SINGLE POINT ENERGY      -153.927375372725
FINAL SINGLE POINT ENERGY      -153.927584441675
FINAL SINGLE POINT ENERGY      -153.927657024167
FINAL SINGLE POINT ENERGY      -153.927679869422
FINAL SINGLE POINT ENERGY      -153.927700789133
Dispersion correction             ... done (  0.1 sec)
Dispersion correction           -0.005513394
FINAL SINGLE POINT ENERGY      -153.927708643607
Dispersion correction             ... done (  0.2 sec)
Dispersion correction           -0.005512363
FINAL SINGLE POINT ENERGY      -153.927710350249
Dispersion correction             ... done (  0.2 sec)
                    ***********************HURRAY********************

CARTESIAN COORDINATES (ANGSTROEM)
---------------------------------
  O      0.755071    1.363223   -0.011833
  C      0.542286    0.209859    0.238214
  C     -0.454793   -0.801259   -0.236749
  H      1.211606   -0.265309    0.992818
  H      0.098843   -1.658504   -0.619085
  H     -1.134787   -0.423897   -0.996495
  H     -1.016026   -1.142512    0.633129

 Multiplicity           Mult            ....    1
 Number of Electrons    NEL             ....   24
 Basis Dimension        Dim             ....  182

ORBITAL ENERGIES
----------------

  NO   OCC          E(Eh)            E(eV)
   0   2.0000     -19.341699      -526.3144
   1   2.0000     -10.444250      -284.2025
   2   2.0000     -10.363079      -281.9937
   3   2.0000      -1.189762       -32.3751
   4   2.0000      -0.892196       -24.2779
   5   2.0000      -0.698263       -19.0007
   6   2.0000      -0.596924       -16.2431
   7   2.0000      -0.564685       -15.3659
   8   2.0000      -0.559188       -15.2163
   9   2.0000      -0.509969       -13.8770
  10   2.0000      -0.479595       -13.0505
  11   2.0000      -0.365689        -9.9509
  12   0.0000       0.035530         0.9668
  13   0.0000       0.057010         1.5513
  14   0.0000       0.059234         1.6119
  15   0.0000       0.082033         2.2322
  16   0.0000       0.085492         2.3264

MULLIKEN ATOMIC CHARGES
-----------------------
   0 O :   -0.472877
   1 C :    0.231080
   2 C :   -0.691293
   3 H :    0.223748
   4 H :    0.235617
   5 H :    0.240189
   6 H :    0.233537
Sum of atomic charges:   -0.0000000

LOEWDIN ATOMIC CHARGES
----------------------
   0 O :    0.076049
   1 C :   -0.243472
   2 C :    0.171719
   3 H :    0.021325
   4 H :   -0.008678
   5 H :   -0.008876
   6 H :   -0.008068

  Mayer bond orders larger than 0.100000
B(  0-O ,  1-C ) :   1.7707 B(  1-C ,  2-C ) :   0.7485 B(  1-C ,  3-H ) :   1.0001
B(  2-C ,  4-H ) :   0.9901 B(  2-C ,  5-H ) :   0.9598 B(  2-C ,  6-H ) :   0.9890

Dispersion correction           -0.005512226
FINAL SINGLE POINT ENERGY      -153.927710654660

DIPOLE MOMENT
-------------

Method             : SCF
Type of density    : Electron Density
Multiplicity       :   1
Irrep              :   0
Energy             :  -153.9221984282735320 Eh
Relativity type    :
Basis              : AO
                                X                 Y                 Z
Electronic contribution:      1.473878337       3.093212178       0.095380367
Nuclear contribution   :     -1.827808156      -4.211166857       0.023343290
                        -----------------------------------------
Total Dipole Moment    :     -0.353929818      -1.117954679       0.118723657
                        -----------------------------------------
Magnitude (a.u.)       :      1.178636622
Magnitude (Debye)      :      2.995856209

Rotational constants in cm-1:             2.214126             0.317527             0.292656
Rotational constants in MHz :         66377.820087          9519.210438          8773.598116

                             ****ORCA TERMINATED NORMALLY****
TOTAL RUN TIME: 0 days 0 hours 8 minutes 20 seconds 172 msec
