                         Program Version 6.0.0  -   RELEASE  -
|  1> ! Engrad def2-TZVPPD wB97M-D3BJ
|  2> %pal nprocs 8 end%pal nprocs 64 end
|  3> %tddft Nroots 2 Iroot 1
|  4> sf true
|  5> end
|  6> *xyz 0 3
|  7> O   2.50683283 1.22723449 -0.47599791
|  8> O   -0.66693728 0.83679482 -2.29624944
|  9> O   0.53362826 -2.71173038 -1.57794852
| 10> O   -2.37918781 -1.5931008 1.14530787
| 11> N   0.68711117 -2.16067106 0.62766775
| 12> N   -2.02186571 0.62773406 1.44941528
| 13> N   1.63965296 -0.80770192 -0.98470332
| 14> N   -1.59676856 -0.3440926 -0.59547945
| 15> C   1.60270106 -0.02260027 1.28891194
| 16> C   -0.98448511 1.97062098 -0.23412637
| 17> C   0.94837805 -1.2371999 1.59247798
| 18> C   -1.48832347 1.82215133 0.99122298
| 19> C   1.86926826 1.01072125 2.30806505
| 20> C   -0.34817448 3.2266137 -0.72962641
| 21> C   1.95230552 0.20177649 -0.07472517
| 22> C   -1.04874865 0.82352996 -1.15205102
| 23> C   0.93465908 -1.95608181 -0.72277115
| 24> C   -2.02397219 -0.52450233 0.69737937
| 25> H   0.63886102 -1.45356715 2.59101743
| 26> H   -1.52274975 2.64777573 1.68541895
| 27> H   1.39600276 1.95356084 2.01766159
| 28> H   1.50276914 0.72471564 3.29809748
| 29> H   2.93212998 1.22845325 2.35571415
| 30> H   -0.8435745 3.55454406 -1.65128768
| 31> H   -0.38866382 4.00553363 0.01559488
| 32> H   0.69224044 3.03585092 -0.97031382
| 33> H   0.04346252 -2.90193389 0.83331282
| 34> H   -2.33655859 0.53801188 2.39254475
| 35> H   1.79418532 -0.60510896 -1.96093292
| 36> H   -1.61227538 -1.16732176 -1.18836454
| 37> *
| 38>
| 39>                          ****END OF INPUT****

CARTESIAN COORDINATES (ANGSTROEM)
---------------------------------
  O      2.506833    1.227234   -0.475998
  O     -0.666937    0.836795   -2.296249
  O      0.533628   -2.711730   -1.577949
  O     -2.379188   -1.593101    1.145308
  N      0.687111   -2.160671    0.627668
  N     -2.021866    0.627734    1.449415
  N      1.639653   -0.807702   -0.984703
  N     -1.596769   -0.344093   -0.595479
  C      1.602701   -0.022600    1.288912
  C     -0.984485    1.970621   -0.234126
  C      0.948378   -1.237200    1.592478
  C     -1.488323    1.822151    0.991223
  C      1.869268    1.010721    2.308065
  C     -0.348174    3.226614   -0.729626
  C      1.952306    0.201776   -0.074725
  C     -1.048749    0.823530   -1.152051
  C      0.934659   -1.956082   -0.722771
  C     -2.023972   -0.524502    0.697379
  H      0.638861   -1.453567    2.591017
  H     -1.522750    2.647776    1.685419
  H      1.396003    1.953561    2.017662
  H      1.502769    0.724716    3.298097
  H      2.932130    1.228453    2.355714
  H     -0.843575    3.554544   -1.651288
  H     -0.388664    4.005534    0.015595
  H      0.692240    3.035851   -0.970314
  H      0.043463   -2.901934    0.833313
  H     -2.336559    0.538012    2.392545
  H      1.794185   -0.605109   -1.960933
  H     -1.612275   -1.167322   -1.188365

 Total Charge           Charge          ....    0
 Multiplicity           Mult            ....    3
 Number of Electrons    NEL             ....  132
 Basis Dimension        Dim             ....  882

ORBITAL ENERGIES
----------------
                 SPIN UP ORBITALS
  NO   OCC          E(Eh)            E(eV)
   0   1.0000     -19.329782      -525.9901
   1   1.0000     -19.325768      -525.8809
   2   1.0000     -19.324187      -525.8378
   3   1.0000     -19.321116      -525.7543
   4   1.0000     -14.585741      -396.8982
   5   1.0000     -14.582115      -396.7995
   6   1.0000     -14.570168      -396.4744
   7   1.0000     -14.550889      -395.9498
   8   1.0000     -10.512854      -286.0693
   9   1.0000     -10.507979      -285.9366
  10   1.0000     -10.479150      -285.1522
  11   1.0000     -10.457663      -284.5675
  12   1.0000     -10.430039      -283.8158
  13   1.0000     -10.411542      -283.3125
  14   1.0000     -10.396967      -282.9159
  15   1.0000     -10.379428      -282.4386
  16   1.0000     -10.372022      -282.2371
  17   1.0000     -10.348744      -281.6036
  18   1.0000      -1.227136       -33.3921
  19   1.0000      -1.222464       -33.2649
  20   1.0000      -1.195508       -32.5314
  21   1.0000      -1.183357       -32.2008
  22   1.0000      -1.120565       -30.4921
  23   1.0000      -1.120374       -30.4869
  24   1.0000      -1.068745       -29.0820
  25   1.0000      -1.060370       -28.8541
  26   1.0000      -0.969028       -26.3686
  27   1.0000      -0.955968       -26.0132
  28   1.0000      -0.855182       -23.2707
  29   1.0000      -0.844303       -22.9746
  30   1.0000      -0.814020       -22.1506
  31   1.0000      -0.807948       -21.9854
  32   1.0000      -0.793393       -21.5893
  33   1.0000      -0.785282       -21.3686
  34   1.0000      -0.695532       -18.9264
  35   1.0000      -0.693234       -18.8639
  36   1.0000      -0.691769       -18.8240
  37   1.0000      -0.690675       -18.7942
  38   1.0000      -0.643104       -17.4998
  39   1.0000      -0.637113       -17.3367
  40   1.0000      -0.629751       -17.1364
  41   1.0000      -0.599913       -16.3245
  42   1.0000      -0.597098       -16.2479
  43   1.0000      -0.591622       -16.0989
  44   1.0000      -0.571507       -15.5515
  45   1.0000      -0.566868       -15.4253
  46   1.0000      -0.566400       -15.4125
  47   1.0000      -0.554463       -15.0877
  48   1.0000      -0.551189       -14.9986
  49   1.0000      -0.549078       -14.9412
  50   1.0000      -0.534673       -14.5492
  51   1.0000      -0.520508       -14.1638
  52   1.0000      -0.515981       -14.0406
  53   1.0000      -0.513996       -13.9865
  54   1.0000      -0.508864       -13.8469
  55   1.0000      -0.498961       -13.5774
  56   1.0000      -0.490420       -13.3450
  57   1.0000      -0.474792       -12.9197
  58   1.0000      -0.419837       -11.4243
  59   1.0000      -0.417829       -11.3697
  60   1.0000      -0.404947       -11.0192
  61   1.0000      -0.403408       -10.9773
  62   1.0000      -0.388136       -10.5617
  63   1.0000      -0.386256       -10.5106
  64   1.0000      -0.379081       -10.3153
  65   1.0000      -0.347289        -9.4502
  66   1.0000      -0.219243        -5.9659
  67   0.0000       0.012408         0.3376
  68   0.0000       0.021726         0.5912
  69   0.0000       0.034147         0.9292
  70   0.0000       0.039538         1.0759
  71   0.0000       0.042629         1.1600

                 SPIN DOWN ORBITALS
  NO   OCC          E(Eh)            E(eV)
   0   1.0000     -19.327982      -525.9411
   1   1.0000     -19.325732      -525.8799
   2   1.0000     -19.324194      -525.8380
   3   1.0000     -19.314153      -525.5648
   4   1.0000     -14.581958      -396.7953
   5   1.0000     -14.580897      -396.7664
   6   1.0000     -14.570164      -396.4743
   7   1.0000     -14.549995      -395.9255
   8   1.0000     -10.512862      -286.0695
   9   1.0000     -10.508293      -285.9452
  10   1.0000     -10.479146      -285.1521
  11   1.0000     -10.457541      -284.5642
  12   1.0000     -10.429967      -283.8138
  13   1.0000     -10.402094      -283.0554
  14   1.0000     -10.386502      -282.6311
  15   1.0000     -10.379432      -282.4387
  16   1.0000     -10.372491      -282.2498
  17   1.0000     -10.348718      -281.6029
  18   1.0000      -1.226410       -33.3723
  19   1.0000      -1.219057       -33.1722
  20   1.0000      -1.195471       -32.5304
  21   1.0000      -1.173295       -31.9270
  22   1.0000      -1.120205       -30.4823
  23   1.0000      -1.109919       -30.2024
  24   1.0000      -1.068652       -29.0795
  25   1.0000      -1.054569       -28.6963
  26   1.0000      -0.956110       -26.0171
  27   1.0000      -0.946715       -25.7614
  28   1.0000      -0.844512       -22.9803
  29   1.0000      -0.842926       -22.9372
  30   1.0000      -0.807956       -21.9856
  31   1.0000      -0.801375       -21.8065
  32   1.0000      -0.793298       -21.5867
  33   1.0000      -0.778932       -21.1958
  34   1.0000      -0.693178       -18.8623
  35   1.0000      -0.691251       -18.8099
  36   1.0000      -0.687602       -18.7106
  37   1.0000      -0.679414       -18.4878
  38   1.0000      -0.641144       -17.4464
  39   1.0000      -0.629609       -17.1325
  40   1.0000      -0.623605       -16.9692
  41   1.0000      -0.597489       -16.2585
  42   1.0000      -0.588988       -16.0272
  43   1.0000      -0.583290       -15.8721
  44   1.0000      -0.566347       -15.4111
  45   1.0000      -0.560439       -15.2503
  46   1.0000      -0.554889       -15.0993
  47   1.0000      -0.551135       -14.9972
  48   1.0000      -0.545813       -14.8523
  49   1.0000      -0.542738       -14.7687
  50   1.0000      -0.527342       -14.3497
  51   1.0000      -0.515361       -14.0237
  52   1.0000      -0.513904       -13.9840
  53   1.0000      -0.502579       -13.6759
  54   1.0000      -0.500359       -13.6155
  55   1.0000      -0.495592       -13.4858
  56   1.0000      -0.476030       -12.9534
  57   1.0000      -0.443829       -12.0772
  58   1.0000      -0.418508       -11.3882
  59   1.0000      -0.413722       -11.2580
  60   1.0000      -0.404116       -10.9966
  61   1.0000      -0.387229       -10.5370
  62   1.0000      -0.378637       -10.3032
  63   1.0000      -0.377396       -10.2695
  64   1.0000      -0.346380        -9.4255
  65   0.0000      -0.098320        -2.6754
  66   0.0000       0.011501         0.3130
  67   0.0000       0.022623         0.6156
  68   0.0000       0.031572         0.8591
  69   0.0000       0.037849         1.0299

----------------------------------------------------------------------------------------------------
          SPIN FLIP ABSORPTION SPECTRUM VIA TRANSITION ELECTRIC DIPOLE MOMENTS
----------------------------------------------------------------------------------------------------
     Transition      Energy     Energy  Wavelength fosc(D2)      D2        DX        DY        DZ
                      (eV)      (cm-1)    (nm)                 (au**2)    (au)      (au)      (au)
----------------------------------------------------------------------------------------------------
  1-3A  ->  2-3A    3.727152   30061.5   332.7   0.001021306   0.01118   0.04019   0.05925  -0.07784

Dispersion correction             ... done (  0.1 sec)

MULLIKEN ATOMIC CHARGES AND SPIN DENSITIES
------------------------------------------
   0 O :   -0.723519    0.035355
   1 O :   -0.647373    0.000245
   2 O :   -0.630584    0.007951
   3 O :   -0.668529    0.001394
   4 N :   -0.013149    0.048005
   5 N :    0.016059   -0.000159
   6 N :    0.043062    0.003057
   7 N :    0.050727   -0.003012
   8 C :    1.147145    0.626113
   9 C :    0.690166   -0.009261
  10 C :   -0.203606   -0.400751
  11 C :   -0.061008    0.004474
  12 C :   -1.363005   -0.045267
  13 C :   -1.411326   -0.003785
  14 C :    0.165123   -0.362800
  15 C :    0.540857    0.023324
  16 C :    0.336058    0.021499
  17 C :    0.407822   -0.008548
  18 H :    0.183424    0.030678
  19 H :    0.131233   -0.002789
  20 H :    0.243510    0.020775
  21 H :    0.331508    0.010576
  22 H :    0.342766    0.002091
  23 H :    0.344463   -0.000142
  24 H :    0.337356    0.001040
  25 H :    0.222265   -0.002554
  26 H :    0.073691    0.002728
  27 H :    0.009988   -0.002810
  28 H :    0.052295    0.004102
  29 H :    0.052576   -0.001528
Sum of atomic charges       :    0.0000000

LOEWDIN ATOMIC CHARGES AND SPIN DENSITIES
-----------------------------------------
   0 O :    0.056862    0.028053
   1 O :    0.107108   -0.000156
   2 O :    0.091506    0.006535
   3 O :    0.070075    0.000133
   4 N :    0.284649    0.019701
   5 N :    0.285711   -0.000828
   6 N :    0.340899   -0.000747
   7 N :    0.342688   -0.000231
   8 C :   -0.131590   -0.028802
   9 C :   -0.134657   -0.000271
  10 C :    0.096042   -0.027605
  11 C :    0.052794   -0.000350
  12 C :    0.159497   -0.003856
  13 C :    0.184886    0.000075
  14 C :   -0.418903    0.009107
  15 C :   -0.389377    0.000099
  16 C :   -0.478611    0.000282
  17 C :   -0.493995   -0.000543
  18 H :    0.025704   -0.002308
  19 H :    0.035349    0.000038
  20 H :   -0.006115   -0.000302
  21 H :   -0.000379    0.000238
  22 H :    0.000021   -0.000342
  23 H :    0.008290   -0.000011
  24 H :   -0.012667    0.000016
  25 H :   -0.014470    0.000088
  26 H :   -0.021179    0.001907
  27 H :   -0.028781   -0.000024
  28 H :   -0.002282    0.000111
  29 H :   -0.009078   -0.000007

  Mayer bond orders larger than 0.100000
B(  0-O , 14-C ) :   1.4083 B(  1-O , 15-C ) :   1.4571 B(  2-O , 16-C ) :   1.5850
B(  3-O , 17-C ) :   1.5292 B(  4-N , 10-C ) :   0.9343 B(  4-N , 16-C ) :   0.9641
B(  4-N , 26-H ) :   1.1029 B(  5-N , 11-C ) :   0.9555 B(  5-N , 17-C ) :   1.0491
B(  5-N , 27-H ) :   1.1362 B(  6-N , 14-C ) :   0.9557 B(  6-N , 16-C ) :   0.9416
B(  6-N , 28-H ) :   1.0978 B(  7-N , 15-C ) :   0.9855 B(  7-N , 16-C ) :   0.1134
B(  7-N , 17-C ) :   0.9500 B(  7-N , 29-H ) :   1.1056 B(  8-C , 10-C ) :   1.0105
B(  8-C , 12-C ) :   0.3236 B(  8-C , 14-C ) :   0.7011 B(  9-C , 11-C ) :   1.2106
B(  9-C , 13-C ) :   0.3768 B(  9-C , 15-C ) :   0.8127 B(  9-C , 25-H ) :  -0.1096
B( 10-C , 14-C ) :   0.1563 B( 10-C , 16-C ) :  -0.1092 B( 10-C , 18-H ) :   1.1079
B( 11-C , 13-C ) :  -0.1643 B( 11-C , 19-H ) :   1.1192 B( 12-C , 20-H ) :   0.9850
B( 12-C , 21-H ) :   0.9688 B( 12-C , 22-H ) :   0.9475 B( 13-C , 23-H ) :   0.9217
B( 13-C , 24-H ) :   0.9943 B( 13-C , 25-H ) :   1.0221

Dispersion correction           -0.058048904
FINAL SINGLE POINT ENERGY      -908.922473191183

DIPOLE MOMENT
-------------

Method             : TDA/CIS
Type of density    : Electron Density
Level              : Relaxed density
State              :   1
Multiplicity       :   3
Irrep              :   0
Energy             :     0.0000000000000000 Eh
Relativity type    :
Basis              : AO
                                X                 Y                 Z
Electronic contribution:     -2.733132884     -10.102796382      -5.705048451
Nuclear contribution   :      2.096919658      10.706338518       8.216097387
                        -----------------------------------------
Total Dipole Moment    :     -0.636213226       0.603542136       2.511048936
                        -----------------------------------------
Magnitude (a.u.)       :      2.659773889
Magnitude (Debye)      :      6.760607950

Rotational constants in cm-1:             0.017157             0.015566             0.013473
Rotational constants in MHz :           514.340202           466.664718           403.911470

                             ****ORCA TERMINATED NORMALLY****
TOTAL RUN TIME: 0 days 0 hours 4 minutes 57 seconds 468 msec
