                         Program Version 6.0.0  -   RELEASE  -
|  1> ! Engrad def2-TZVPPD wB97M-D3BJ
|  2> %pal nprocs 8 end%pal nprocs 64 end
|  3> %tddft
|  4>  Iroot 1 Nroots 3
|  5> sf true
|  6> end
|  7> *xyz 0 3
|  8> O   0.65361851 0.95047255 -0.64065241
|  9> C   0.86444365 -0.10696717 0.21782648
| 10> C   -0.36648331 -0.71962639 0.70509793
| 11> H   1.51933378 0.31852572 0.96379131
| 12> H   1.30395068 -0.90242971 -0.35238237
| 13> H   -0.62579084 -0.36951269 1.6901876
| 14> H   -0.97465987 -1.31806416 0.0008942
| 15> *
| 16>
| 17>                          ****END OF INPUT****

CARTESIAN COORDINATES (ANGSTROEM)
---------------------------------
  O      0.653619    0.950473   -0.640652
  C      0.864444   -0.106967    0.217826
  C     -0.366483   -0.719626    0.705098
  H      1.519334    0.318526    0.963791
  H      1.303951   -0.902430   -0.352382
  H     -0.625791   -0.369513    1.690188
  H     -0.974660   -1.318064    0.000894

 Total Charge           Charge          ....    0
 Multiplicity           Mult            ....    3
 Number of Electrons    NEL             ....   24
 Basis Dimension        Dim             ....  182

ORBITAL ENERGIES
----------------
                 SPIN UP ORBITALS
  NO   OCC          E(Eh)            E(eV)
   0   1.0000     -19.384882      -527.4895
   1   1.0000     -10.401024      -283.0263
   2   1.0000     -10.369014      -282.1552
   3   1.0000      -1.165900       -31.7257
   4   1.0000      -0.886427       -24.1209
   5   1.0000      -0.728184       -19.8149
   6   1.0000      -0.637817       -17.3559
   7   1.0000      -0.571479       -15.5507
   8   1.0000      -0.550708       -14.9855
   9   1.0000      -0.530078       -14.4242
  10   1.0000      -0.434916       -11.8347
  11   1.0000      -0.409099       -11.1321
  12   1.0000      -0.331087        -9.0093
  13   0.0000       0.041037         1.1167
  14   0.0000       0.062453         1.6994
  15   0.0000       0.073372         1.9965
  16   0.0000       0.089396         2.4326
  17   0.0000       0.115162         3.1337

                 SPIN DOWN ORBITALS
  NO   OCC          E(Eh)            E(eV)
   0   1.0000     -19.359833      -526.8079
   1   1.0000     -10.402241      -283.0594
   2   1.0000     -10.355769      -281.7948
   3   1.0000      -1.109966       -30.2037
   4   1.0000      -0.852152       -23.1882
   5   1.0000      -0.701687       -19.0939
   6   1.0000      -0.611102       -16.6289
   7   1.0000      -0.537651       -14.6302
   8   1.0000      -0.527338       -14.3496
   9   1.0000      -0.491369       -13.3708
  10   1.0000      -0.377959       -10.2848
  11   0.0000      -0.050913        -1.3854
  12   0.0000      -0.005968        -0.1624
  13   0.0000       0.040416         1.0998
  14   0.0000       0.062939         1.7127
  15   0.0000       0.073504         2.0001

----------------------------------------------------------------------------------------------------
          SPIN FLIP ABSORPTION SPECTRUM VIA TRANSITION ELECTRIC DIPOLE MOMENTS
----------------------------------------------------------------------------------------------------
     Transition      Energy     Energy  Wavelength fosc(D2)      D2        DX        DY        DZ
                      (eV)      (cm-1)    (nm)                 (au**2)    (au)      (au)      (au)
----------------------------------------------------------------------------------------------------
  1-3A  ->  2-3A    0.173791    1401.7  7134.1   0.000010074   0.00237  -0.00408   0.03195   0.03645
  1-3A  ->  3-3A    1.041379    8399.3  1190.6   0.003511634   0.13764  -0.10299  -0.25616   0.24782

Dispersion correction             ... done (  0.2 sec)

MULLIKEN ATOMIC CHARGES AND SPIN DENSITIES
------------------------------------------
   0 O :   -0.406024   -0.690359
   1 C :   -0.034892   -0.030745
   2 C :   -0.479669    0.609416
   3 H :    0.230896   -0.042279
   4 H :    0.202386    0.095427
   5 H :    0.228076    0.029992
   6 H :    0.259227    0.028548
Sum of atomic charges       :   -0.0000000

LOEWDIN ATOMIC CHARGES AND SPIN DENSITIES
-----------------------------------------
   0 O :   -0.009628   -0.675959
   1 C :   -0.301234    0.039202
   2 C :    0.339127    0.520586
   3 H :    0.011096   -0.035155
   4 H :    0.000746    0.034330
   5 H :   -0.035326    0.062274
   6 H :   -0.004780    0.054723

  Mayer bond orders larger than 0.100000
B(  0-O ,  1-C ) :   0.8439 B(  0-O ,  2-C ) :   0.3856 B(  1-C ,  2-C ) :   0.6932
B(  1-C ,  3-H ) :   0.9916 B(  1-C ,  4-H ) :   1.0104 B(  2-C ,  5-H ) :   0.9507
B(  2-C ,  6-H ) :   0.9497

Dispersion correction           -0.005601247
FINAL SINGLE POINT ENERGY      -153.748940880827

DIPOLE MOMENT
-------------

Method             : TDA/CIS
Type of density    : Electron Density
Level              : Relaxed density
State              :   1
Multiplicity       :   3
Irrep              :   0
Energy             :     0.0000000000000000 Eh
Relativity type    :
Basis              : AO
                                X                 Y                 Z
Electronic contribution:      0.166178780       1.385068425      -1.103740544
Nuclear contribution   :     -0.354344709      -2.372595772       1.880730085
                        -----------------------------------------
Total Dipole Moment    :     -0.188165928      -0.987527348       0.776989541
                        -----------------------------------------
Magnitude (a.u.)       :      1.270562642
Magnitude (Debye)      :      3.229513581

Rotational constants in cm-1:             1.440024             0.353542             0.320768
Rotational constants in MHz :         43170.827007         10598.921764          9616.371698

                             ****ORCA TERMINATED NORMALLY****
TOTAL RUN TIME: 0 days 0 hours 0 minutes 27 seconds 453 msec
