                         Program Version 6.0.0  -   RELEASE  -
|  1> ! Engrad def2-TZVPPD wB97M-D3BJ
|  2> %pal nprocs 8 end%pal nprocs 64 end
|  3> %tddft
|  4> Iroot 0 Nroots 3
|  5> sf true
|  6> end
|  7> *xyz 0 3
|  8> O   3.024663136804629 0.6936062269343956 -0.7885938955265599
|  9> O   -0.3301552678473791 1.1724221099361158 -2.278616024866613
| 10> O   0.48902637119645176 -3.0406104772958935 -0.7315635723457672
| 11> O   -3.2333706485472087 -1.4478238708361768 -0.0700239791280133
| 12> N   0.2852466018883287 -1.6081413849796613 0.9943892250505734
| 13> N   -2.1120285147208526 0.0768769165314202 1.150040864094435
| 14> N   1.6632195130814487 -1.1063109870677483 -0.7929735122641836
| 15> N   -1.5908463202519336 -0.2718626610998616 -1.0856468074610954
| 16> C   1.4223525669599515 0.5526541067950588 0.9138617449723483
| 17> C   -0.4756072254438498 1.5136578019789728 0.06159847594985847
| 18> C   0.40893314403536135 -0.3136776082265854 1.5854505287446479
| 19> C   -0.8834555361898454 0.7657544857382284 1.3117030107990606
| 20> C   2.0936834058383247 1.5845678697166603 1.721483166513532
| 21> C   -0.4395597352578108 2.9801568048997478 0.03211194367659005
| 22> C   2.124901642764885 0.0769896680358236 -0.2754046644386112
| 23> C   -0.7617173842426013 0.8241344955197282 -1.207755181607153
| 24> C   0.7782807360770827 -1.9923298596524917 -0.21138972829683605
| 25> C   -2.3718295185589278 -0.6137318058785844 0.00841606662309087
| 26> H   0.5899936229152986 -0.42730056563112245 2.653401986446959
| 27> H   -0.9793549980849992 1.4577013318284961 2.1431475695149613
| 28> H   2.512831793371537 2.3537155005946913 1.082157077712062
| 29> H   1.433456616835491 2.0510589201942553 2.447059995678515
| 30> H   2.920884348023621 1.163974372026739 2.2930236643706188
| 31> H   -1.4617657895965557 3.363284630771835 0.019167720283062843
| 32> H   0.06589605617769043 3.421148148039029 0.8841826364010138
| 33> H   0.050204124861778145 3.330255003574064 -0.8702393757062821
| 34> H   -0.3927347692206326 -2.2496485019242387 1.3647332826528595
| 35> H   -2.649358066503222 -0.21158550684023109 1.946710059927078
| 36> H   2.0722490995632223 -1.4150786051115325 -1.6595509520368625
| 37> H   -1.801439005929268 -0.7688565585712033 -1.9362813257332714
| 38> *
| 39>
| 40>                          ****END OF INPUT****

CARTESIAN COORDINATES (ANGSTROEM)
---------------------------------
  O      3.024663    0.693606   -0.788594
  O     -0.330155    1.172422   -2.278616
  O      0.489026   -3.040610   -0.731564
  O     -3.233371   -1.447824   -0.070024
  N      0.285247   -1.608141    0.994389
  N     -2.112029    0.076877    1.150041
  N      1.663220   -1.106311   -0.792974
  N     -1.590846   -0.271863   -1.085647
  C      1.422353    0.552654    0.913862
  C     -0.475607    1.513658    0.061598
  C      0.408933   -0.313678    1.585451
  C     -0.883456    0.765754    1.311703
  C      2.093683    1.584568    1.721483
  C     -0.439560    2.980157    0.032112
  C      2.124902    0.076990   -0.275405
  C     -0.761717    0.824134   -1.207755
  C      0.778281   -1.992330   -0.211390
  C     -2.371830   -0.613732    0.008416
  H      0.589994   -0.427301    2.653402
  H     -0.979355    1.457701    2.143148
  H      2.512832    2.353716    1.082157
  H      1.433457    2.051059    2.447060
  H      2.920884    1.163974    2.293024
  H     -1.461766    3.363285    0.019168
  H      0.065896    3.421148    0.884183
  H      0.050204    3.330255   -0.870239
  H     -0.392735   -2.249649    1.364733
  H     -2.649358   -0.211586    1.946710
  H      2.072249   -1.415079   -1.659551
  H     -1.801439   -0.768857   -1.936281

 Total Charge           Charge          ....    0
 Multiplicity           Mult            ....    3
 Number of Electrons    NEL             ....  132
 Basis Dimension        Dim             ....  882

ORBITAL ENERGIES
----------------
                 SPIN UP ORBITALS
  NO   OCC          E(Eh)            E(eV)
   0   1.0000     -19.328795      -525.9632
   1   1.0000     -19.324429      -525.8445
   2   1.0000     -19.317724      -525.6620
   3   1.0000     -19.314760      -525.5813
   4   1.0000     -14.565348      -396.3433
   5   1.0000     -14.561902      -396.2495
   6   1.0000     -14.560996      -396.2249
   7   1.0000     -14.558008      -396.1435
   8   1.0000     -10.502384      -285.7844
   9   1.0000     -10.500916      -285.7444
  10   1.0000     -10.476161      -285.0708
  11   1.0000     -10.471154      -284.9346
  12   1.0000     -10.447281      -284.2850
  13   1.0000     -10.444120      -284.1990
  14   1.0000     -10.410536      -283.2851
  15   1.0000     -10.406917      -283.1866
  16   1.0000     -10.369915      -282.1797
  17   1.0000     -10.369542      -282.1696
  18   1.0000      -1.226172       -33.3658
  19   1.0000      -1.219396       -33.1814
  20   1.0000      -1.200087       -32.6560
  21   1.0000      -1.196255       -32.5517
  22   1.0000      -1.122347       -30.5406
  23   1.0000      -1.102147       -29.9909
  24   1.0000      -1.068832       -29.0844
  25   1.0000      -1.061994       -28.8983
  26   1.0000      -0.991522       -26.9807
  27   1.0000      -0.946459       -25.7545
  28   1.0000      -0.882645       -24.0180
  29   1.0000      -0.838181       -22.8081
  30   1.0000      -0.827793       -22.5254
  31   1.0000      -0.803460       -21.8633
  32   1.0000      -0.791435       -21.5360
  33   1.0000      -0.784796       -21.3554
  34   1.0000      -0.705040       -19.1851
  35   1.0000      -0.702203       -19.1079
  36   1.0000      -0.693000       -18.8575
  37   1.0000      -0.668313       -18.1857
  38   1.0000      -0.659127       -17.9358
  39   1.0000      -0.639604       -17.4045
  40   1.0000      -0.624432       -16.9917
  41   1.0000      -0.599085       -16.3019
  42   1.0000      -0.589967       -16.0538
  43   1.0000      -0.585245       -15.9253
  44   1.0000      -0.582357       -15.8467
  45   1.0000      -0.576155       -15.6780
  46   1.0000      -0.563531       -15.3345
  47   1.0000      -0.562205       -15.2984
  48   1.0000      -0.555834       -15.1250
  49   1.0000      -0.552592       -15.0368
  50   1.0000      -0.546991       -14.8844
  51   1.0000      -0.544091       -14.8055
  52   1.0000      -0.532991       -14.5034
  53   1.0000      -0.521443       -14.1892
  54   1.0000      -0.510997       -13.9049
  55   1.0000      -0.501516       -13.6469
  56   1.0000      -0.491483       -13.3739
  57   1.0000      -0.421521       -11.4702
  58   1.0000      -0.416577       -11.3356
  59   1.0000      -0.410511       -11.1706
  60   1.0000      -0.403343       -10.9755
  61   1.0000      -0.399803       -10.8792
  62   1.0000      -0.394911       -10.7461
  63   1.0000      -0.389863       -10.6087
  64   1.0000      -0.385405       -10.4874
  65   1.0000      -0.351921        -9.5762
  66   1.0000      -0.280639        -7.6366
  67   0.0000       0.005652         0.1538
  68   0.0000       0.027825         0.7572
  69   0.0000       0.030590         0.8324
  70   0.0000       0.037957         1.0329
  71   0.0000       0.055962         1.5228

                 SPIN DOWN ORBITALS
  NO   OCC          E(Eh)            E(eV)
   0   1.0000     -19.325570      -525.8755
   1   1.0000     -19.320376      -525.7342
   2   1.0000     -19.317403      -525.6533
   3   1.0000     -19.314681      -525.5792
   4   1.0000     -14.564605      -396.3231
   5   1.0000     -14.561671      -396.2432
   6   1.0000     -14.560580      -396.2135
   7   1.0000     -14.557508      -396.1299
   8   1.0000     -10.502378      -285.7842
   9   1.0000     -10.500928      -285.7448
  10   1.0000     -10.476832      -285.0891
  11   1.0000     -10.471605      -284.9469
  12   1.0000     -10.445976      -284.2494
  13   1.0000     -10.443685      -284.1871
  14   1.0000     -10.398248      -282.9507
  15   1.0000     -10.395160      -282.8667
  16   1.0000     -10.370391      -282.1927
  17   1.0000     -10.369961      -282.1810
  18   1.0000      -1.224561       -33.3220
  19   1.0000      -1.217892       -33.1405
  20   1.0000      -1.195985       -32.5444
  21   1.0000      -1.191456       -32.4212
  22   1.0000      -1.119389       -30.4601
  23   1.0000      -1.100194       -29.9378
  24   1.0000      -1.066961       -29.0335
  25   1.0000      -1.060370       -28.8541
  26   1.0000      -0.975399       -26.5420
  27   1.0000      -0.930843       -25.3295
  28   1.0000      -0.877274       -23.8718
  29   1.0000      -0.834033       -22.6952
  30   1.0000      -0.819214       -22.2919
  31   1.0000      -0.797080       -21.6897
  32   1.0000      -0.789506       -21.4835
  33   1.0000      -0.783156       -21.3108
  34   1.0000      -0.696955       -18.9651
  35   1.0000      -0.692745       -18.8506
  36   1.0000      -0.686158       -18.6713
  37   1.0000      -0.660532       -17.9740
  38   1.0000      -0.649833       -17.6829
  39   1.0000      -0.635940       -17.3048
  40   1.0000      -0.621260       -16.9053
  41   1.0000      -0.594859       -16.1869
  42   1.0000      -0.584082       -15.8937
  43   1.0000      -0.580161       -15.7870
  44   1.0000      -0.569004       -15.4834
  45   1.0000      -0.565838       -15.3972
  46   1.0000      -0.559401       -15.2221
  47   1.0000      -0.556842       -15.1524
  48   1.0000      -0.551971       -15.0199
  49   1.0000      -0.545862       -14.8537
  50   1.0000      -0.540501       -14.7078
  51   1.0000      -0.533359       -14.5134
  52   1.0000      -0.525424       -14.2975
  53   1.0000      -0.512519       -13.9464
  54   1.0000      -0.502048       -13.6614
  55   1.0000      -0.495756       -13.4902
  56   1.0000      -0.486039       -13.2258
  57   1.0000      -0.416920       -11.3450
  58   1.0000      -0.413631       -11.2555
  59   1.0000      -0.405408       -11.0317
  60   1.0000      -0.391792       -10.6612
  61   1.0000      -0.389924       -10.6104
  62   1.0000      -0.384563       -10.4645
  63   1.0000      -0.381049       -10.3689
  64   1.0000      -0.365237        -9.9386
  65   0.0000      -0.086411        -2.3514
  66   0.0000      -0.003958        -0.1077
  67   0.0000       0.005510         0.1499
  68   0.0000       0.027992         0.7617
  69   0.0000       0.030745         0.8366

MULLIKEN ATOMIC CHARGES AND SPIN POPULATIONS
--------------------------------------------
   0 O :   -0.682638    0.150362
   1 O :   -0.659844    0.117990
   2 O :   -0.660926    0.003489
   3 O :   -0.647912    0.011628
   4 N :   -0.215946    0.021155
   5 N :   -0.243635    0.033177
   6 N :    0.039568    0.023696
   7 N :    0.065286    0.020015
   8 C :    0.574153    0.530174
   9 C :    0.833143    0.600696
  10 C :    0.148343    0.066344
  11 C :    0.335840    0.082031
  12 C :   -1.796126   -0.001705
  13 C :   -1.699383    0.037201
  14 C :    0.490780    0.139743
  15 C :    0.067723    0.057618
  16 C :    0.459628   -0.005680
  17 C :    0.332510   -0.000741
  18 H :    0.504808    0.008304
  19 H :    0.436411    0.025573
  20 H :    0.348964    0.012819
  21 H :    0.357377    0.005132
  22 H :    0.397757    0.021627
  23 H :    0.390186    0.028843
  24 H :    0.331586    0.011385
  25 H :    0.336648    0.003980
  26 H :    0.038124   -0.002097
  27 H :    0.081894   -0.001797
  28 H :    0.004410   -0.001101
  29 H :    0.031272    0.000139
Sum of atomic charges         :   -0.0000000

LOEWDIN ATOMIC CHARGES AND SPIN POPULATIONS
-------------------------------------------
   0 O :    0.113898    0.131916
   1 O :    0.113640    0.104083
   2 O :    0.097567    0.002684
   3 O :    0.098206    0.010709
   4 N :    0.284967    0.008176
   5 N :    0.275034    0.027460
   6 N :    0.338774    0.020608
   7 N :    0.337526    0.018577
   8 C :   -0.103067    0.515040
   9 C :   -0.076376    0.539662
  10 C :   -0.045036    0.087427
  11 C :   -0.062084    0.101363
  12 C :    0.181555    0.068197
  13 C :    0.196356    0.081642
  14 C :   -0.417715    0.089805
  15 C :   -0.415715    0.076311
  16 C :   -0.500756    0.003911
  17 C :   -0.502747    0.005065
  18 H :    0.051728    0.014705
  19 H :    0.048139    0.003277
  20 H :    0.005177    0.004861
  21 H :   -0.003203    0.004987
  22 H :    0.017478    0.027623
  23 H :    0.018316    0.033830
  24 H :   -0.007724    0.007510
  25 H :    0.007937    0.004022
  26 H :   -0.023501    0.000284
  27 H :   -0.023955    0.002777
  28 H :   -0.002309    0.001747
  29 H :   -0.002108    0.001741

  Mayer bond orders larger than 0.100000
B(  0-O , 14-C ) :   1.2834 B(  1-O , 15-C ) :   1.4587 B(  2-O , 16-C ) :   1.5351
B(  3-O , 17-C ) :   1.5584 B(  4-N ,  8-C ) :   0.2348 B(  4-N , 10-C ) :   0.4411
B(  4-N , 16-C ) :   1.0646 B(  4-N , 26-H ) :   1.1095 B(  5-N ,  9-C ) :   0.2522
B(  5-N , 11-C ) :   0.1144 B(  5-N , 17-C ) :   1.2147 B(  5-N , 27-H ) :   1.0557
B(  6-N , 14-C ) :   1.0471 B(  6-N , 16-C ) :   0.9254 B(  6-N , 28-H ) :   1.1203
B(  7-N , 11-C ) :   0.1140 B(  7-N , 15-C ) :   0.9188 B(  7-N , 17-C ) :   0.9560
B(  7-N , 29-H ) :   1.1003 B(  8-C , 10-C ) :   0.5598 B(  8-C , 11-C ) :   0.1671
B(  8-C , 14-C ) :   0.8248 B(  8-C , 15-C ) :   0.2570 B(  8-C , 16-C ) :   0.1010
B(  8-C , 20-H ) :  -0.1196 B(  8-C , 21-H ) :  -0.1670 B(  9-C , 10-C ) :   0.1437
B(  9-C , 11-C ) :   0.2515 B(  9-C , 13-C ) :   0.2699 B(  9-C , 15-C ) :   0.4831
B(  9-C , 19-H ) :  -0.1363 B(  9-C , 25-H ) :  -0.1207 B( 10-C , 11-C ) :   0.5678
B( 10-C , 12-C ) :  -0.2310 B( 10-C , 15-C ) :  -0.1587 B( 10-C , 16-C ) :  -0.1255
B( 10-C , 18-H ) :   0.7920 B( 11-C , 13-C ) :  -0.2358 B( 11-C , 17-C ) :  -0.2172
B( 11-C , 19-H ) :   0.9626 B( 12-C , 20-H ) :   0.9840 B( 12-C , 21-H ) :   1.0872
B( 12-C , 22-H ) :   0.7699 B( 13-C , 23-H ) :   0.8156 B( 13-C , 24-H ) :   0.9796
B( 13-C , 25-H ) :   1.0185 B( 15-C , 17-C ) :  -0.1285

----------------------------------------------------------------------------------------------------
          SPIN FLIP ABSORPTION SPECTRUM VIA TRANSITION ELECTRIC DIPOLE MOMENTS
----------------------------------------------------------------------------------------------------
     Transition      Energy     Energy  Wavelength fosc(D2)      D2        DX        DY        DZ
                      (eV)      (cm-1)    (nm)                 (au**2)    (au)      (au)      (au)
----------------------------------------------------------------------------------------------------
  1-3A  ->  2-3A    1.753912   14146.3   706.9   0.000129007   0.00300   0.00088   0.03747  -0.03997
  1-3A  ->  3-1A    3.103698   25033.0   399.5   0.144865518   1.90514  -1.08789   0.57893  -0.62167

Dispersion correction           -0.061249260
FINAL SINGLE POINT ENERGY      -908.796713961648

DIPOLE MOMENT
-------------

Method             : SCF
Type of density    : Electron Density
Multiplicity       :   3
Irrep              :   0
Energy             :  -908.7354647011666202 Eh
Relativity type    :
Basis              : AO
                                X                 Y                 Z
Electronic contribution:     -2.445913044     -10.135628033      -6.959119942
Nuclear contribution   :      2.214350975      11.535039379       9.688739825
                        -----------------------------------------
Total Dipole Moment    :     -0.231562068       1.399411346       2.729619882
                        -----------------------------------------
Magnitude (a.u.)       :      3.076166089
Magnitude (Debye)      :      7.818992814

Rotational constants in cm-1:             0.019891             0.016004             0.013127
Rotational constants in MHz :           596.312553           479.797419           393.542128

                             ****ORCA TERMINATED NORMALLY****
TOTAL RUN TIME: 0 days 0 hours 3 minutes 6 seconds 752 msec
