                         Program Version 6.0.0  -   RELEASE  -
|  1> ! Engrad def2-TZVPPD wB97M-D3BJ
|  2> %pal nprocs 8 end%pal nprocs 64 end
|  3> %tddft Nroots 2 Iroot 1
|  4> sf true
|  5> end
|  6> *xyz 0 3
|  7> O   3.6442135 0.36063715 -0.43232695
|  8> O   -1.18733372 1.21701787 -2.62184271
|  9> O   0.47752402 -2.75187323 -0.79754804
| 10> O   -3.0659321 -1.71585459 0.20883507
| 11> N   0.33567562 -1.30599685 0.95160293
| 12> N   -2.0629052 0.11987041 1.10758395
| 13> N   1.7523366 -0.84597754 -0.81992958
| 14> N   -1.74606055 -0.41874181 -1.12920805
| 15> C   1.94839377 0.39628567 1.22987998
| 16> C   -1.00522615 1.69291753 -0.30558251
| 17> C   0.44184053 0.05249609 1.44848149
| 18> C   -0.88206083 0.9692958 1.02800656
| 19> C   2.76635924 1.01354388 2.28755157
| 20> C   -1.0607161 3.15546701 -0.40886582
| 21> C   2.54273987 0.00060659 -0.04138921
| 22> C   -1.30278925 0.86937918 -1.46225075
| 23> C   0.81653783 -1.71357076 -0.25939229
| 24> C   -2.34373726 -0.74729801 0.08107346
| 25> H   0.29364437 -0.00641655 2.52252135
| 26> H   -0.94236603 1.71559748 1.82620676
| 27> H   3.79878668 1.09144705 1.97653327
| 28> H   2.40362238 2.00520759 2.56335836
| 29> H   2.67405524 0.41137817 3.20984008
| 30> H   -2.00073706 3.52826811 0.02217579
| 31> H   -0.26585166 3.63809609 0.1884366
| 32> H   -1.00137022 3.48086439 -1.44628868
| 33> H   -0.33873259 -1.92720014 1.35723808
| 34> H   -2.4800505 -0.09552819 1.99978608
| 35> H   2.15459614 -1.15546722 -1.6796433
| 36> H   -1.92397166 -1.05686854 -1.88421102
| 37> *
| 38>
| 39>                          ****END OF INPUT****

CARTESIAN COORDINATES (ANGSTROEM)
---------------------------------
  O      3.644214    0.360637   -0.432327
  O     -1.187334    1.217018   -2.621843
  O      0.477524   -2.751873   -0.797548
  O     -3.065932   -1.715855    0.208835
  N      0.335676   -1.305997    0.951603
  N     -2.062905    0.119870    1.107584
  N      1.752337   -0.845978   -0.819930
  N     -1.746061   -0.418742   -1.129208
  C      1.948394    0.396286    1.229880
  C     -1.005226    1.692918   -0.305583
  C      0.441841    0.052496    1.448481
  C     -0.882061    0.969296    1.028007
  C      2.766359    1.013544    2.287552
  C     -1.060716    3.155467   -0.408866
  C      2.542740    0.000607   -0.041389
  C     -1.302789    0.869379   -1.462251
  C      0.816538   -1.713571   -0.259392
  C     -2.343737   -0.747298    0.081073
  H      0.293644   -0.006417    2.522521
  H     -0.942366    1.715597    1.826207
  H      3.798787    1.091447    1.976533
  H      2.403622    2.005208    2.563358
  H      2.674055    0.411378    3.209840
  H     -2.000737    3.528268    0.022176
  H     -0.265852    3.638096    0.188437
  H     -1.001370    3.480864   -1.446289
  H     -0.338733   -1.927200    1.357238
  H     -2.480050   -0.095528    1.999786
  H      2.154596   -1.155467   -1.679643
  H     -1.923972   -1.056869   -1.884211

 Total Charge           Charge          ....    0
 Multiplicity           Mult            ....    3
 Number of Electrons    NEL             ....  132
 Basis Dimension        Dim             ....  882

ORBITAL ENERGIES
----------------
                 SPIN UP ORBITALS
  NO   OCC          E(Eh)            E(eV)
   0   1.0000     -19.335911      -526.1569
   1   1.0000     -19.333698      -526.0967
   2   1.0000     -19.319565      -525.7121
   3   1.0000     -19.315804      -525.6098
   4   1.0000     -14.565239      -396.3403
   5   1.0000     -14.558439      -396.1553
   6   1.0000     -14.557417      -396.1275
   7   1.0000     -14.557088      -396.1185
   8   1.0000     -10.504480      -285.8414
   9   1.0000     -10.501008      -285.7469
  10   1.0000     -10.481210      -285.2082
  11   1.0000     -10.478371      -285.1310
  12   1.0000     -10.452026      -284.4141
  13   1.0000     -10.451874      -284.4099
  14   1.0000     -10.425421      -283.6901
  15   1.0000     -10.416208      -283.4394
  16   1.0000     -10.376322      -282.3541
  17   1.0000     -10.374273      -282.2983
  18   1.0000      -1.218526       -33.1578
  19   1.0000      -1.213358       -33.0171
  20   1.0000      -1.194670       -32.5086
  21   1.0000      -1.191963       -32.4350
  22   1.0000      -1.115617       -30.3575
  23   1.0000      -1.097338       -29.8601
  24   1.0000      -1.062848       -28.9216
  25   1.0000      -1.054042       -28.6819
  26   1.0000      -0.967566       -26.3288
  27   1.0000      -0.956491       -26.0274
  28   1.0000      -0.884886       -24.0790
  29   1.0000      -0.840628       -22.8747
  30   1.0000      -0.826430       -22.4883
  31   1.0000      -0.804337       -21.8871
  32   1.0000      -0.781330       -21.2611
  33   1.0000      -0.776588       -21.1320
  34   1.0000      -0.697109       -18.9693
  35   1.0000      -0.692688       -18.8490
  36   1.0000      -0.677054       -18.4236
  37   1.0000      -0.663421       -18.0526
  38   1.0000      -0.655009       -17.8237
  39   1.0000      -0.642635       -17.4870
  40   1.0000      -0.620911       -16.8958
  41   1.0000      -0.603017       -16.4089
  42   1.0000      -0.593586       -16.1523
  43   1.0000      -0.586082       -15.9481
  44   1.0000      -0.571613       -15.5544
  45   1.0000      -0.568272       -15.4635
  46   1.0000      -0.561654       -15.2834
  47   1.0000      -0.558082       -15.1862
  48   1.0000      -0.555928       -15.1276
  49   1.0000      -0.548964       -14.9381
  50   1.0000      -0.546127       -14.8609
  51   1.0000      -0.542281       -14.7562
  52   1.0000      -0.533690       -14.5224
  53   1.0000      -0.519370       -14.1328
  54   1.0000      -0.513974       -13.9860
  55   1.0000      -0.507740       -13.8163
  56   1.0000      -0.493186       -13.4203
  57   1.0000      -0.421128       -11.4595
  58   1.0000      -0.419034       -11.4025
  59   1.0000      -0.416483       -11.3331
  60   1.0000      -0.399639       -10.8747
  61   1.0000      -0.398973       -10.8566
  62   1.0000      -0.390477       -10.6254
  63   1.0000      -0.389002       -10.5853
  64   1.0000      -0.379226       -10.3193
  65   1.0000      -0.339707        -9.2439
  66   1.0000      -0.332157        -9.0384
  67   0.0000       0.003702         0.1007
  68   0.0000       0.026702         0.7266
  69   0.0000       0.031177         0.8484
  70   0.0000       0.038470         1.0468
  71   0.0000       0.054843         1.4924

                 SPIN DOWN ORBITALS
  NO   OCC          E(Eh)            E(eV)
   0   1.0000     -19.331169      -526.0279
   1   1.0000     -19.329329      -525.9778
   2   1.0000     -19.319309      -525.7051
   3   1.0000     -19.315494      -525.6013
   4   1.0000     -14.564376      -396.3168
   5   1.0000     -14.558183      -396.1483
   6   1.0000     -14.557161      -396.1205
   7   1.0000     -14.556365      -396.0988
   8   1.0000     -10.504499      -285.8419
   9   1.0000     -10.501026      -285.7474
  10   1.0000     -10.482295      -285.2377
  11   1.0000     -10.479405      -285.1591
  12   1.0000     -10.452092      -284.4159
  13   1.0000     -10.451955      -284.4122
  14   1.0000     -10.413851      -283.3753
  15   1.0000     -10.404598      -283.1235
  16   1.0000     -10.376914      -282.3702
  17   1.0000     -10.374858      -282.3142
  18   1.0000      -1.216651       -33.1068
  19   1.0000      -1.210876       -32.9496
  20   1.0000      -1.189471       -32.3671
  21   1.0000      -1.186997       -32.2998
  22   1.0000      -1.113098       -30.2889
  23   1.0000      -1.094705       -29.7884
  24   1.0000      -1.061178       -28.8761
  25   1.0000      -1.052425       -28.6379
  26   1.0000      -0.953007       -25.9326
  27   1.0000      -0.939615       -25.5682
  28   1.0000      -0.881097       -23.9759
  29   1.0000      -0.835339       -22.7307
  30   1.0000      -0.817833       -22.2544
  31   1.0000      -0.799159       -21.7462
  32   1.0000      -0.780023       -21.2255
  33   1.0000      -0.775020       -21.0894
  34   1.0000      -0.690437       -18.7877
  35   1.0000      -0.686055       -18.6685
  36   1.0000      -0.672153       -18.2902
  37   1.0000      -0.658065       -17.9069
  38   1.0000      -0.644852       -17.5473
  39   1.0000      -0.638475       -17.3738
  40   1.0000      -0.617971       -16.8159
  41   1.0000      -0.598322       -16.2812
  42   1.0000      -0.584549       -15.9064
  43   1.0000      -0.576707       -15.6930
  44   1.0000      -0.566402       -15.4126
  45   1.0000      -0.560296       -15.2464
  46   1.0000      -0.555829       -15.1249
  47   1.0000      -0.553004       -15.0480
  48   1.0000      -0.545056       -14.8317
  49   1.0000      -0.541329       -14.7303
  50   1.0000      -0.540945       -14.7199
  51   1.0000      -0.534024       -14.5315
  52   1.0000      -0.527740       -14.3605
  53   1.0000      -0.508472       -13.8362
  54   1.0000      -0.505337       -13.7509
  55   1.0000      -0.500921       -13.6307
  56   1.0000      -0.487185       -13.2570
  57   1.0000      -0.416477       -11.3329
  58   1.0000      -0.415719       -11.3123
  59   1.0000      -0.407969       -11.1014
  60   1.0000      -0.388134       -10.5617
  61   1.0000      -0.386918       -10.5286
  62   1.0000      -0.384718       -10.4687
  63   1.0000      -0.384076       -10.4513
  64   1.0000      -0.373427       -10.1615
  65   0.0000      -0.056608        -1.5404
  66   0.0000      -0.050093        -1.3631
  67   0.0000       0.003485         0.0948
  68   0.0000       0.026489         0.7208
  69   0.0000       0.031034         0.8445

----------------------------------------------------------------------------------------------------
          SPIN FLIP ABSORPTION SPECTRUM VIA TRANSITION ELECTRIC DIPOLE MOMENTS
----------------------------------------------------------------------------------------------------
     Transition      Energy     Energy  Wavelength fosc(D2)      D2        DX        DY        DZ
                      (eV)      (cm-1)    (nm)                 (au**2)    (au)      (au)      (au)
----------------------------------------------------------------------------------------------------
  1-3A  ->  2-3A    0.003136      25.3  395367.7   0.000000104   0.00135  -0.03046  -0.02056   0.00037

Dispersion correction             ... done (  0.1 sec)

MULLIKEN ATOMIC CHARGES AND SPIN DENSITIES
------------------------------------------
   0 O :   -0.666645   -0.068843
   1 O :   -0.667286    0.062382
   2 O :   -0.665158   -0.004700
   3 O :   -0.649739    0.002544
   4 N :   -0.262659   -0.008226
   5 N :   -0.284006    0.006625
   6 N :    0.093604   -0.002700
   7 N :    0.063473    0.007010
   8 C :    0.731916    0.321791
   9 C :    0.399132    0.358833
  10 C :   -0.003239   -0.256392
  11 C :    0.457732   -0.065313
  12 C :   -1.345720   -0.009857
  13 C :   -1.460467    0.015084
  14 C :    0.054989   -0.335274
  15 C :    0.361677   -0.065572
  16 C :    0.353251    0.018117
  17 C :    0.373904   -0.001657
  18 H :    0.541179   -0.020995
  19 H :    0.391100    0.006471
  20 H :    0.321572   -0.008699
  21 H :    0.295987    0.005881
  22 H :    0.329122    0.008878
  23 H :    0.345177    0.018136
  24 H :    0.310409    0.009954
  25 H :    0.334101    0.002996
  26 H :    0.074751   -0.001831
  27 H :    0.100152    0.001669
  28 H :    0.051073    0.003080
  29 H :    0.020618    0.000607
Sum of atomic charges       :    0.0000000

LOEWDIN ATOMIC CHARGES AND SPIN DENSITIES
-----------------------------------------
   0 O :    0.080135   -0.064087
   1 O :    0.096733    0.055325
   2 O :    0.084789   -0.004683
   3 O :    0.086958    0.002615
   4 N :    0.258113   -0.006529
   5 N :    0.263723    0.009147
   6 N :    0.331890   -0.003775
   7 N :    0.325722    0.003643
   8 C :    0.018025   -0.196478
   9 C :   -0.023354    0.211356
  10 C :   -0.045515   -0.010125
  11 C :   -0.064328    0.010578
  12 C :    0.177219   -0.033178
  13 C :    0.176452    0.033774
  14 C :   -0.405162   -0.038782
  15 C :   -0.401914    0.029901
  16 C :   -0.486788   -0.000798
  17 C :   -0.497206    0.000105
  18 H :    0.030808   -0.000181
  19 H :    0.043691   -0.000444
  20 H :   -0.007503    0.000567
  21 H :    0.005646   -0.008804
  22 H :    0.017478   -0.008616
  23 H :    0.015307    0.012527
  24 H :    0.011496    0.006106
  25 H :   -0.000463    0.000453
  26 H :   -0.033198   -0.000707
  27 H :   -0.025132    0.001011
  28 H :   -0.022561   -0.000284
  29 H :   -0.011061    0.000363

  Mayer bond orders larger than 0.100000
B(  0-O , 14-C ) :   1.4166 B(  1-O , 15-C ) :   1.4253 B(  2-O , 16-C ) :   1.4939
B(  3-O , 17-C ) :   1.5481 B(  4-N ,  8-C ) :   0.1845 B(  4-N , 10-C ) :   0.2271
B(  4-N , 16-C ) :   1.0408 B(  4-N , 26-H ) :   1.0858 B(  5-N ,  9-C ) :   0.2716
B(  5-N , 10-C ) :   0.1929 B(  5-N , 11-C ) :   0.1455 B(  5-N , 17-C ) :   1.0972
B(  5-N , 27-H ) :   1.0175 B(  6-N , 14-C ) :   1.0207 B(  6-N , 16-C ) :   1.0104
B(  6-N , 28-H ) :   1.0550 B(  7-N , 11-C ) :   0.1062 B(  7-N , 15-C ) :   0.9295
B(  7-N , 17-C ) :   1.0230 B(  7-N , 29-H ) :   1.0931 B(  8-C , 10-C ) :   0.3386
B(  8-C , 12-C ) :   0.3802 B(  8-C , 14-C ) :   0.8325 B(  8-C , 16-C ) :   0.1019
B(  8-C , 20-H ) :  -0.1053 B(  9-C , 10-C ) :   0.2266 B(  9-C , 13-C ) :   0.3773
B(  9-C , 15-C ) :   0.8725 B(  9-C , 19-H ) :  -0.1001 B( 10-C , 11-C ) :   0.5964
B( 10-C , 16-C ) :  -0.1530 B( 10-C , 18-H ) :   0.7331 B( 10-C , 19-H ) :  -0.1359
B( 11-C , 15-C ) :  -0.1592 B( 11-C , 17-C ) :  -0.1397 B( 11-C , 19-H ) :   1.0206
B( 12-C , 20-H ) :   0.9908 B( 12-C , 21-H ) :   0.9001 B( 12-C , 22-H ) :   0.9198
B( 13-C , 23-H ) :   0.8958 B( 13-C , 24-H ) :   0.9398 B( 13-C , 25-H ) :   0.9542

Dispersion correction           -0.056326127
FINAL SINGLE POINT ENERGY      -908.784735517322

DIPOLE MOMENT
-------------

Method             : TDA/CIS
Type of density    : Electron Density
Level              : Relaxed density
State              :   1
Multiplicity       :   3
Irrep              :   0
Energy             :     0.0000000000000000 Eh
Relativity type    :
Basis              : AO
                                X                 Y                 Z
Electronic contribution:     -2.385022096      -9.047775604      -7.321371826
Nuclear contribution   :      2.246933135      10.877223936      10.069326567
                        -----------------------------------------
Total Dipole Moment    :     -0.138088961       1.829448332       2.747954741
                        -----------------------------------------
Magnitude (a.u.)       :      3.304119402
Magnitude (Debye)      :      8.398404087

Rotational constants in cm-1:             0.019633             0.012908             0.011427
Rotational constants in MHz :           588.594786           386.963247           342.565272

                             ****ORCA TERMINATED NORMALLY****
TOTAL RUN TIME: 0 days 0 hours 4 minutes 24 seconds 952 msec
