                         Program Version 6.0.0  -   RELEASE  -
|  1> ! opt def2-TZVPPD wB97M-D3BJ
|  2> %pal nprocs 8 end%pal nprocs 32 end
|  3> %geom Constraints
|  4> {B 9 8 3.6 C}
|  5> {A 8 9 11 98.0 C}
|  6>  end
|  7>  end
|  8> *xyz 0 1
|  9> O   2.98579685529314 0.88758230159078 -0.86184571092411
| 10> O   -0.03983205397054 0.68929041702508 -2.10362336723772
| 11> O   0.93431434349854 -3.13274393337945 -0.68767288184107
| 12> O   -3.75829998830163 -0.84727300865116 -0.0472717177755
| 13> N   0.21184538946282 -1.54604804365365 0.7617588924445
| 14> N   -2.13631993928911 0.03188773433438 1.27350571071531
| 15> N   2.02598672506387 -1.14318467211666 -0.64531219127023
| 16> N   -1.91814233924584 0.03137116037665 -1.04498946748291
| 17> C   1.18097737274226 0.71693507080484 0.70173889017321
| 18> C   -0.20686880480777 1.27024627933494 0.21345042231937
| 19> C   0.41441080275909 -0.34173258966541 1.52336266615173
| 20> C   -0.82922175114212 0.58960593673968 1.44434972027296
| 21> C   1.92822011286806 1.69488653817281 1.5963734975385
| 22> C   -0.37809776891576 2.77134929626422 0.04819649358288
| 23> C   2.1403947470937 0.1972384729179 -0.35038567829864
| 24> C   -0.67361678962426 0.6214190571346 -1.0793014500539
| 25> C   1.04142578622994 -2.02697492875068 -0.21027082435993
| 26> C   -2.68467002550422 -0.30396816036989 0.07167054343891
| 27> H   0.80817443950001 -0.54572267081061 2.51895215321335
| 28> H   -0.83785272399001 1.27240685039143 2.28901317073582
| 29> H   2.31167340578204 2.52284411740894 1.00913016264629
| 30> H   1.28982602448342 2.08257620823614 2.38710022492991
| 31> H   2.77390820759972 1.19140411795486 2.06045858523949
| 32> H   -1.41857211141493 3.00964947214868 -0.16882755561625
| 33> H   -0.09065531563179 3.29799318042223 0.95389844358819
| 34> H   0.23426221611057 3.12492645074476 -0.77764887675592
| 35> H   -0.46772570547622 -2.21560145172536 1.0787081584806
| 36> H   -2.71769301149571 -0.17090724573546 2.06627440900372
| 37> H   2.60065167263658 -1.49057255715425 -1.3966820077142
| 38> H   -2.27169977231386 -0.32388339999036 -1.91951041514436
| 39> *
| 40>
| 41>                          ****END OF INPUT****
 Total Charge           Charge          ....    0
 Multiplicity           Mult            ....    1
 Number of Electrons    NEL             ....  132
Dispersion correction           -0.051143681
FINAL SINGLE POINT ENERGY      -908.492586620494
Dispersion correction             ... done (  0.0 sec)
Dispersion correction           -0.051216822
FINAL SINGLE POINT ENERGY      -908.559038474578
Dispersion correction             ... done (  0.0 sec)
Dispersion correction           -0.051440774
FINAL SINGLE POINT ENERGY      -908.616752391668
Dispersion correction             ... done (  0.0 sec)
FINAL SINGLE POINT ENERGY      -908.693212906713
FINAL SINGLE POINT ENERGY      -908.775857273213
FINAL SINGLE POINT ENERGY      -908.836090143918
FINAL SINGLE POINT ENERGY      -908.863028717514
FINAL SINGLE POINT ENERGY      -908.878994911366
FINAL SINGLE POINT ENERGY      -908.897426671864
FINAL SINGLE POINT ENERGY      -908.914168908535
FINAL SINGLE POINT ENERGY      -908.932586218005
FINAL SINGLE POINT ENERGY      -908.932650601716
FINAL SINGLE POINT ENERGY      -908.932704805601
FINAL SINGLE POINT ENERGY      -908.932759130566
FINAL SINGLE POINT ENERGY      -908.932798225177
FINAL SINGLE POINT ENERGY      -908.932819021555
FINAL SINGLE POINT ENERGY      -908.932830164099
Dispersion correction             ... done (  0.0 sec)
Dispersion correction           -0.056679402
FINAL SINGLE POINT ENERGY      -908.932834950103
Dispersion correction             ... done (  0.0 sec)
Dispersion correction           -0.056698336
FINAL SINGLE POINT ENERGY      -908.932837582099
Dispersion correction             ... done (  0.0 sec)
                    ***********************HURRAY********************

CARTESIAN COORDINATES (ANGSTROEM)
---------------------------------
  O      2.857800    1.064693   -0.717775
  O     -0.417966    0.841598   -2.050604
  O      0.529527   -2.755032   -1.476283
  O     -2.610168   -1.749526    0.964657
  N      0.714613   -2.005844    0.664410
  N     -2.469278    0.492880    1.340993
  N      1.828281   -0.929825   -1.042655
  N     -1.611961   -0.412226   -0.591838
  C      1.767954    0.079966    1.142277
  C     -1.115949    1.884065   -0.035997
  C      1.048875   -0.983486    1.522587
  C     -1.894661    1.710504    1.035992
  C      2.131269    1.208973    2.051418
  C     -0.418693    3.161188   -0.378428
  C      2.214078    0.150991   -0.250388
  C     -0.998376    0.777411   -0.989872
  C      0.993467   -1.962781   -0.684406
  C     -2.258804   -0.647365    0.598690
  H      0.684834   -1.098734    2.532622
  H     -2.078750    2.498109    1.750759
  H      1.709724    2.143893    1.685406
  H      1.763781    1.028652    3.059116
  H      3.210503    1.342792    2.087896
  H     -0.779967    3.556099   -1.325931
  H     -0.570622    3.907366    0.398065
  H      0.649375    2.984920   -0.498938
  H      0.025091   -2.687559    0.933859
  H     -2.964396    0.358081    2.203655
  H      1.989236   -0.829552   -2.033142
  H     -1.476218   -1.215248   -1.191544

 Multiplicity           Mult            ....    1
 Number of Electrons    NEL             ....  132
 Basis Dimension        Dim             ....  882

ORBITAL ENERGIES
----------------

  NO   OCC          E(Eh)            E(eV)
   0   2.0000     -19.329229      -525.9751
   1   2.0000     -19.323872      -525.8293
   2   2.0000     -19.318838      -525.6923
   3   2.0000     -19.316995      -525.6422
   4   2.0000     -14.585269      -396.8853
   5   2.0000     -14.573908      -396.5762
   6   2.0000     -14.570152      -396.4740
   7   2.0000     -14.560713      -396.2172
   8   2.0000     -10.515235      -286.1341
   9   2.0000     -10.504922      -285.8535
  10   2.0000     -10.479405      -285.1591
  11   2.0000     -10.471962      -284.9566
  12   2.0000     -10.432872      -283.8929
  13   2.0000     -10.427330      -283.7421
  14   2.0000     -10.381399      -282.4922
  15   2.0000     -10.376689      -282.3641
  16   2.0000     -10.356987      -281.8280
  17   2.0000     -10.354031      -281.7475
  18   2.0000      -1.228033       -33.4165
  19   2.0000      -1.218120       -33.1467
  20   2.0000      -1.194825       -32.5128
  21   2.0000      -1.186363       -32.2826
  22   2.0000      -1.123549       -30.5733
  23   2.0000      -1.114806       -30.3354
  24   2.0000      -1.070736       -29.1362
  25   2.0000      -1.061698       -28.8903
  26   2.0000      -0.957735       -26.0613
  27   2.0000      -0.952303       -25.9135
  28   2.0000      -0.848288       -23.0831
  29   2.0000      -0.844497       -22.9799
  30   2.0000      -0.810668       -22.0594
  31   2.0000      -0.804764       -21.8987
  32   2.0000      -0.794822       -21.6282
  33   2.0000      -0.785384       -21.3714
  34   2.0000      -0.696197       -18.9445
  35   2.0000      -0.692778       -18.8515
  36   2.0000      -0.688820       -18.7438
  37   2.0000      -0.684737       -18.6326
  38   2.0000      -0.644032       -17.5250
  39   2.0000      -0.633539       -17.2395
  40   2.0000      -0.630314       -17.1517
  41   2.0000      -0.599159       -16.3039
  42   2.0000      -0.598501       -16.2861
  43   2.0000      -0.589830       -16.0501
  44   2.0000      -0.568754       -15.4766
  45   2.0000      -0.560064       -15.2401
  46   2.0000      -0.557370       -15.1668
  47   2.0000      -0.551784       -15.0148
  48   2.0000      -0.545921       -14.8553
  49   2.0000      -0.541422       -14.7328
  50   2.0000      -0.520610       -14.1665
  51   2.0000      -0.517523       -14.0825
  52   2.0000      -0.515445       -14.0260
  53   2.0000      -0.511995       -13.9321
  54   2.0000      -0.500722       -13.6253
  55   2.0000      -0.500420       -13.6171
  56   2.0000      -0.479411       -13.0454
  57   2.0000      -0.472197       -12.8491
  58   2.0000      -0.420964       -11.4550
  59   2.0000      -0.411824       -11.2063
  60   2.0000      -0.404918       -11.0184
  61   2.0000      -0.393430       -10.7058
  62   2.0000      -0.387074       -10.5328
  63   2.0000      -0.380563       -10.3557
  64   2.0000      -0.350256        -9.5309
  65   2.0000      -0.340213        -9.2577
  66   0.0000       0.010407         0.2832
  67   0.0000       0.018193         0.4951
  68   0.0000       0.025423         0.6918
  69   0.0000       0.034786         0.9466
  70   0.0000       0.039140         1.0651

MULLIKEN ATOMIC CHARGES
-----------------------
   0 O :   -0.667264
   1 O :   -0.652383
   2 O :   -0.645881
   3 O :   -0.663535
   4 N :   -0.056679
   5 N :   -0.050447
   6 N :    0.019063
   7 N :    0.006290
   8 C :    0.693767
   9 C :    0.485850
  10 C :    0.061523
  11 C :    0.074056
  12 C :   -1.353346
  13 C :   -1.403710
  14 C :    0.465894
  15 C :    0.645633
  16 C :    0.353776
  17 C :    0.453151
  18 H :    0.141205
  19 H :    0.138386
  20 H :    0.199422
  21 H :    0.336251
  22 H :    0.323366
  23 H :    0.354574
  24 H :    0.327045
  25 H :    0.221686
  26 H :    0.072052
  27 H :    0.024061
  28 H :    0.032476
  29 H :    0.063718
Sum of atomic charges:    0.0000000

LOEWDIN ATOMIC CHARGES
----------------------
   0 O :    0.094733
   1 O :    0.102524
   2 O :    0.081209
   3 O :    0.074788
   4 N :    0.276701
   5 N :    0.277489
   6 N :    0.341331
   7 N :    0.341842
   8 C :   -0.135338
   9 C :   -0.134906
  10 C :    0.053810
  11 C :    0.060988
  12 C :    0.177188
  13 C :    0.179177
  14 C :   -0.400741
  15 C :   -0.389225
  16 C :   -0.490019
  17 C :   -0.482374
  18 H :    0.038552
  19 H :    0.035224
  20 H :   -0.012999
  21 H :   -0.007469
  22 H :    0.001011
  23 H :    0.001741
  24 H :   -0.005952
  25 H :   -0.010498
  26 H :   -0.024016
  27 H :   -0.023037
  28 H :   -0.003579
  29 H :   -0.018156

  Mayer bond orders larger than 0.100000
B(  0-O , 14-C ) :   1.4685 B(  1-O , 15-C ) :   1.4373 B(  2-O , 16-C ) :   1.5754
B(  3-O , 17-C ) :   1.5490 B(  4-N , 10-C ) :   0.9007 B(  4-N , 16-C ) :   0.9808
B(  4-N , 26-H ) :   1.1120 B(  5-N , 11-C ) :   0.9711 B(  5-N , 17-C ) :   1.0475
B(  5-N , 27-H ) :   1.1351 B(  6-N , 14-C ) :   0.9783 B(  6-N , 16-C ) :   0.9380
B(  6-N , 28-H ) :   1.0975 B(  7-N , 15-C ) :   0.9695 B(  7-N , 17-C ) :   0.9652
B(  7-N , 29-H ) :   1.1037 B(  8-C , 10-C ) :   1.1938 B(  8-C , 12-C ) :   0.3819
B(  8-C , 14-C ) :   0.7817 B(  9-C , 11-C ) :   1.2486 B(  9-C , 13-C ) :   0.3592
B(  9-C , 15-C ) :   0.8576 B(  9-C , 25-H ) :  -0.1194 B( 10-C , 12-C ) :  -0.1063
B( 10-C , 14-C ) :  -0.1243 B( 10-C , 18-H ) :   1.1030 B( 11-C , 13-C ) :  -0.1442
B( 11-C , 19-H ) :   1.0961 B( 12-C , 20-H ) :   1.0502 B( 12-C , 21-H ) :   0.9783
B( 12-C , 22-H ) :   0.9347 B( 13-C , 23-H ) :   0.9178 B( 13-C , 24-H ) :   1.0093
B( 13-C , 25-H ) :   1.0226

Dispersion correction           -0.056708049
FINAL SINGLE POINT ENERGY      -908.932838358981

DIPOLE MOMENT
-------------

Method             : SCF
Type of density    : Electron Density
Multiplicity       :   1
Irrep              :   0
Energy             :  -908.8761303103456157 Eh
Relativity type    :
Basis              : AO
                                X                 Y                 Z
Electronic contribution:     -2.716334123     -10.364669881      -6.005205468
Nuclear contribution   :      1.844777470      11.412073585       8.485929894
                        -----------------------------------------
Total Dipole Moment    :     -0.871556654       1.047403703       2.480724426
                        -----------------------------------------
Magnitude (a.u.)       :      2.830310795
Magnitude (Debye)      :      7.194078318

Rotational constants in cm-1:             0.017711             0.015033             0.012004
Rotational constants in MHz :           530.962211           450.674135           359.862734

                             ****ORCA TERMINATED NORMALLY****
TOTAL RUN TIME: 0 days 1 hours 23 minutes 38 seconds 18 msec
