                         Program Version 6.0.0  -   RELEASE  -
|  1> ! opt def2-TZVPPD wB97M-D3BJ
|  2> %pal nprocs 24 end%geom Constraints
|  3> {B 9 8 2.8000000000000003 C}
|  4> {A 8 9 11 98.0 C}
|  5>  end
|  6>  end
|  7> *xyz 0 1
|  8> O   2.98579685529314 0.88758230159078 -0.86184571092411
|  9> O   -0.03983205397054 0.68929041702508 -2.10362336723772
| 10> O   0.93431434349854 -3.13274393337945 -0.68767288184107
| 11> O   -3.75829998830163 -0.84727300865116 -0.0472717177755
| 12> N   0.21184538946282 -1.54604804365365 0.7617588924445
| 13> N   -2.13631993928911 0.03188773433438 1.27350571071531
| 14> N   2.02598672506387 -1.14318467211666 -0.64531219127023
| 15> N   -1.91814233924584 0.03137116037665 -1.04498946748291
| 16> C   1.18097737274226 0.71693507080484 0.70173889017321
| 17> C   -0.20686880480777 1.27024627933494 0.21345042231937
| 18> C   0.41441080275909 -0.34173258966541 1.52336266615173
| 19> C   -0.82922175114212 0.58960593673968 1.44434972027296
| 20> C   1.92822011286806 1.69488653817281 1.5963734975385
| 21> C   -0.37809776891576 2.77134929626422 0.04819649358288
| 22> C   2.1403947470937 0.1972384729179 -0.35038567829864
| 23> C   -0.67361678962426 0.6214190571346 -1.0793014500539
| 24> C   1.04142578622994 -2.02697492875068 -0.21027082435993
| 25> C   -2.68467002550422 -0.30396816036989 0.07167054343891
| 26> H   0.80817443950001 -0.54572267081061 2.51895215321335
| 27> H   -0.83785272399001 1.27240685039143 2.28901317073582
| 28> H   2.31167340578204 2.52284411740894 1.00913016264629
| 29> H   1.28982602448342 2.08257620823614 2.38710022492991
| 30> H   2.77390820759972 1.19140411795486 2.06045858523949
| 31> H   -1.41857211141493 3.00964947214868 -0.16882755561625
| 32> H   -0.09065531563179 3.29799318042223 0.95389844358819
| 33> H   0.23426221611057 3.12492645074476 -0.77764887675592
| 34> H   -0.46772570547622 -2.21560145172536 1.0787081584806
| 35> H   -2.71769301149571 -0.17090724573546 2.06627440900372
| 36> H   2.60065167263658 -1.49057255715425 -1.3966820077142
| 37> H   -2.27169977231386 -0.32388339999036 -1.91951041514436
| 38> *
| 39>
| 40>                          ****END OF INPUT****
 Total Charge           Charge          ....    0
 Multiplicity           Mult            ....    1
 Number of Electrons    NEL             ....  132
Dispersion correction           -0.054663717
FINAL SINGLE POINT ENERGY      -908.621094888026
Dispersion correction             ... done (  0.1 sec)
Dispersion correction           -0.055163113
FINAL SINGLE POINT ENERGY      -908.653400062498
Dispersion correction             ... done (  0.0 sec)
Dispersion correction           -0.055878716
FINAL SINGLE POINT ENERGY      -908.675299479213
Dispersion correction             ... done (  0.1 sec)
FINAL SINGLE POINT ENERGY      -908.709801922379
FINAL SINGLE POINT ENERGY      -908.781355665766
FINAL SINGLE POINT ENERGY      -908.821136641444
FINAL SINGLE POINT ENERGY      -908.840172391473
FINAL SINGLE POINT ENERGY      -908.863913717462
FINAL SINGLE POINT ENERGY      -908.887855409198
FINAL SINGLE POINT ENERGY      -908.900701938784
FINAL SINGLE POINT ENERGY      -908.923513216138
FINAL SINGLE POINT ENERGY      -908.923636547701
FINAL SINGLE POINT ENERGY      -908.923723899948
FINAL SINGLE POINT ENERGY      -908.923797735412
FINAL SINGLE POINT ENERGY      -908.923843992362
FINAL SINGLE POINT ENERGY      -908.923871044796
FINAL SINGLE POINT ENERGY      -908.923881840744
Dispersion correction             ... done (  0.1 sec)
Dispersion correction           -0.060320126
FINAL SINGLE POINT ENERGY      -908.923885492451
Dispersion correction             ... done (  0.1 sec)
Dispersion correction           -0.060304292
FINAL SINGLE POINT ENERGY      -908.923887144717
Dispersion correction             ... done (  0.0 sec)
                    ***********************HURRAY********************

CARTESIAN COORDINATES (ANGSTROEM)
---------------------------------
  O      2.914180    1.237119   -0.484251
  O     -0.511978    0.449753   -1.917261
  O      1.361426   -2.850293   -1.725439
  O     -3.136319   -1.379315    1.293553
  N      0.680111   -1.974669    0.263111
  N     -2.273803    0.701631    1.641850
  N      2.153010   -0.811626   -1.066563
  N     -1.923842   -0.373600   -0.357134
  C      1.352116    0.199733    0.972158
  C     -0.812971    1.725343    0.063911
  C      0.694321   -0.950079    1.176913
  C     -1.506116    1.762811    1.205813
  C      1.515972    1.244018    2.030793
  C     -0.019254    2.881604   -0.456984
  C      2.195341    0.293836   -0.225999
  C     -1.031846    0.588571   -0.831857
  C      1.392350   -1.950350   -0.919993
  C     -2.499213   -0.429658    0.891748
  H      0.119686   -1.130712    2.073399
  H     -1.459147    2.603475    1.880621
  H      1.375439    2.243198    1.631259
  H      0.808911    1.081406    2.841336
  H      2.524874    1.206689    2.439221
  H     -0.435603    3.221954   -1.403269
  H     -0.040224    3.707692    0.250566
  H      1.015483    2.608144   -0.643747
  H      0.129675   -2.799437    0.421845
  H     -2.734142    0.726142    2.533536
  H      2.670439   -0.739507   -1.928103
  H     -2.066274   -1.178875   -0.946433

 Multiplicity           Mult            ....    1
 Number of Electrons    NEL             ....  132
 Basis Dimension        Dim             ....  882

ORBITAL ENERGIES
----------------

  NO   OCC          E(Eh)            E(eV)
   0   2.0000     -19.329508      -525.9827
   1   2.0000     -19.326936      -525.9127
   2   2.0000     -19.318660      -525.6875
   3   2.0000     -19.316870      -525.6388
   4   2.0000     -14.586603      -396.9216
   5   2.0000     -14.577109      -396.6633
   6   2.0000     -14.572371      -396.5344
   7   2.0000     -14.561171      -396.2296
   8   2.0000     -10.516035      -286.1559
   9   2.0000     -10.504337      -285.8375
  10   2.0000     -10.481243      -285.2091
  11   2.0000     -10.474842      -285.0350
  12   2.0000     -10.429246      -283.7942
  13   2.0000     -10.429064      -283.7893
  14   2.0000     -10.380483      -282.4673
  15   2.0000     -10.378923      -282.4249
  16   2.0000     -10.359858      -281.9061
  17   2.0000     -10.350751      -281.6583
  18   2.0000      -1.229202       -33.4483
  19   2.0000      -1.217884       -33.1403
  20   2.0000      -1.197347       -32.5815
  21   2.0000      -1.187989       -32.3268
  22   2.0000      -1.124793       -30.6072
  23   2.0000      -1.116386       -30.3784
  24   2.0000      -1.072666       -29.1887
  25   2.0000      -1.062557       -28.9136
  26   2.0000      -0.964035       -26.2327
  27   2.0000      -0.950508       -25.8646
  28   2.0000      -0.848802       -23.0971
  29   2.0000      -0.846947       -23.0466
  30   2.0000      -0.812711       -22.1150
  31   2.0000      -0.807218       -21.9655
  32   2.0000      -0.796395       -21.6710
  33   2.0000      -0.787816       -21.4376
  34   2.0000      -0.696598       -18.9554
  35   2.0000      -0.695663       -18.9300
  36   2.0000      -0.691651       -18.8208
  37   2.0000      -0.687099       -18.6969
  38   2.0000      -0.643508       -17.5107
  39   2.0000      -0.638544       -17.3757
  40   2.0000      -0.633863       -17.2483
  41   2.0000      -0.602098       -16.3839
  42   2.0000      -0.599110       -16.3026
  43   2.0000      -0.591558       -16.0971
  44   2.0000      -0.569556       -15.4984
  45   2.0000      -0.566361       -15.4115
  46   2.0000      -0.558612       -15.2006
  47   2.0000      -0.553008       -15.0481
  48   2.0000      -0.549506       -14.9528
  49   2.0000      -0.536394       -14.5960
  50   2.0000      -0.522993       -14.2314
  51   2.0000      -0.518674       -14.1138
  52   2.0000      -0.516703       -14.0602
  53   2.0000      -0.511040       -13.9061
  54   2.0000      -0.504837       -13.7373
  55   2.0000      -0.497758       -13.5447
  56   2.0000      -0.478063       -13.0087
  57   2.0000      -0.471978       -12.8432
  58   2.0000      -0.421866       -11.4795
  59   2.0000      -0.410254       -11.1636
  60   2.0000      -0.406558       -11.0630
  61   2.0000      -0.391961       -10.6658
  62   2.0000      -0.390032       -10.6133
  63   2.0000      -0.382806       -10.4167
  64   2.0000      -0.359381        -9.7793
  65   2.0000      -0.330757        -9.0004
  66   0.0000       0.010054         0.2736
  67   0.0000       0.015923         0.4333
  68   0.0000       0.023723         0.6455
  69   0.0000       0.031408         0.8547
  70   0.0000       0.039903         1.0858

MULLIKEN ATOMIC CHARGES
-----------------------
   0 O :   -0.684068
   1 O :   -0.656644
   2 O :   -0.656078
   3 O :   -0.668284
   4 N :   -0.051429
   5 N :   -0.000633
   6 N :    0.007059
   7 N :   -0.024750
   8 C :    0.855724
   9 C :    0.375766
  10 C :   -0.147929
  11 C :    0.252806
  12 C :   -1.569736
  13 C :   -1.501632
  14 C :    0.417376
  15 C :    0.575795
  16 C :    0.501253
  17 C :    0.474821
  18 H :    0.278726
  19 H :    0.201015
  20 H :    0.242099
  21 H :    0.321049
  22 H :    0.412744
  23 H :    0.380720
  24 H :    0.334704
  25 H :    0.214867
  26 H :    0.025266
  27 H :    0.020688
  28 H :    0.026730
  29 H :    0.041974
Sum of atomic charges:    0.0000000

LOEWDIN ATOMIC CHARGES
----------------------
   0 O :    0.085752
   1 O :    0.108881
   2 O :    0.091349
   3 O :    0.076707
   4 N :    0.286955
   5 N :    0.284397
   6 N :    0.344584
   7 N :    0.335240
   8 C :   -0.147445
   9 C :   -0.160131
  10 C :    0.043249
  11 C :    0.041963
  12 C :    0.179653
  13 C :    0.186841
  14 C :   -0.394987
  15 C :   -0.399585
  16 C :   -0.472961
  17 C :   -0.492110
  18 H :    0.040912
  19 H :    0.039421
  20 H :   -0.018777
  21 H :   -0.004277
  22 H :    0.007591
  23 H :    0.007221
  24 H :   -0.001091
  25 H :   -0.025310
  26 H :   -0.016570
  27 H :   -0.020496
  28 H :   -0.002096
  29 H :   -0.004881

  Mayer bond orders larger than 0.100000
B(  0-O , 14-C ) :   1.4123 B(  1-O , 15-C ) :   1.4175 B(  2-O , 16-C ) :   1.5624
B(  3-O , 17-C ) :   1.5540 B(  4-N , 10-C ) :   0.9101 B(  4-N , 16-C ) :   1.0239
B(  4-N , 26-H ) :   1.1526 B(  5-N , 11-C ) :   0.9789 B(  5-N , 17-C ) :   1.0383
B(  5-N , 27-H ) :   1.1378 B(  6-N , 14-C ) :   1.0777 B(  6-N , 16-C ) :   0.9769
B(  6-N , 28-H ) :   1.0973 B(  7-N , 15-C ) :   1.0325 B(  7-N , 17-C ) :   0.9565
B(  7-N , 29-H ) :   1.0952 B(  8-C , 10-C ) :   0.9340 B(  8-C , 12-C ) :   0.2919
B(  8-C , 14-C ) :   0.6316 B(  8-C , 15-C ) :  -0.1425 B(  8-C , 18-H ) :  -0.1319
B(  8-C , 20-H ) :  -0.1270 B(  9-C , 11-C ) :   0.9385 B(  9-C , 13-C ) :   0.4925
B(  9-C , 15-C ) :   0.7241 B(  9-C , 24-H ) :  -0.1178 B( 10-C , 12-C ) :  -0.1619
B( 10-C , 18-H ) :   1.1203 B( 11-C , 13-C ) :  -0.2916 B( 11-C , 19-H ) :   1.0789
B( 12-C , 20-H ) :   1.0608 B( 12-C , 21-H ) :   1.0513 B( 12-C , 22-H ) :   0.7992
B( 13-C , 23-H ) :   0.8467 B( 13-C , 24-H ) :   1.0720 B( 13-C , 25-H ) :   0.9754

Dispersion correction           -0.060297274
FINAL SINGLE POINT ENERGY      -908.923887754620

DIPOLE MOMENT
-------------

Method             : SCF
Type of density    : Electron Density
Multiplicity       :   1
Irrep              :   0
Energy             :  -908.8635904806448025 Eh
Relativity type    :
Basis              : AO
                                X                 Y                 Z
Electronic contribution:     -2.218538577      -9.726096857      -5.572361454
Nuclear contribution   :      1.422849742      10.741015443       7.756119932
                        -----------------------------------------
Total Dipole Moment    :     -0.795688834       1.014918586       2.183758477
                        -----------------------------------------
Magnitude (a.u.)       :      2.536135159
Magnitude (Debye)      :      6.446343275

Rotational constants in cm-1:             0.019834             0.014461             0.011444
Rotational constants in MHz :           594.618940           433.543567           343.070920

                             ****ORCA TERMINATED NORMALLY****
TOTAL RUN TIME: 0 days 2 hours 39 minutes 30 seconds 825 msec
