                         Program Version 6.0.0  -   RELEASE  -
|  1> ! Engrad def2-TZVPPD wB97M-D3BJ
|  2> %pal nprocs 8 end%pal nprocs 64 end
|  3> %tddft
|  4>  Iroot 1 Nroots 3
|  5> sf true
|  6> end
|  7> *xyz 0 3
|  8> O   3.5559827 -0.25346192 -0.73361739
|  9> O   -1.41677162 0.96623222 -2.62933128
| 10> O   -0.16098787 -3.00542019 -0.53545253
| 11> O   -3.53259973 -0.64719287 1.00340972
| 12> N   -0.01144468 -1.26476919 0.92627811
| 13> N   -1.82774889 0.82418546 1.29289368
| 14> N   1.70364274 -1.65606813 -0.5748768
| 15> N   -2.23793309 -0.05192015 -0.81671775
| 16> C   1.9050782 0.2209765 0.91813945
| 17> C   -0.39926787 1.49326244 -0.56142063
| 18> C   0.54236006 0.01898971 1.3850668
| 19> C   -0.43685981 1.27912348 0.92557619
| 20> C   2.81593257 1.13067849 1.61040852
| 21> C   0.5144835 2.37905004 -1.25935847
| 22> C   2.50158107 -0.56900038 -0.18181274
| 23> C   -1.30956561 0.77936902 -1.44687619
| 24> C   0.45084629 -2.03013003 -0.07535449
| 25> C   -2.57472174 -0.05373964 0.5485238
| 26> H   0.42433348 0.04006471 2.45778945
| 27> H   -0.08998427 2.14654742 1.48696947
| 28> H   3.62114237 1.41853913 1.0086122
| 29> H   2.21881144 2.02862551 1.90802507
| 30> H   3.1377902 0.74842594 2.63446322
| 31> H   -0.05388838 2.94747148 -1.97378389
| 32> H   0.89253224 3.01188686 -0.50920363
| 33> H   1.28636185 1.89430348 -1.79262022
| 34> H   -0.751116 -1.73272008 1.47557648
| 35> H   -2.01153904 0.79466961 2.28484782
| 36> H   1.91963046 -2.20510459 -1.41924592
| 37> H   -2.64862603 -0.78422204 -1.3400966
| 38> *
| 39>
| 40>                          ****END OF INPUT****

CARTESIAN COORDINATES (ANGSTROEM)
---------------------------------
  O      3.555983   -0.253462   -0.733617
  O     -1.416772    0.966232   -2.629331
  O     -0.160988   -3.005420   -0.535453
  O     -3.532600   -0.647193    1.003410
  N     -0.011445   -1.264769    0.926278
  N     -1.827749    0.824185    1.292894
  N      1.703643   -1.656068   -0.574877
  N     -2.237933   -0.051920   -0.816718
  C      1.905078    0.220976    0.918139
  C     -0.399268    1.493262   -0.561421
  C      0.542360    0.018990    1.385067
  C     -0.436860    1.279123    0.925576
  C      2.815933    1.130678    1.610409
  C      0.514483    2.379050   -1.259358
  C      2.501581   -0.569000   -0.181813
  C     -1.309566    0.779369   -1.446876
  C      0.450846   -2.030130   -0.075354
  C     -2.574722   -0.053740    0.548524
  H      0.424333    0.040065    2.457789
  H     -0.089984    2.146547    1.486969
  H      3.621142    1.418539    1.008612
  H      2.218811    2.028626    1.908025
  H      3.137790    0.748426    2.634463
  H     -0.053888    2.947471   -1.973784
  H      0.892532    3.011887   -0.509204
  H      1.286362    1.894303   -1.792620
  H     -0.751116   -1.732720    1.475576
  H     -2.011539    0.794670    2.284848
  H      1.919630   -2.205105   -1.419246
  H     -2.648626   -0.784222   -1.340097

 Total Charge           Charge          ....    0
 Multiplicity           Mult            ....    3
 Number of Electrons    NEL             ....  132
 Basis Dimension        Dim             ....  882

ORBITAL ENERGIES
----------------
                 SPIN UP ORBITALS
  NO   OCC          E(Eh)            E(eV)
   0   1.0000     -19.343227      -526.3560
   1   1.0000     -19.331775      -526.0444
   2   1.0000     -19.321210      -525.7568
   3   1.0000     -19.320779      -525.7451
   4   1.0000     -14.570807      -396.4918
   5   1.0000     -14.569156      -396.4469
   6   1.0000     -14.563722      -396.2990
   7   1.0000     -14.550590      -395.9417
   8   1.0000     -10.510234      -285.9980
   9   1.0000     -10.506088      -285.8852
  10   1.0000     -10.495248      -285.5902
  11   1.0000     -10.475660      -285.0572
  12   1.0000     -10.460657      -284.6489
  13   1.0000     -10.456654      -284.5400
  14   1.0000     -10.421822      -283.5922
  15   1.0000     -10.415978      -283.4332
  16   1.0000     -10.381668      -282.4995
  17   1.0000     -10.358349      -281.8650
  18   1.0000      -1.217862       -33.1397
  19   1.0000      -1.212205       -32.9858
  20   1.0000      -1.199274       -32.6339
  21   1.0000      -1.191668       -32.4269
  22   1.0000      -1.113212       -30.2921
  23   1.0000      -1.092663       -29.7329
  24   1.0000      -1.062107       -28.9014
  25   1.0000      -1.049555       -28.5599
  26   1.0000      -0.989467       -26.9248
  27   1.0000      -0.965118       -26.2622
  28   1.0000      -0.893685       -24.3184
  29   1.0000      -0.847776       -23.0692
  30   1.0000      -0.826616       -22.4934
  31   1.0000      -0.803702       -21.8698
  32   1.0000      -0.784448       -21.3459
  33   1.0000      -0.777377       -21.1535
  34   1.0000      -0.700450       -19.0602
  35   1.0000      -0.694594       -18.9009
  36   1.0000      -0.690824       -18.7983
  37   1.0000      -0.675580       -18.3835
  38   1.0000      -0.652738       -17.7619
  39   1.0000      -0.643034       -17.4978
  40   1.0000      -0.623647       -16.9703
  41   1.0000      -0.604202       -16.4412
  42   1.0000      -0.595190       -16.1960
  43   1.0000      -0.584297       -15.8995
  44   1.0000      -0.576426       -15.6854
  45   1.0000      -0.573621       -15.6090
  46   1.0000      -0.569722       -15.5029
  47   1.0000      -0.566909       -15.4264
  48   1.0000      -0.563612       -15.3367
  49   1.0000      -0.559692       -15.2300
  50   1.0000      -0.551720       -15.0131
  51   1.0000      -0.540419       -14.7055
  52   1.0000      -0.527276       -14.3479
  53   1.0000      -0.521756       -14.1977
  54   1.0000      -0.517247       -14.0750
  55   1.0000      -0.514304       -13.9949
  56   1.0000      -0.500964       -13.6319
  57   1.0000      -0.424526       -11.5520
  58   1.0000      -0.417507       -11.3610
  59   1.0000      -0.411626       -11.2009
  60   1.0000      -0.405805       -11.0425
  61   1.0000      -0.397908       -10.8276
  62   1.0000      -0.396275       -10.7832
  63   1.0000      -0.392161       -10.6712
  64   1.0000      -0.384844       -10.4722
  65   1.0000      -0.346676        -9.4335
  66   1.0000      -0.323472        -8.8021
  67   0.0000       0.004443         0.1209
  68   0.0000       0.026595         0.7237
  69   0.0000       0.029851         0.8123
  70   0.0000       0.035482         0.9655
  71   0.0000       0.052917         1.4399

                 SPIN DOWN ORBITALS
  NO   OCC          E(Eh)            E(eV)
   0   1.0000     -19.339299      -526.2491
   1   1.0000     -19.327961      -525.9405
   2   1.0000     -19.321022      -525.7517
   3   1.0000     -19.320651      -525.7416
   4   1.0000     -14.570141      -396.4737
   5   1.0000     -14.569126      -396.4461
   6   1.0000     -14.563277      -396.2869
   7   1.0000     -14.549969      -395.9248
   8   1.0000     -10.510274      -285.9991
   9   1.0000     -10.506146      -285.8868
  10   1.0000     -10.496231      -285.6170
  11   1.0000     -10.476608      -285.0830
  12   1.0000     -10.460002      -284.6311
  13   1.0000     -10.456068      -284.5241
  14   1.0000     -10.410650      -283.2882
  15   1.0000     -10.404809      -283.1293
  16   1.0000     -10.382329      -282.5175
  17   1.0000     -10.358793      -281.8771
  18   1.0000      -1.215119       -33.0651
  19   1.0000      -1.209699       -32.9176
  20   1.0000      -1.196010       -32.5451
  21   1.0000      -1.187650       -32.3176
  22   1.0000      -1.110734       -30.2246
  23   1.0000      -1.090561       -29.6757
  24   1.0000      -1.060349       -28.8536
  25   1.0000      -1.047986       -28.5171
  26   1.0000      -0.976004       -26.5584
  27   1.0000      -0.948541       -25.8111
  28   1.0000      -0.888265       -24.1709
  29   1.0000      -0.842674       -22.9303
  30   1.0000      -0.817717       -22.2512
  31   1.0000      -0.797862       -21.7109
  32   1.0000      -0.782348       -21.2888
  33   1.0000      -0.775897       -21.1132
  34   1.0000      -0.696098       -18.9418
  35   1.0000      -0.688851       -18.7446
  36   1.0000      -0.684695       -18.6315
  37   1.0000      -0.668542       -18.1920
  38   1.0000      -0.644614       -17.5408
  39   1.0000      -0.633746       -17.2451
  40   1.0000      -0.619347       -16.8533
  41   1.0000      -0.598941       -16.2980
  42   1.0000      -0.590071       -16.0566
  43   1.0000      -0.575197       -15.6519
  44   1.0000      -0.569916       -15.5082
  45   1.0000      -0.566315       -15.4102
  46   1.0000      -0.565609       -15.3910
  47   1.0000      -0.559121       -15.2145
  48   1.0000      -0.555949       -15.1282
  49   1.0000      -0.551485       -15.0067
  50   1.0000      -0.542172       -14.7532
  51   1.0000      -0.533116       -14.5068
  52   1.0000      -0.520871       -14.1736
  53   1.0000      -0.513995       -13.9865
  54   1.0000      -0.511579       -13.9208
  55   1.0000      -0.503926       -13.7125
  56   1.0000      -0.495325       -13.4785
  57   1.0000      -0.419514       -11.4156
  58   1.0000      -0.414305       -11.2738
  59   1.0000      -0.404349       -11.0029
  60   1.0000      -0.395306       -10.7568
  61   1.0000      -0.392592       -10.6830
  62   1.0000      -0.387143       -10.5347
  63   1.0000      -0.386651       -10.5213
  64   1.0000      -0.375366       -10.2142
  65   0.0000      -0.065788        -1.7902
  66   0.0000      -0.053246        -1.4489
  67   0.0000       0.004127         0.1123
  68   0.0000       0.026379         0.7178
  69   0.0000       0.029993         0.8162

----------------------------------------------------------------------------------------------------
          SPIN FLIP ABSORPTION SPECTRUM VIA TRANSITION ELECTRIC DIPOLE MOMENTS
----------------------------------------------------------------------------------------------------
     Transition      Energy     Energy  Wavelength fosc(D2)      D2        DX        DY        DZ
                      (eV)      (cm-1)    (nm)                 (au**2)    (au)      (au)      (au)
----------------------------------------------------------------------------------------------------
  1-3A  ->  2-3A    0.057232     461.6  21663.4   0.000018340   0.01308   0.11073  -0.02814   0.00515
  1-3A  ->  3-3A    2.272089   18325.6   545.7   0.002331756   0.04189  -0.00634   0.10315  -0.17666

Dispersion correction             ... done (  0.1 sec)

MULLIKEN ATOMIC CHARGES AND SPIN DENSITIES
------------------------------------------
   0 O :   -0.667258    0.007852
   1 O :   -0.646851   -0.008570
   2 O :   -0.694268   -0.000347
   3 O :   -0.642108   -0.000508
   4 N :   -0.208836   -0.000546
   5 N :   -0.323006   -0.003983
   6 N :   -0.045054   -0.002648
   7 N :    0.077633   -0.002610
   8 C :    0.360646    0.388255
   9 C :    0.570534    0.321546
  10 C :    0.154519   -0.230268
  11 C :    0.198571   -0.191201
  12 C :   -1.524807    0.004764
  13 C :   -1.640478   -0.009575
  14 C :    0.378726   -0.141640
  15 C :    0.261614   -0.177709
  16 C :    0.488866    0.011767
  17 C :    0.393658    0.011509
  18 H :    0.593926   -0.006943
  19 H :    0.582280   -0.008157
  20 H :    0.325484   -0.003935
  21 H :    0.308928    0.013254
  22 H :    0.332625    0.009221
  23 H :    0.433189    0.005820
  24 H :    0.381506   -0.002086
  25 H :    0.280161    0.011364
  26 H :    0.092473   -0.000350
  27 H :    0.095457    0.001806
  28 H :    0.070637    0.001720
  29 H :    0.011232    0.002195
Sum of atomic charges       :    0.0000000

LOEWDIN ATOMIC CHARGES AND SPIN DENSITIES
-----------------------------------------
   0 O :    0.067489    0.007085
   1 O :    0.108904   -0.006988
   2 O :    0.057711   -0.000328
   3 O :    0.080793   -0.000491
   4 N :    0.265207   -0.000801
   5 N :    0.266365   -0.000749
   6 N :    0.319363   -0.000344
   7 N :    0.336372   -0.003698
   8 C :   -0.058212    0.035000
   9 C :   -0.020061   -0.017134
  10 C :   -0.076390   -0.002739
  11 C :   -0.024576   -0.004307
  12 C :    0.180155    0.005145
  13 C :    0.210423   -0.003603
  14 C :   -0.373410    0.001344
  15 C :   -0.414365   -0.008002
  16 C :   -0.478056   -0.000506
  17 C :   -0.496359   -0.000499
  18 H :    0.049219   -0.000059
  19 H :    0.043021   -0.000605
  20 H :   -0.037373    0.000138
  21 H :    0.011547    0.001124
  22 H :    0.050164    0.002595
  23 H :    0.011716   -0.000683
  24 H :   -0.024970   -0.000008
  25 H :    0.002422   -0.000584
  26 H :    0.006510    0.000003
  27 H :   -0.037312    0.000000
  28 H :    0.008370   -0.000002
  29 H :   -0.034667   -0.000305

  Mayer bond orders larger than 0.100000
B(  0-O , 14-C ) :   1.3544 B(  1-O , 15-C ) :   1.2918 B(  2-O , 16-C ) :   1.5032
B(  3-O , 17-C ) :   1.5835 B(  4-N ,  8-C ) :   0.1778 B(  4-N ,  9-C ) :   0.1158
B(  4-N , 10-C ) :   0.6250 B(  4-N , 16-C ) :   1.0615 B(  4-N , 26-H ) :   1.0844
B(  5-N ,  9-C ) :   0.2693 B(  5-N , 11-C ) :   0.2015 B(  5-N , 17-C ) :   1.1047
B(  5-N , 19-H ) :  -0.1002 B(  5-N , 27-H ) :   1.0301 B(  6-N , 14-C ) :   1.0138
B(  6-N , 16-C ) :   0.9505 B(  6-N , 28-H ) :   1.0916 B(  7-N , 11-C ) :   0.1415
B(  7-N , 15-C ) :   0.9039 B(  7-N , 17-C ) :   0.9452 B(  7-N , 29-H ) :   1.1350
B(  8-C ,  9-C ) :   0.2029 B(  8-C , 10-C ) :   0.9051 B(  8-C , 11-C ) :   0.2444
B(  8-C , 12-C ) :   0.2693 B(  8-C , 14-C ) :   0.7035 B(  8-C , 18-H ) :  -0.1416
B(  8-C , 21-H ) :  -0.1578 B(  9-C , 11-C ) :   0.4129 B(  9-C , 13-C ) :   0.1653
B(  9-C , 15-C ) :   0.8294 B(  9-C , 19-H ) :  -0.1919 B(  9-C , 24-H ) :  -0.1673
B( 10-C , 11-C ) :   0.5149 B( 10-C , 18-H ) :   0.6572 B( 11-C , 13-C ) :  -0.1684
B( 11-C , 17-C ) :  -0.1295 B( 11-C , 19-H ) :   0.8019 B( 12-C , 20-H ) :   1.0386
B( 12-C , 21-H ) :   0.9812 B( 12-C , 22-H ) :   0.8491 B( 13-C , 15-C ) :  -0.1289
B( 13-C , 23-H ) :   0.8285 B( 13-C , 24-H ) :   1.0224 B( 13-C , 25-H ) :   0.9199

Dispersion correction           -0.058083288
FINAL SINGLE POINT ENERGY      -908.783001871701

DIPOLE MOMENT
-------------

Method             : TDA/CIS
Type of density    : Electron Density
Level              : Relaxed density
State              :   1
Multiplicity       :   3
Irrep              :   0
Energy             :     0.0000000000000000 Eh
Relativity type    :
Basis              : AO
                                X                 Y                 Z
Electronic contribution:     -6.359639150      -8.479993392      -3.796059745
Nuclear contribution   :      7.505494302      10.106097082       6.071729939
                        -----------------------------------------
Total Dipole Moment    :      1.145855152       1.626103690       2.275670194
                        -----------------------------------------
Magnitude (a.u.)       :      3.022560516
Magnitude (Debye)      :      7.682738275

Rotational constants in cm-1:             0.020514             0.012792             0.011692
Rotational constants in MHz :           615.008201           383.496909           350.521072

                             ****ORCA TERMINATED NORMALLY****
TOTAL RUN TIME: 0 days 0 hours 5 minutes 27 seconds 521 msec
