                         Program Version 6.0.0  -   RELEASE  -
|  1> ! Engrad def2-TZVPPD wB97M-D3BJ
|  2> %pal nprocs 8 end%pal nprocs 64 end
|  3> %tddft
|  4>  Iroot 2 Nroots 3
|  5> sf true
|  6> end
|  7> *xyz 0 3
|  8> O   2.66387694 -0.8029689 -2.19366703
|  9> O   -1.64703987 1.6089757 -1.84207727
| 10> O   -1.44986386 -2.47519443 -0.87683571
| 11> O   -2.93933182 0.39122026 2.4084958
| 12> N   -0.13903384 -1.52874171 0.68025466
| 13> N   -0.68684557 1.01931144 2.10388038
| 14> N   0.65805769 -1.67549641 -1.47604831
| 15> N   -2.21510898 0.69439344 0.26751696
| 16> C   2.1721938 -0.65580347 0.12083442
| 17> C   -0.02389939 1.50317281 -0.22163127
| 18> C   0.96982169 -0.61844051 1.00027397
| 19> C   0.40691108 0.85169936 1.10442352
| 20> C   3.44920238 -0.1883604 0.49094247
| 21> C   0.91501685 2.25601074 -0.97408955
| 22> C   1.90794572 -1.08789893 -1.26978772
| 23> C   -1.33505481 1.29321864 -0.64946367
| 24> C   -0.43702544 -1.94656733 -0.55909749
| 25> C   -1.99630411 0.63788447 1.65631452
| 26> H   1.16987759 -0.91962324 2.06922927
| 27> H   1.22321537 1.54941741 1.45622639
| 28> H   4.21025131 -0.2278795 -0.27496635
| 29> H   3.37373163 0.88956288 0.84385856
| 30> H   3.86452328 -0.71401476 1.3591941
| 31> H   1.49816416 1.50640559 -1.54842606
| 32> H   0.42017376 2.76277583 -1.79218698
| 33> H   1.56009147 2.93854249 -0.4972629
| 34> H   -0.7738986 -1.80857818 1.43430423
| 35> H   -0.55320146 0.57010832 3.02951637
| 36> H   0.34531704 -1.70525866 -2.42054798
| 37> H   -3.18121787 0.54952664 0.05611973
| 38> *
| 39>
| 40>                          ****END OF INPUT****

CARTESIAN COORDINATES (ANGSTROEM)
---------------------------------
  O      2.663877   -0.802969   -2.193667
  O     -1.647040    1.608976   -1.842077
  O     -1.449864   -2.475194   -0.876836
  O     -2.939332    0.391220    2.408496
  N     -0.139034   -1.528742    0.680255
  N     -0.686846    1.019311    2.103880
  N      0.658058   -1.675496   -1.476048
  N     -2.215109    0.694393    0.267517
  C      2.172194   -0.655803    0.120834
  C     -0.023899    1.503173   -0.221631
  C      0.969822   -0.618441    1.000274
  C      0.406911    0.851699    1.104424
  C      3.449202   -0.188360    0.490942
  C      0.915017    2.256011   -0.974090
  C      1.907946   -1.087899   -1.269788
  C     -1.335055    1.293219   -0.649464
  C     -0.437025   -1.946567   -0.559097
  C     -1.996304    0.637884    1.656315
  H      1.169878   -0.919623    2.069229
  H      1.223215    1.549417    1.456226
  H      4.210251   -0.227879   -0.274966
  H      3.373732    0.889563    0.843859
  H      3.864523   -0.714015    1.359194
  H      1.498164    1.506406   -1.548426
  H      0.420174    2.762776   -1.792187
  H      1.560091    2.938542   -0.497263
  H     -0.773899   -1.808578    1.434304
  H     -0.553201    0.570108    3.029516
  H      0.345317   -1.705259   -2.420548
  H     -3.181218    0.549527    0.056120

 Total Charge           Charge          ....    0
 Multiplicity           Mult            ....    3
 Number of Electrons    NEL             ....  132
 Basis Dimension        Dim             ....  882

ORBITAL ENERGIES
----------------
                 SPIN UP ORBITALS
  NO   OCC          E(Eh)            E(eV)
   0   1.0000     -19.337903      -526.2111
   1   1.0000     -19.335320      -526.1408
   2   1.0000     -19.333121      -526.0810
   3   1.0000     -19.328676      -525.9600
   4   1.0000     -14.572570      -396.5398
   5   1.0000     -14.567930      -396.4135
   6   1.0000     -14.566023      -396.3616
   7   1.0000     -14.560866      -396.2213
   8   1.0000     -10.516645      -286.1725
   9   1.0000     -10.508496      -285.9507
  10   1.0000     -10.488648      -285.4106
  11   1.0000     -10.479586      -285.1640
  12   1.0000     -10.457874      -284.5732
  13   1.0000     -10.449265      -284.3390
  14   1.0000     -10.421624      -283.5868
  15   1.0000     -10.415594      -283.4227
  16   1.0000     -10.380371      -282.4643
  17   1.0000     -10.360778      -281.9311
  18   1.0000      -1.227394       -33.3991
  19   1.0000      -1.209673       -32.9169
  20   1.0000      -1.198702       -32.6183
  21   1.0000      -1.174645       -31.9637
  22   1.0000      -1.118814       -30.4445
  23   1.0000      -1.092903       -29.7394
  24   1.0000      -1.060229       -28.8503
  25   1.0000      -1.050478       -28.5850
  26   1.0000      -0.991218       -26.9724
  27   1.0000      -0.967742       -26.3336
  28   1.0000      -0.893875       -24.3236
  29   1.0000      -0.846936       -23.0463
  30   1.0000      -0.830055       -22.5870
  31   1.0000      -0.801437       -21.8082
  32   1.0000      -0.781813       -21.2742
  33   1.0000      -0.771055       -20.9815
  34   1.0000      -0.699272       -19.0282
  35   1.0000      -0.695956       -18.9379
  36   1.0000      -0.690249       -18.7826
  37   1.0000      -0.669199       -18.2098
  38   1.0000      -0.657204       -17.8834
  39   1.0000      -0.632269       -17.2049
  40   1.0000      -0.607756       -16.5379
  41   1.0000      -0.605242       -16.4695
  42   1.0000      -0.597536       -16.2598
  43   1.0000      -0.585754       -15.9392
  44   1.0000      -0.577589       -15.7170
  45   1.0000      -0.574130       -15.6229
  46   1.0000      -0.572224       -15.5710
  47   1.0000      -0.568628       -15.4732
  48   1.0000      -0.561445       -15.2777
  49   1.0000      -0.556889       -15.1537
  50   1.0000      -0.555938       -15.1278
  51   1.0000      -0.544313       -14.8115
  52   1.0000      -0.539506       -14.6807
  53   1.0000      -0.522630       -14.2215
  54   1.0000      -0.507576       -13.8118
  55   1.0000      -0.506495       -13.7824
  56   1.0000      -0.480814       -13.0836
  57   1.0000      -0.430835       -11.7236
  58   1.0000      -0.419461       -11.4141
  59   1.0000      -0.414753       -11.2860
  60   1.0000      -0.410605       -11.1731
  61   1.0000      -0.402234       -10.9453
  62   1.0000      -0.398320       -10.8388
  63   1.0000      -0.394060       -10.7229
  64   1.0000      -0.389166       -10.5898
  65   1.0000      -0.346147        -9.4192
  66   1.0000      -0.326802        -8.8927
  67   0.0000       0.006445         0.1754
  68   0.0000       0.026868         0.7311
  69   0.0000       0.033267         0.9052
  70   0.0000       0.037259         1.0139
  71   0.0000       0.051655         1.4056

                 SPIN DOWN ORBITALS
  NO   OCC          E(Eh)            E(eV)
   0   1.0000     -19.334050      -526.1063
   1   1.0000     -19.332978      -526.0771
   2   1.0000     -19.328733      -525.9616
   3   1.0000     -19.328652      -525.9594
   4   1.0000     -14.572125      -396.5277
   5   1.0000     -14.567463      -396.4008
   6   1.0000     -14.565942      -396.3594
   7   1.0000     -14.560136      -396.2015
   8   1.0000     -10.516685      -286.1735
   9   1.0000     -10.508536      -285.9518
  10   1.0000     -10.489660      -285.4382
  11   1.0000     -10.480759      -285.1959
  12   1.0000     -10.457959      -284.5755
  13   1.0000     -10.448746      -284.3248
  14   1.0000     -10.410318      -283.2792
  15   1.0000     -10.405122      -283.1378
  16   1.0000     -10.381072      -282.4833
  17   1.0000     -10.361188      -281.9423
  18   1.0000      -1.226907       -33.3858
  19   1.0000      -1.208734       -32.8913
  20   1.0000      -1.193243       -32.4698
  21   1.0000      -1.165934       -31.7267
  22   1.0000      -1.116558       -30.3831
  23   1.0000      -1.090091       -29.6629
  24   1.0000      -1.057981       -28.7891
  25   1.0000      -1.048862       -28.5410
  26   1.0000      -0.977413       -26.5968
  27   1.0000      -0.951285       -25.8858
  28   1.0000      -0.889329       -24.1999
  29   1.0000      -0.840570       -22.8731
  30   1.0000      -0.821024       -22.3412
  31   1.0000      -0.796711       -21.6796
  32   1.0000      -0.780102       -21.2277
  33   1.0000      -0.769534       -20.9401
  34   1.0000      -0.693562       -18.8728
  35   1.0000      -0.689276       -18.7562
  36   1.0000      -0.685467       -18.6525
  37   1.0000      -0.662057       -18.0155
  38   1.0000      -0.646157       -17.5828
  39   1.0000      -0.629333       -17.1250
  40   1.0000      -0.605312       -16.4714
  41   1.0000      -0.599948       -16.3254
  42   1.0000      -0.588598       -16.0166
  43   1.0000      -0.579507       -15.7692
  44   1.0000      -0.570401       -15.5214
  45   1.0000      -0.569436       -15.4951
  46   1.0000      -0.563145       -15.3240
  47   1.0000      -0.559887       -15.2353
  48   1.0000      -0.554960       -15.1012
  49   1.0000      -0.551365       -15.0034
  50   1.0000      -0.546773       -14.8785
  51   1.0000      -0.537232       -14.6188
  52   1.0000      -0.529871       -14.4185
  53   1.0000      -0.514434       -13.9985
  54   1.0000      -0.503940       -13.7129
  55   1.0000      -0.492452       -13.4003
  56   1.0000      -0.475527       -12.9398
  57   1.0000      -0.426708       -11.6113
  58   1.0000      -0.416736       -11.3400
  59   1.0000      -0.408789       -11.1237
  60   1.0000      -0.398063       -10.8318
  61   1.0000      -0.393631       -10.7112
  62   1.0000      -0.387869       -10.5544
  63   1.0000      -0.387026       -10.5315
  64   1.0000      -0.377727       -10.2785
  65   0.0000      -0.065206        -1.7744
  66   0.0000      -0.053806        -1.4641
  67   0.0000       0.005812         0.1581
  68   0.0000       0.026555         0.7226
  69   0.0000       0.033177         0.9028

----------------------------------------------------------------------------------------------------
          SPIN FLIP ABSORPTION SPECTRUM VIA TRANSITION ELECTRIC DIPOLE MOMENTS
----------------------------------------------------------------------------------------------------
     Transition      Energy     Energy  Wavelength fosc(D2)      D2        DX        DY        DZ
                      (eV)      (cm-1)    (nm)                 (au**2)    (au)      (au)      (au)
----------------------------------------------------------------------------------------------------
  1-3A  ->  2-3A    0.042907     346.1  28896.0   0.000009279   0.00883   0.07782  -0.04708  -0.02355
  1-3A  ->  3-3A    1.878158   15148.4   660.1   0.000846166   0.01839   0.06661  -0.01895   0.11659

Dispersion correction             ... done (  0.1 sec)

MULLIKEN ATOMIC CHARGES AND SPIN DENSITIES
------------------------------------------
   0 O :   -0.662589   -0.027591
   1 O :   -0.707890    0.053251
   2 O :   -0.609929   -0.000503
   3 O :   -0.636864    0.000077
   4 N :   -0.153435   -0.004837
   5 N :   -0.436044    0.000644
   6 N :   -0.028465   -0.007930
   7 N :    0.124630    0.002798
   8 C :    0.583217    0.297972
   9 C :    0.200174    0.271491
  10 C :    0.111906   -0.230941
  11 C :    0.501716   -0.113947
  12 C :   -1.288136   -0.022651
  13 C :   -1.249174    0.019400
  14 C :    0.060291   -0.190789
  15 C :    0.152159   -0.109975
  16 C :    0.472727    0.014712
  17 C :    0.285534    0.005403
  18 H :    0.508434   -0.014730
  19 H :    0.677570    0.010971
  20 H :    0.296517   -0.005630
  21 H :    0.299482    0.018557
  22 H :    0.319734    0.007352
  23 H :    0.249227    0.020360
  24 H :    0.330795   -0.000560
  25 H :    0.285045    0.002530
  26 H :    0.060088    0.000114
  27 H :    0.199041    0.000519
  28 H :    0.018630    0.002458
  29 H :    0.035610    0.001477
Sum of atomic charges       :   -0.0000000

LOEWDIN ATOMIC CHARGES AND SPIN DENSITIES
-----------------------------------------
   0 O :    0.068527   -0.024062
   1 O :    0.049470    0.046687
   2 O :    0.124683   -0.000343
   3 O :    0.065329    0.000135
   4 N :    0.264365   -0.000792
   5 N :    0.262931    0.000074
   6 N :    0.342223   -0.007259
   7 N :    0.330316    0.001380
   8 C :   -0.056609   -0.088584
   9 C :   -0.048068    0.095189
  10 C :   -0.100765   -0.010019
  11 C :   -0.101270    0.001372
  12 C :    0.158042   -0.018008
  13 C :    0.201201    0.015491
  14 C :   -0.402290   -0.018741
  15 C :   -0.363811    0.011191
  16 C :   -0.493940   -0.000134
  17 C :   -0.438027   -0.000253
  18 H :    0.076939   -0.002685
  19 H :    0.060641    0.000817
  20 H :    0.003718    0.000185
  21 H :    0.040207   -0.005443
  22 H :    0.017585   -0.004447
  23 H :    0.026593    0.006507
  24 H :    0.005727    0.000329
  25 H :   -0.008459    0.002198
  26 H :   -0.003565   -0.000152
  27 H :   -0.021034   -0.000116
  28 H :   -0.038280   -0.000702
  29 H :   -0.022376    0.000185

  Mayer bond orders larger than 0.100000
B(  0-O ,  8-C ) :  -0.1393 B(  0-O , 14-C ) :   1.5111 B(  1-O , 15-C ) :   1.2019
B(  2-O , 16-C ) :   1.5485 B(  3-O , 17-C ) :   1.5989 B(  4-N , 10-C ) :   0.6408
B(  4-N , 16-C ) :   0.9839 B(  4-N , 26-H ) :   1.0977 B(  5-N ,  9-C ) :   0.4150
B(  5-N , 11-C ) :  -0.1758 B(  5-N , 17-C ) :   1.1255 B(  5-N , 19-H ) :  -0.1740
B(  5-N , 27-H ) :   0.9037 B(  6-N ,  8-C ) :  -0.1661 B(  6-N , 10-C ) :   0.1139
B(  6-N , 14-C ) :   0.9921 B(  6-N , 16-C ) :   0.8690 B(  6-N , 28-H ) :   1.1296
B(  7-N , 11-C ) :   0.1296 B(  7-N , 15-C ) :   1.0324 B(  7-N , 17-C ) :   1.0085
B(  7-N , 29-H ) :   1.0869 B(  8-C ,  9-C ) :   0.1173 B(  8-C , 10-C ) :   0.6246
B(  8-C , 11-C ) :   0.2587 B(  8-C , 12-C ) :   0.4472 B(  8-C , 14-C ) :   0.6314
B(  8-C , 20-H ) :  -0.1107 B(  9-C , 11-C ) :   0.2697 B(  9-C , 13-C ) :   0.5411
B(  9-C , 15-C ) :   0.8924 B(  9-C , 19-H ) :  -0.2677 B(  9-C , 24-H ) :  -0.1094
B( 10-C , 11-C ) :   0.6292 B( 10-C , 18-H ) :   0.7651 B( 11-C , 13-C ) :  -0.2271
B( 11-C , 15-C ) :  -0.1315 B( 11-C , 17-C ) :  -0.2359 B( 11-C , 18-H ) :  -0.1076
B( 11-C , 19-H ) :   0.7637 B( 12-C , 20-H ) :   1.0301 B( 12-C , 21-H ) :   0.8651
B( 12-C , 22-H ) :   0.9544 B( 13-C , 23-H ) :   0.8432 B( 13-C , 24-H ) :   0.9340
B( 13-C , 25-H ) :   1.0653

Dispersion correction           -0.059132285
FINAL SINGLE POINT ENERGY      -908.770502408780

DIPOLE MOMENT
-------------

Method             : TDA/CIS
Type of density    : Electron Density
Level              : Relaxed density
State              :   2
Multiplicity       :   3
Irrep              :   0
Energy             :     0.0000000000000000 Eh
Relativity type    :
Basis              : AO
                                X                 Y                 Z
Electronic contribution:    -10.246814260      -5.107267963      -1.799379630
Nuclear contribution   :     12.355143844       5.539873319       3.720298299
                        -----------------------------------------
Total Dipole Moment    :      2.108329584       0.432605356       1.920918669
                        -----------------------------------------
Magnitude (a.u.)       :      2.884810143
Magnitude (Debye)      :      7.332604651

Rotational constants in cm-1:             0.021166             0.012735             0.012208
Rotational constants in MHz :           634.540102           381.777492           365.983405

                             ****ORCA TERMINATED NORMALLY****
TOTAL RUN TIME: 0 days 0 hours 5 minutes 9 seconds 378 msec
