                         Program Version 6.0.0  -   RELEASE  -
|  1> ! Engrad def2-TZVPPD wB97M-D3BJ
|  2> %pal nprocs 8 end%pal nprocs 64 end
|  3> %tddft Nroots 2 Iroot 2
|  4> sf true
|  5> end
|  6> *xyz 0 3
|  7> O   2.45451553 1.26971606 -0.32121001
|  8> O   -0.82352908 0.80565122 -2.39958022
|  9> O   0.52806155 -2.63075348 -1.61130108
| 10> O   -2.39365088 -1.52224793 1.16602653
| 11> N   0.63098439 -2.15725908 0.60840909
| 12> N   -1.84136829 0.6662339 1.44687632
| 13> N   1.59532048 -0.73067543 -0.92249822
| 14> N   -1.66458839 -0.31009339 -0.63187416
| 15> C   1.51350647 -0.05970473 1.37853952
| 16> C   -0.92130838 1.96638993 -0.33289912
| 17> C   0.87542358 -1.26192986 1.61766624
| 18> C   -1.2868432 1.82239861 0.94887038
| 19> C   1.78660155 0.93008424 2.45142343
| 20> C   -0.27554814 3.19930162 -0.88685598
| 21> C   1.90720403 0.23805359 0.03222297
| 22> C   -1.11068931 0.82761265 -1.22842919
| 23> C   0.89950065 -1.89737462 -0.71797373
| 24> C   -2.00755194 -0.47539442 0.69567378
| 25> H   0.55342225 -1.52448633 2.60245686
| 26> H   -1.1657288 2.61931614 1.67422637
| 27> H   1.37535066 1.88355379 2.19003872
| 28> H   1.38269131 0.62896324 3.42053793
| 29> H   2.84646954 1.12599395 2.5559471
| 30> H   -0.83153759 3.57370914 -1.75329109
| 31> H   -0.24286425 4.00797768 -0.16744981
| 32> H   0.72998649 2.9912824 -1.22841649
| 33> H   0.03785632 -2.95353196 0.77413333
| 34> H   -2.08807247 0.61436597 2.40929139
| 35> H   1.75379952 -0.49634622 -1.90756493
| 36> H   -1.74062029 -1.11162724 -1.24017764
| 37> *
| 38>
| 39>                          ****END OF INPUT****

CARTESIAN COORDINATES (ANGSTROEM)
---------------------------------
  O      2.454516    1.269716   -0.321210
  O     -0.823529    0.805651   -2.399580
  O      0.528062   -2.630753   -1.611301
  O     -2.393651   -1.522248    1.166027
  N      0.630984   -2.157259    0.608409
  N     -1.841368    0.666234    1.446876
  N      1.595320   -0.730675   -0.922498
  N     -1.664588   -0.310093   -0.631874
  C      1.513506   -0.059705    1.378540
  C     -0.921308    1.966390   -0.332899
  C      0.875424   -1.261930    1.617666
  C     -1.286843    1.822399    0.948870
  C      1.786602    0.930084    2.451423
  C     -0.275548    3.199302   -0.886856
  C      1.907204    0.238054    0.032223
  C     -1.110689    0.827613   -1.228429
  C      0.899501   -1.897375   -0.717974
  C     -2.007552   -0.475394    0.695674
  H      0.553422   -1.524486    2.602457
  H     -1.165729    2.619316    1.674226
  H      1.375351    1.883554    2.190039
  H      1.382691    0.628963    3.420538
  H      2.846470    1.125994    2.555947
  H     -0.831538    3.573709   -1.753291
  H     -0.242864    4.007978   -0.167450
  H      0.729986    2.991282   -1.228416
  H      0.037856   -2.953532    0.774133
  H     -2.088072    0.614366    2.409291
  H      1.753800   -0.496346   -1.907565
  H     -1.740620   -1.111627   -1.240178

 Total Charge           Charge          ....    0
 Multiplicity           Mult            ....    3
 Number of Electrons    NEL             ....  132
 Basis Dimension        Dim             ....  882

ORBITAL ENERGIES
----------------
                 SPIN UP ORBITALS
  NO   OCC          E(Eh)            E(eV)
   0   1.0000     -19.329452      -525.9811
   1   1.0000     -19.326857      -525.9105
   2   1.0000     -19.321104      -525.7540
   3   1.0000     -19.320714      -525.7434
   4   1.0000     -14.589324      -396.9957
   5   1.0000     -14.583753      -396.8441
   6   1.0000     -14.568433      -396.4272
   7   1.0000     -14.551430      -395.9646
   8   1.0000     -10.514431      -286.1122
   9   1.0000     -10.507480      -285.9231
  10   1.0000     -10.475562      -285.0545
  11   1.0000     -10.458171      -284.5813
  12   1.0000     -10.431202      -283.8474
  13   1.0000     -10.411242      -283.3043
  14   1.0000     -10.397091      -282.9192
  15   1.0000     -10.378865      -282.4233
  16   1.0000     -10.371412      -282.2205
  17   1.0000     -10.347149      -281.5602
  18   1.0000      -1.227242       -33.3949
  19   1.0000      -1.222107       -33.2552
  20   1.0000      -1.194470       -32.5032
  21   1.0000      -1.188623       -32.3441
  22   1.0000      -1.123495       -30.5719
  23   1.0000      -1.121281       -30.5116
  24   1.0000      -1.068238       -29.0682
  25   1.0000      -1.059184       -28.8219
  26   1.0000      -0.973280       -26.4843
  27   1.0000      -0.953547       -25.9473
  28   1.0000      -0.859293       -23.3826
  29   1.0000      -0.844054       -22.9679
  30   1.0000      -0.813353       -22.1324
  31   1.0000      -0.808919       -22.0118
  32   1.0000      -0.793375       -21.5888
  33   1.0000      -0.786662       -21.4061
  34   1.0000      -0.697927       -18.9915
  35   1.0000      -0.694202       -18.8902
  36   1.0000      -0.693824       -18.8799
  37   1.0000      -0.691594       -18.8192
  38   1.0000      -0.643602       -17.5133
  39   1.0000      -0.638589       -17.3769
  40   1.0000      -0.627735       -17.0815
  41   1.0000      -0.598565       -16.2878
  42   1.0000      -0.596399       -16.2288
  43   1.0000      -0.593159       -16.1407
  44   1.0000      -0.572515       -15.5789
  45   1.0000      -0.568238       -15.4625
  46   1.0000      -0.567217       -15.4348
  47   1.0000      -0.555439       -15.1143
  48   1.0000      -0.551050       -14.9948
  49   1.0000      -0.548052       -14.9132
  50   1.0000      -0.534974       -14.5574
  51   1.0000      -0.521335       -14.1862
  52   1.0000      -0.515705       -14.0331
  53   1.0000      -0.514311       -13.9951
  54   1.0000      -0.513301       -13.9676
  55   1.0000      -0.494726       -13.4622
  56   1.0000      -0.489667       -13.3245
  57   1.0000      -0.476241       -12.9592
  58   1.0000      -0.420043       -11.4300
  59   1.0000      -0.418220       -11.3803
  60   1.0000      -0.404404       -11.0044
  61   1.0000      -0.402728       -10.9588
  62   1.0000      -0.388223       -10.5641
  63   1.0000      -0.385844       -10.4993
  64   1.0000      -0.382381       -10.4051
  65   1.0000      -0.346298        -9.4232
  66   1.0000      -0.216489        -5.8910
  67   0.0000       0.011844         0.3223
  68   0.0000       0.021655         0.5893
  69   0.0000       0.033435         0.9098
  70   0.0000       0.039548         1.0762
  71   0.0000       0.041906         1.1403

                 SPIN DOWN ORBITALS
  NO   OCC          E(Eh)            E(eV)
   0   1.0000     -19.327476      -525.9273
   1   1.0000     -19.326818      -525.9095
   2   1.0000     -19.320646      -525.7415
   3   1.0000     -19.314567      -525.5761
   4   1.0000     -14.584339      -396.8600
   5   1.0000     -14.583579      -396.8394
   6   1.0000     -14.568448      -396.4276
   7   1.0000     -14.550529      -395.9400
   8   1.0000     -10.514436      -286.1123
   9   1.0000     -10.507839      -285.9328
  10   1.0000     -10.475569      -285.0547
  11   1.0000     -10.457936      -284.5749
  12   1.0000     -10.431193      -283.8472
  13   1.0000     -10.401723      -283.0453
  14   1.0000     -10.386649      -282.6351
  15   1.0000     -10.378802      -282.4216
  16   1.0000     -10.371876      -282.2331
  17   1.0000     -10.347125      -281.5596
  18   1.0000      -1.226596       -33.3774
  19   1.0000      -1.218180       -33.1484
  20   1.0000      -1.194339       -32.4996
  21   1.0000      -1.179029       -32.0830
  22   1.0000      -1.123291       -30.5663
  23   1.0000      -1.110580       -30.2204
  24   1.0000      -1.068154       -29.0660
  25   1.0000      -1.053514       -28.6676
  26   1.0000      -0.953764       -25.9532
  27   1.0000      -0.950198       -25.8562
  28   1.0000      -0.847890       -23.0723
  29   1.0000      -0.843690       -22.9580
  30   1.0000      -0.808964       -22.0130
  31   1.0000      -0.800120       -21.7724
  32   1.0000      -0.793309       -21.5870
  33   1.0000      -0.780676       -21.2433
  34   1.0000      -0.693735       -18.8775
  35   1.0000      -0.691869       -18.8267
  36   1.0000      -0.688612       -18.7381
  37   1.0000      -0.683446       -18.5975
  38   1.0000      -0.641288       -17.4503
  39   1.0000      -0.630408       -17.1543
  40   1.0000      -0.621777       -16.9194
  41   1.0000      -0.596303       -16.2262
  42   1.0000      -0.587951       -15.9990
  43   1.0000      -0.584425       -15.9030
  44   1.0000      -0.567278       -15.4364
  45   1.0000      -0.562158       -15.2971
  46   1.0000      -0.554194       -15.0804
  47   1.0000      -0.548227       -14.9180
  48   1.0000      -0.546826       -14.8799
  49   1.0000      -0.545081       -14.8324
  50   1.0000      -0.527102       -14.3432
  51   1.0000      -0.514859       -14.0100
  52   1.0000      -0.513708       -13.9787
  53   1.0000      -0.507578       -13.8119
  54   1.0000      -0.500284       -13.6134
  55   1.0000      -0.493951       -13.4411
  56   1.0000      -0.476591       -12.9687
  57   1.0000      -0.442401       -12.0383
  58   1.0000      -0.419091       -11.4040
  59   1.0000      -0.413771       -11.2593
  60   1.0000      -0.402606       -10.9555
  61   1.0000      -0.385209       -10.4821
  62   1.0000      -0.379980       -10.3398
  63   1.0000      -0.378626       -10.3029
  64   1.0000      -0.345142        -9.3918
  65   0.0000      -0.102576        -2.7912
  66   0.0000       0.010902         0.2967
  67   0.0000       0.022055         0.6001
  68   0.0000       0.031721         0.8632
  69   0.0000       0.038082         1.0363

----------------------------------------------------------------------------------------------------
          SPIN FLIP ABSORPTION SPECTRUM VIA TRANSITION ELECTRIC DIPOLE MOMENTS
----------------------------------------------------------------------------------------------------
     Transition      Energy     Energy  Wavelength fosc(D2)      D2        DX        DY        DZ
                      (eV)      (cm-1)    (nm)                 (au**2)    (au)      (au)      (au)
----------------------------------------------------------------------------------------------------
  1-3A  ->  2-3A    3.943289   31804.8   314.4   0.001120586   0.01160  -0.04217  -0.06964   0.07050

Dispersion correction             ... done (  0.1 sec)

MULLIKEN ATOMIC CHARGES AND SPIN DENSITIES
------------------------------------------
   0 O :   -0.704963    0.010434
   1 O :   -0.658675   -0.000499
   2 O :   -0.622251    0.001674
   3 O :   -0.661085    0.000046
   4 N :    0.059546    0.029276
   5 N :    0.052640   -0.002373
   6 N :   -0.000052   -0.010018
   7 N :    0.055422   -0.000349
   8 C :    1.191119    0.102949
   9 C :    0.857593   -0.003979
  10 C :   -0.361302    0.027461
  11 C :   -0.230406    0.005817
  12 C :   -1.313631   -0.015317
  13 C :   -1.380791    0.002345
  14 C :    0.196790   -0.138091
  15 C :    0.471009    0.001329
  16 C :    0.365919    0.003200
  17 C :    0.396262   -0.010802
  18 H :    0.097273   -0.018968
  19 H :    0.151821   -0.000287
  20 H :    0.269001    0.008155
  21 H :    0.330799   -0.001254
  22 H :    0.344507    0.007737
  23 H :    0.326396   -0.000109
  24 H :    0.343156    0.000434
  25 H :    0.235189   -0.001240
  26 H :    0.064961   -0.000717
  27 H :    0.014561    0.000834
  28 H :    0.071745    0.002486
  29 H :    0.037445   -0.000174
Sum of atomic charges       :    0.0000000

LOEWDIN ATOMIC CHARGES AND SPIN DENSITIES
-----------------------------------------
   0 O :    0.069721    0.008047
   1 O :    0.105160   -0.000377
   2 O :    0.103362    0.000959
   3 O :    0.073196   -0.000340
   4 N :    0.304999    0.018842
   5 N :    0.286199   -0.000320
   6 N :    0.311317   -0.006143
   7 N :    0.344922   -0.000080
   8 C :   -0.090851    0.004775
   9 C :   -0.129380   -0.000600
  10 C :    0.020985   -0.012259
  11 C :    0.045814   -0.000028
  12 C :    0.207772    0.001164
  13 C :    0.183015   -0.000085
  14 C :   -0.437404   -0.006758
  15 C :   -0.402528   -0.000060
  16 C :   -0.480835   -0.002627
  17 C :   -0.485138   -0.000298
  18 H :   -0.007489   -0.005969
  19 H :    0.039554   -0.000006
  20 H :   -0.016600    0.000694
  21 H :    0.003632   -0.000359
  22 H :    0.011824    0.000774
  23 H :    0.005045   -0.000033
  24 H :   -0.010108   -0.000007
  25 H :   -0.016599   -0.000046
  26 H :   -0.006741    0.001871
  27 H :   -0.030018   -0.000115
  28 H :    0.009466   -0.000611
  29 H :   -0.012291   -0.000005

  Mayer bond orders larger than 0.100000
B(  0-O , 14-C ) :   1.2544 B(  1-O , 15-C ) :   1.4577 B(  2-O , 16-C ) :   1.5592
B(  3-O , 17-C ) :   1.5410 B(  4-N , 10-C ) :   0.8808 B(  4-N , 16-C ) :   0.9692
B(  4-N , 26-H ) :   1.0881 B(  5-N , 11-C ) :   0.9478 B(  5-N , 17-C ) :   1.0371
B(  5-N , 27-H ) :   1.1364 B(  6-N , 14-C ) :   0.8856 B(  6-N , 16-C ) :   0.9269
B(  6-N , 28-H ) :   1.0904 B(  7-N , 15-C ) :   0.9557 B(  7-N , 16-C ) :   0.1246
B(  7-N , 17-C ) :   0.9407 B(  7-N , 29-H ) :   1.1127 B(  8-C , 10-C ) :   0.4477
B(  8-C , 12-C ) :   0.3887 B(  8-C , 14-C ) :   0.9273 B(  8-C , 18-H ) :  -0.1520
B(  9-C , 11-C ) :   1.1542 B(  9-C , 13-C ) :   0.3487 B(  9-C , 15-C ) :   0.7931
B(  9-C , 19-H ) :  -0.1112 B( 10-C , 18-H ) :   1.2430 B( 11-C , 13-C ) :  -0.1125
B( 11-C , 19-H ) :   1.1395 B( 12-C , 20-H ) :   0.9563 B( 12-C , 21-H ) :   0.9801
B( 12-C , 22-H ) :   0.9175 B( 13-C , 23-H ) :   0.9556 B( 13-C , 24-H ) :   0.9852
B( 13-C , 25-H ) :   0.9881

Dispersion correction           -0.058575381
FINAL SINGLE POINT ENERGY      -908.780330323796

DIPOLE MOMENT
-------------

Method             : TDA/CIS
Type of density    : Electron Density
Level              : Relaxed density
State              :   2
Multiplicity       :   3
Irrep              :   0
Energy             :     0.0000000000000000 Eh
Relativity type    :
Basis              : AO
                                X                 Y                 Z
Electronic contribution:     -2.893249096      -9.540611206      -5.607578217
Nuclear contribution   :      2.549743108      10.329977087       8.110538322
                        -----------------------------------------
Total Dipole Moment    :     -0.343505988       0.789365881       2.502960105
                        -----------------------------------------
Magnitude (a.u.)       :      2.646866854
Magnitude (Debye)      :      6.727800876

Rotational constants in cm-1:             0.017015             0.015613             0.014034
Rotational constants in MHz :           510.110869           468.065423           420.724467

                             ****ORCA TERMINATED NORMALLY****
TOTAL RUN TIME: 0 days 0 hours 5 minutes 2 seconds 678 msec
