                         Program Version 6.0.0  -   RELEASE  -
|  1> ! Opt wB97M-D3BJ def2-TZVPPD
|  2> %pal nprocs 8 end %pal nprocs 64 end
|  3> %geom
|  4> Constraints
|  5>     {A 2 1 0 99.0909090909091 C }
|  6> end
|  7> MaxIter 500
|  8> end
|  9> *xyz 0 1
| 10> O   -0.0007 0.8141 0.0
| 11> C   0.7509 -0.4065 0.0
| 12> C   -0.7502 -0.4076 0.0
| 13> H   1.2625 -0.6786 0.9136
| 14> H   1.2625 -0.6787 -0.9136
| 15> H   -1.2614 -0.6806 -0.9136
| 16> H   -1.2614 -0.6805 0.9136
| 17> *
| 18>
| 19>                          ****END OF INPUT****
 Total Charge           Charge          ....    0
 Multiplicity           Mult            ....    1
 Number of Electrons    NEL             ....   24
Dispersion correction           -0.005775630
FINAL SINGLE POINT ENERGY      -153.748212742032
Dispersion correction             ... done (  0.1 sec)
Dispersion correction           -0.005695205
FINAL SINGLE POINT ENERGY      -153.783719066431
Dispersion correction             ... done (  0.1 sec)
Dispersion correction           -0.005650861
FINAL SINGLE POINT ENERGY      -153.794447312098
Dispersion correction             ... done (  0.1 sec)
FINAL SINGLE POINT ENERGY      -153.798992418467
FINAL SINGLE POINT ENERGY      -153.800101370971
FINAL SINGLE POINT ENERGY      -153.800352155803
FINAL SINGLE POINT ENERGY      -153.800484089360
FINAL SINGLE POINT ENERGY      -153.800570031740
FINAL SINGLE POINT ENERGY      -153.800628779378
FINAL SINGLE POINT ENERGY      -153.800683412060
FINAL SINGLE POINT ENERGY      -153.800718498404
FINAL SINGLE POINT ENERGY      -153.800733962124
Dispersion correction             ... done (  0.2 sec)
Dispersion correction           -0.005658896
FINAL SINGLE POINT ENERGY      -153.800739737905
Dispersion correction             ... done (  0.2 sec)
Dispersion correction           -0.005659223
FINAL SINGLE POINT ENERGY      -153.800741547986
Dispersion correction             ... done (  0.1 sec)
                    ***********************HURRAY********************

CARTESIAN COORDINATES (ANGSTROEM)
---------------------------------
  O      0.399160    1.045955   -0.002741
  C      0.618480   -0.274462   -0.000556
  C     -0.743991   -0.730907    0.000736
  H      1.170883   -0.629375    0.882362
  H      1.170823   -0.632331   -0.882281
  H     -1.307327   -0.750767   -0.922301
  H     -1.305829   -0.746512    0.924782

 Multiplicity           Mult            ....    1
 Number of Electrons    NEL             ....   24
 Basis Dimension        Dim             ....  182

ORBITAL ENERGIES
----------------

  NO   OCC          E(Eh)            E(eV)
   0   2.0000     -19.330494      -526.0095
   1   2.0000     -10.444105      -284.1986
   2   2.0000     -10.397131      -282.9203
   3   2.0000      -1.129906       -30.7463
   4   2.0000      -0.881387       -23.9838
   5   2.0000      -0.733644       -19.9635
   6   2.0000      -0.624807       -17.0019
   7   2.0000      -0.574537       -15.6339
   8   2.0000      -0.517941       -14.0939
   9   2.0000      -0.511433       -13.9168
  10   2.0000      -0.370844       -10.0912
  11   2.0000      -0.354909        -9.6576
  12   0.0000      -0.054556        -1.4846
  13   0.0000       0.036925         1.0048
  14   0.0000       0.061178         1.6647
  15   0.0000       0.076410         2.0792
  16   0.0000       0.098184         2.6717

MULLIKEN ATOMIC CHARGES
-----------------------
   0 O :   -0.508483
   1 C :   -0.104836
   2 C :   -0.252029
   3 H :    0.215405
   4 H :    0.215545
   5 H :    0.217136
   6 H :    0.217262
Sum of atomic charges:    0.0000000

LOEWDIN ATOMIC CHARGES
----------------------
   0 O :   -0.016716
   1 C :   -0.397816
   2 C :    0.385683
   3 H :    0.022589
   4 H :    0.022589
   5 H :   -0.008158
   6 H :   -0.008170

  Mayer bond orders larger than 0.100000
B(  0-O ,  1-C ) :   0.7209 B(  0-O ,  2-C ) :   0.9044 B(  1-C ,  2-C ) :   0.7804
B(  1-C ,  3-H ) :   1.0426 B(  1-C ,  4-H ) :   1.0424 B(  2-C ,  5-H ) :   0.9670
B(  2-C ,  6-H ) :   0.9669

Dispersion correction           -0.005659715
FINAL SINGLE POINT ENERGY      -153.800741959772

DIPOLE MOMENT
-------------

Method             : SCF
Type of density    : Electron Density
Multiplicity       :   1
Irrep              :   0
Energy             :  -153.7950822449036821 Eh
Relativity type    :
Basis              : AO
                                X                 Y                 Z
Electronic contribution:      0.096305166       1.414405706      -0.003233961
Nuclear contribution   :     -0.642594569      -2.733528979       0.005706491
                        -----------------------------------------
Total Dipole Moment    :     -0.546289403      -1.319123272       0.002472530
                        -----------------------------------------
Magnitude (a.u.)       :      1.427769040
Magnitude (Debye)      :      3.629100491

Rotational constants in cm-1:             1.172290             0.439110             0.364942
Rotational constants in MHz :         35144.367604         13164.174136         10940.678043

                             ****ORCA TERMINATED NORMALLY****
TOTAL RUN TIME: 0 days 0 hours 3 minutes 29 seconds 304 msec
