                         Program Version 6.0.0  -   RELEASE  -
|  1> ! EnGrad wB97M-D3BJ def2-TZVPPD
|  2> %pal nprocs 8 end%pal nprocs 16 end
|  3> %tddft
|  4>  sf true
|  5>  nroots 2 Iroot 2 end
|  6> *xyz 0 3
|  7> O   -0.01715285035848 0.77424466539844 -3.685341031e-05
|  8> C   0.7406224967346 -0.44909573590361 2.574127435e-05
|  9> C   -0.7323150472598 -0.42462222864429 -1.73244585e-05
| 10> H   1.26941012358964 -0.65449614047095 0.92054436535346
| 11> H   1.26933995747683 -0.65470221481889 -0.92049698842015
| 12> H   -1.26387518552642 -0.65482494661473 -0.91623578595602
| 13> H   -1.26382949465638 -0.65490339894598 0.91621684561717
| 14> *
| 15>
| 16>                          ****END OF INPUT****

CARTESIAN COORDINATES (ANGSTROEM)
---------------------------------
  O     -0.017153    0.774245   -0.000037
  C      0.740622   -0.449096    0.000026
  C     -0.732315   -0.424622   -0.000017
  H      1.269410   -0.654496    0.920544
  H      1.269340   -0.654702   -0.920497
  H     -1.263875   -0.654825   -0.916236
  H     -1.263829   -0.654903    0.916217

 Total Charge           Charge          ....    0
 Multiplicity           Mult            ....    3
 Number of Electrons    NEL             ....   24
 Basis Dimension        Dim             ....  182

ORBITAL ENERGIES
----------------
                 SPIN UP ORBITALS
  NO   OCC          E(Eh)            E(eV)
   0   1.0000     -19.515274      -531.0376
   1   1.0000     -10.446526      -284.2644
   2   1.0000     -10.422352      -283.6066
   3   1.0000      -1.345496       -36.6128
   4   1.0000      -0.878208       -23.8973
   5   1.0000      -0.818617       -22.2757
   6   1.0000      -0.721979       -19.6461
   7   1.0000      -0.682022       -18.5587
   8   1.0000      -0.610503       -16.6126
   9   1.0000      -0.535904       -14.5827
  10   1.0000      -0.525648       -14.3036
  11   1.0000      -0.484818       -13.1926
  12   1.0000      -0.116141        -3.1603
  13   0.0000       0.029481         0.8022
  14   0.0000       0.053464         1.4548
  15   0.0000       0.065347         1.7782
  16   0.0000       0.082819         2.2536
  17   0.0000       0.098582         2.6826

                 SPIN DOWN ORBITALS
  NO   OCC          E(Eh)            E(eV)
   0   1.0000     -19.484542      -530.2013
   1   1.0000     -10.445919      -284.2479
   2   1.0000     -10.418489      -283.5015
   3   1.0000      -1.283567       -34.9276
   4   1.0000      -0.847156       -23.0523
   5   1.0000      -0.802181       -21.8285
   6   1.0000      -0.660399       -17.9704
   7   1.0000      -0.653593       -17.7852
   8   1.0000      -0.578068       -15.7300
   9   1.0000      -0.515691       -14.0327
  10   1.0000      -0.466337       -12.6897
  11   0.0000      -0.151516        -4.1230
  12   0.0000       0.032906         0.8954
  13   0.0000       0.053911         1.4670
  14   0.0000       0.064670         1.7598
  15   0.0000       0.074658         2.0315

----------------------------------------------------------------------------------------------------
          SPIN FLIP ABSORPTION SPECTRUM VIA TRANSITION ELECTRIC DIPOLE MOMENTS
----------------------------------------------------------------------------------------------------
     Transition      Energy     Energy  Wavelength fosc(D2)      D2        DX        DY        DZ
                      (eV)      (cm-1)    (nm)                 (au**2)    (au)      (au)      (au)
----------------------------------------------------------------------------------------------------
  1-3A  ->  2-3A    7.010618   56544.5   176.9   0.007115019   0.04142  -0.00001   0.00017  -0.20353

Dispersion correction             ... done (  0.0 sec)

MULLIKEN ATOMIC CHARGES AND SPIN DENSITIES
------------------------------------------
   0 O :    0.896078    1.011129
   1 C :   -2.177145   -1.941028
   2 C :   -1.744957   -1.847702
   3 H :    0.869264    0.840546
   4 H :    0.867321    0.838456
   5 H :    0.643960    0.548370
   6 H :    0.645480    0.550230
Sum of atomic charges       :   -0.0000000

LOEWDIN ATOMIC CHARGES AND SPIN DENSITIES
-----------------------------------------
   0 O :    0.372364    0.602341
   1 C :   -0.179276   -0.157035
   2 C :   -0.165483   -0.233618
   3 H :   -0.021411   -0.047020
   4 H :   -0.021306   -0.046832
   5 H :    0.007606   -0.058837
   6 H :    0.007506   -0.059000

  Mayer bond orders larger than 0.100000
B(  0-O ,  1-C ) :  -1.8863 B(  0-O ,  2-C ) :  -1.1497 B(  0-O ,  3-H ) :   0.8552
B(  0-O ,  4-H ) :   0.8537 B(  0-O ,  5-H ) :   0.6117 B(  0-O ,  6-H ) :   0.6131
B(  1-C ,  2-C ) :  11.1492 B(  1-C ,  3-H ) :  -1.6503 B(  1-C ,  4-H ) :  -1.6431
B(  1-C ,  5-H ) :  -2.8853 B(  1-C ,  6-H ) :  -2.8928 B(  2-C ,  3-H ) :  -3.3482
B(  2-C ,  4-H ) :  -3.3401 B(  2-C ,  5-H ) :  -0.2551 B(  2-C ,  6-H ) :  -0.2598
B(  3-H ,  4-H ) :   0.8179 B(  3-H ,  5-H ) :   0.9115 B(  3-H ,  6-H ) :   1.0061
B(  4-H ,  5-H ) :   1.0015 B(  4-H ,  6-H ) :   0.9117 B(  5-H ,  6-H ) :   0.3656

Dispersion correction           -0.005219544
FINAL SINGLE POINT ENERGY      -153.621520238021

DIPOLE MOMENT
-------------

Method             : TDA/CIS
Type of density    : Electron Density
Level              : Relaxed density
State              :   2
Multiplicity       :   3
Irrep              :   0
Energy             :     0.0000000000000000 Eh
Relativity type    :
Basis              : AO
                                X                 Y                 Z
Electronic contribution:     -0.345768964       2.942997048      -0.002411353
Nuclear contribution   :      0.024092872      -2.381682958       0.000065462
                        -----------------------------------------
Total Dipole Moment    :     -0.321676092       0.561314091      -0.002345891
                        -----------------------------------------
Magnitude (a.u.)       :      0.646957897
Magnitude (Debye)      :      1.644436288

Rotational constants in cm-1:             0.876546             0.734018             0.476247
Rotational constants in MHz :         26278.192131         22005.318495         14277.529030

                             ****ORCA TERMINATED NORMALLY****
TOTAL RUN TIME: 0 days 0 hours 0 minutes 24 seconds 105 msec
