                         Program Version 6.0.0  -   RELEASE  -
|  1> ! Engrad def2-TZVPPD wB97M-D3BJ
|  2> %pal nprocs 8 end%pal nprocs 64 end
|  3> %tddft
|  4>  Iroot 1 Nroots 3
|  5> sf true
|  6> end
|  7> *xyz 0 3
|  8> O   3.38576801 -1.0649877 -1.92265849
|  9> O   -2.17735882 1.89056391 -1.4300851
| 10> O   -1.0684728 -2.09584508 -1.71367571
| 11> O   -3.04148762 0.44061648 2.80259246
| 12> N   0.09971382 -1.62298437 0.21530576
| 13> N   -0.90140615 0.36962172 2.06813669
| 14> N   1.15009893 -1.52227434 -1.81357356
| 15> N   -2.65751163 0.92968794 0.59086949
| 16> C   2.20640754 -0.55408273 0.09733776
| 17> C   -0.34201996 1.32797051 -0.02771219
| 18> C   1.01526394 -0.72266445 0.91129845
| 19> C   0.19756083 0.66233219 1.17997432
| 20> C   3.42126296 -0.01170124 0.67591265
| 21> C   0.61636396 1.98046026 -1.00864042
| 22> C   2.35473456 -1.08434106 -1.24196796
| 23> C   -1.7691988 1.43155954 -0.38671738
| 24> C   -0.05097782 -1.75030025 -1.17019725
| 25> C   -2.26552311 0.61279348 1.91076609
| 26> H   1.26847898 -1.15076391 1.89148462
| 27> H   0.82245262 1.42372211 1.65507098
| 28> H   3.19076581 0.80464647 1.34357461
| 29> H   3.92334171 -0.8308343 1.21900651
| 30> H   4.18772606 0.29578044 -0.00750426
| 31> H   0.62513193 1.5633743 -2.0166209
| 32> H   0.32618843 2.96386235 -1.22731724
| 33> H   1.70382285 1.94801053 -0.56382978
| 34> H   -0.76103025 -1.8250065 0.68580635
| 35> H   -0.66198397 -0.22857683 2.84253779
| 36> H   1.23485838 -1.52219883 -2.77198635
| 37> H   -3.66198102 1.22335396 0.48407742
| 38> *
| 39>
| 40>                          ****END OF INPUT****

CARTESIAN COORDINATES (ANGSTROEM)
---------------------------------
  O      3.385768   -1.064988   -1.922658
  O     -2.177359    1.890564   -1.430085
  O     -1.068473   -2.095845   -1.713676
  O     -3.041488    0.440616    2.802592
  N      0.099714   -1.622984    0.215306
  N     -0.901406    0.369622    2.068137
  N      1.150099   -1.522274   -1.813574
  N     -2.657512    0.929688    0.590869
  C      2.206408   -0.554083    0.097338
  C     -0.342020    1.327971   -0.027712
  C      1.015264   -0.722664    0.911298
  C      0.197561    0.662332    1.179974
  C      3.421263   -0.011701    0.675913
  C      0.616364    1.980460   -1.008640
  C      2.354735   -1.084341   -1.241968
  C     -1.769199    1.431560   -0.386717
  C     -0.050978   -1.750300   -1.170197
  C     -2.265523    0.612793    1.910766
  H      1.268479   -1.150764    1.891485
  H      0.822453    1.423722    1.655071
  H      3.190766    0.804646    1.343575
  H      3.923342   -0.830834    1.219007
  H      4.187726    0.295780   -0.007504
  H      0.625132    1.563374   -2.016621
  H      0.326188    2.963862   -1.227317
  H      1.703823    1.948011   -0.563830
  H     -0.761030   -1.825006    0.685806
  H     -0.661984   -0.228577    2.842538
  H      1.234858   -1.522199   -2.771986
  H     -3.661981    1.223354    0.484077

 Total Charge           Charge          ....    0
 Multiplicity           Mult            ....    3
 Number of Electrons    NEL             ....  132
 Basis Dimension        Dim             ....  882

ORBITAL ENERGIES
----------------
                 SPIN UP ORBITALS
  NO   OCC          E(Eh)            E(eV)
   0   1.0000     -19.341477      -526.3083
   1   1.0000     -19.338144      -526.2177
   2   1.0000     -19.328064      -525.9434
   3   1.0000     -19.325972      -525.8864
   4   1.0000     -14.567052      -396.3896
   5   1.0000     -14.560892      -396.2220
   6   1.0000     -14.558762      -396.1641
   7   1.0000     -14.554472      -396.0473
   8   1.0000     -10.512661      -286.0640
   9   1.0000     -10.509483      -285.9776
  10   1.0000     -10.487106      -285.3687
  11   1.0000     -10.486602      -285.3549
  12   1.0000     -10.456927      -284.5474
  13   1.0000     -10.450512      -284.3729
  14   1.0000     -10.423677      -283.6427
  15   1.0000     -10.419647      -283.5330
  16   1.0000     -10.378061      -282.4014
  17   1.0000     -10.372726      -282.2562
  18   1.0000      -1.224324       -33.3155
  19   1.0000      -1.219763       -33.1914
  20   1.0000      -1.203433       -32.7471
  21   1.0000      -1.195537       -32.5322
  22   1.0000      -1.119578       -30.4653
  23   1.0000      -1.099676       -29.9237
  24   1.0000      -1.065721       -28.9997
  25   1.0000      -1.051397       -28.6100
  26   1.0000      -0.985749       -26.8236
  27   1.0000      -0.958443       -26.0806
  28   1.0000      -0.887436       -24.1484
  29   1.0000      -0.847533       -23.0625
  30   1.0000      -0.824912       -22.4470
  31   1.0000      -0.802748       -21.8439
  32   1.0000      -0.791603       -21.5406
  33   1.0000      -0.778777       -21.1916
  34   1.0000      -0.702218       -19.1083
  35   1.0000      -0.691555       -18.8182
  36   1.0000      -0.685468       -18.6525
  37   1.0000      -0.678525       -18.4636
  38   1.0000      -0.655463       -17.8361
  39   1.0000      -0.642539       -17.4844
  40   1.0000      -0.619016       -16.8443
  41   1.0000      -0.605417       -16.4742
  42   1.0000      -0.601496       -16.3675
  43   1.0000      -0.587866       -15.9967
  44   1.0000      -0.577620       -15.7178
  45   1.0000      -0.573440       -15.6041
  46   1.0000      -0.568405       -15.4671
  47   1.0000      -0.565966       -15.4007
  48   1.0000      -0.563563       -15.3353
  49   1.0000      -0.562901       -15.3173
  50   1.0000      -0.556563       -15.1449
  51   1.0000      -0.531952       -14.4751
  52   1.0000      -0.526316       -14.3218
  53   1.0000      -0.520218       -14.1558
  54   1.0000      -0.515735       -14.0339
  55   1.0000      -0.508621       -13.8403
  56   1.0000      -0.504551       -13.7295
  57   1.0000      -0.427105       -11.6221
  58   1.0000      -0.423732       -11.5303
  59   1.0000      -0.409652       -11.1472
  60   1.0000      -0.408175       -11.1070
  61   1.0000      -0.404064       -10.9951
  62   1.0000      -0.399221       -10.8634
  63   1.0000      -0.393675       -10.7124
  64   1.0000      -0.385957       -10.5024
  65   1.0000      -0.354620        -9.6497
  66   1.0000      -0.324566        -8.8319
  67   0.0000       0.009094         0.2475
  68   0.0000       0.027660         0.7527
  69   0.0000       0.031459         0.8560
  70   0.0000       0.034576         0.9408
  71   0.0000       0.053196         1.4475

                 SPIN DOWN ORBITALS
  NO   OCC          E(Eh)            E(eV)
   0   1.0000     -19.337177      -526.1913
   1   1.0000     -19.334470      -526.1177
   2   1.0000     -19.328001      -525.9416
   3   1.0000     -19.325773      -525.8810
   4   1.0000     -14.566373      -396.3712
   5   1.0000     -14.560782      -396.2190
   6   1.0000     -14.558031      -396.1442
   7   1.0000     -14.554503      -396.0482
   8   1.0000     -10.512688      -286.0648
   9   1.0000     -10.509543      -285.9792
  10   1.0000     -10.488021      -285.3935
  11   1.0000     -10.487585      -285.3817
  12   1.0000     -10.456560      -284.5375
  13   1.0000     -10.450032      -284.3598
  14   1.0000     -10.412174      -283.3297
  15   1.0000     -10.408680      -283.2346
  16   1.0000     -10.378494      -282.4132
  17   1.0000     -10.373229      -282.2699
  18   1.0000      -1.223379       -33.2898
  19   1.0000      -1.218316       -33.1521
  20   1.0000      -1.198572       -32.6148
  21   1.0000      -1.190358       -32.3913
  22   1.0000      -1.116788       -30.3893
  23   1.0000      -1.097352       -29.8605
  24   1.0000      -1.063659       -28.9436
  25   1.0000      -1.049952       -28.5706
  26   1.0000      -0.972318       -26.4581
  27   1.0000      -0.941791       -25.6274
  28   1.0000      -0.882243       -24.0070
  29   1.0000      -0.842369       -22.9220
  30   1.0000      -0.815967       -22.2036
  31   1.0000      -0.796478       -21.6733
  32   1.0000      -0.789438       -21.4817
  33   1.0000      -0.777313       -21.1518
  34   1.0000      -0.698009       -18.9938
  35   1.0000      -0.686168       -18.6716
  36   1.0000      -0.679605       -18.4930
  37   1.0000      -0.671690       -18.2776
  38   1.0000      -0.641768       -17.4634
  39   1.0000      -0.638341       -17.3701
  40   1.0000      -0.611807       -16.6481
  41   1.0000      -0.601799       -16.3758
  42   1.0000      -0.595498       -16.2043
  43   1.0000      -0.581515       -15.8238
  44   1.0000      -0.570873       -15.5342
  45   1.0000      -0.568602       -15.4724
  46   1.0000      -0.564706       -15.3664
  47   1.0000      -0.560386       -15.2489
  48   1.0000      -0.557561       -15.1720
  49   1.0000      -0.554258       -15.0821
  50   1.0000      -0.542289       -14.7564
  51   1.0000      -0.524121       -14.2620
  52   1.0000      -0.517898       -14.0927
  53   1.0000      -0.509597       -13.8668
  54   1.0000      -0.508770       -13.8443
  55   1.0000      -0.503526       -13.7016
  56   1.0000      -0.499475       -13.5914
  57   1.0000      -0.423844       -11.5334
  58   1.0000      -0.420519       -11.4429
  59   1.0000      -0.402278       -10.9465
  60   1.0000      -0.397363       -10.8128
  61   1.0000      -0.394382       -10.7317
  62   1.0000      -0.393827       -10.7166
  63   1.0000      -0.389240       -10.5917
  64   1.0000      -0.377812       -10.2808
  65   0.0000      -0.071779        -1.9532
  66   0.0000      -0.050507        -1.3744
  67   0.0000       0.008900         0.2422
  68   0.0000       0.027418         0.7461
  69   0.0000       0.031349         0.8530

----------------------------------------------------------------------------------------------------
          SPIN FLIP ABSORPTION SPECTRUM VIA TRANSITION ELECTRIC DIPOLE MOMENTS
----------------------------------------------------------------------------------------------------
     Transition      Energy     Energy  Wavelength fosc(D2)      D2        DX        DY        DZ
                      (eV)      (cm-1)    (nm)                 (au**2)    (au)      (au)      (au)
----------------------------------------------------------------------------------------------------
  1-3A  ->  2-3A    0.145502    1173.6  8521.1   0.000047669   0.01337   0.09671  -0.04405  -0.04560
  1-3A  ->  3-3A    2.396352   19327.9   517.4   0.001196454   0.02038  -0.13870   0.01694   0.02923

Dispersion correction             ... done (  0.1 sec)

MULLIKEN ATOMIC CHARGES AND SPIN DENSITIES
------------------------------------------
   0 O :   -0.680535   -0.032909
   1 O :   -0.646721    0.028440
   2 O :   -0.628338   -0.000765
   3 O :   -0.610176   -0.000335
   4 N :   -0.318603   -0.007027
   5 N :   -0.278900   -0.002634
   6 N :    0.058941   -0.007769
   7 N :   -0.055111    0.005062
   8 C :    0.404630    0.293134
   9 C :    0.497538    0.430001
  10 C :    0.426511   -0.227104
  11 C :    0.169510   -0.217798
  12 C :   -1.676467    0.010307
  13 C :   -1.567079   -0.005974
  14 C :    0.326300   -0.213219
  15 C :    0.397131   -0.116925
  16 C :    0.451508    0.013925
  17 C :    0.365520    0.008832
  18 H :    0.508591   -0.008288
  19 H :    0.557085    0.014496
  20 H :    0.393713    0.009328
  21 H :    0.425839    0.002574
  22 H :    0.282234   -0.003461
  23 H :    0.235883    0.014157
  24 H :    0.461363    0.011709
  25 H :    0.267002   -0.002469
  26 H :    0.064797    0.001618
  27 H :    0.079051    0.001074
  28 H :   -0.052672    0.001530
  29 H :    0.141456    0.000490
Sum of atomic charges       :    0.0000000

LOEWDIN ATOMIC CHARGES AND SPIN DENSITIES
-----------------------------------------
   0 O :    0.072168   -0.028552
   1 O :    0.099257    0.025103
   2 O :    0.106884   -0.000751
   3 O :    0.102351   -0.000331
   4 N :    0.274458   -0.000116
   5 N :    0.255263   -0.003044
   6 N :    0.354658   -0.007072
   7 N :    0.303237    0.003789
   8 C :   -0.074161   -0.088621
   9 C :   -0.003444    0.115694
  10 C :   -0.084773   -0.010328
  11 C :   -0.113117    0.003472
  12 C :    0.177077   -0.014149
  13 C :    0.204681    0.013125
  14 C :   -0.371756   -0.020371
  15 C :   -0.402448    0.014220
  16 C :   -0.465369    0.000185
  17 C :   -0.473662   -0.000390
  18 H :    0.069550   -0.003049
  19 H :    0.049742    0.002602
  20 H :   -0.005819   -0.001333
  21 H :    0.032672   -0.005523
  22 H :   -0.005799   -0.000624
  23 H :    0.008350    0.004875
  24 H :   -0.034944    0.003403
  25 H :    0.052160   -0.001288
  26 H :   -0.049195   -0.000038
  27 H :   -0.036570   -0.000476
  28 H :   -0.069136   -0.000660
  29 H :    0.027685    0.000250

  Mayer bond orders larger than 0.100000
B(  0-O ,  8-C ) :   0.1061 B(  0-O , 14-C ) :   1.2341 B(  1-O , 13-C ) :   0.1023
B(  1-O , 15-C ) :   1.2840 B(  2-O , 16-C ) :   1.5424 B(  3-O , 17-C ) :   1.6562
B(  4-N ,  8-C ) :   0.2886 B(  4-N , 10-C ) :   0.2634 B(  4-N , 16-C ) :   1.0747
B(  4-N , 18-H ) :  -0.1762 B(  4-N , 26-H ) :   1.0309 B(  5-N ,  9-C ) :   0.1099
B(  5-N , 11-C ) :   0.4169 B(  5-N , 17-C ) :   1.0803 B(  5-N , 27-H ) :   1.1161
B(  6-N ,  8-C ) :  -0.1767 B(  6-N , 10-C ) :   0.1294 B(  6-N , 14-C ) :   1.0318
B(  6-N , 16-C ) :   0.8764 B(  6-N , 28-H ) :   1.1797 B(  7-N , 15-C ) :   1.0091
B(  7-N , 17-C ) :   0.9768 B(  7-N , 29-H ) :   1.0044 B(  8-C ,  9-C ) :   0.1228
B(  8-C , 10-C ) :   0.7606 B(  8-C , 11-C ) :   0.2083 B(  8-C , 12-C ) :   0.1354
B(  8-C , 13-C ) :   0.1491 B(  8-C , 14-C ) :   0.8180 B(  8-C , 18-H ) :  -0.1171
B(  8-C , 20-H ) :  -0.1514 B(  8-C , 22-H ) :  -0.1364 B(  9-C , 11-C ) :   0.6774
B(  9-C , 13-C ) :   0.3849 B(  9-C , 15-C ) :   0.7261 B(  9-C , 19-H ) :  -0.1782
B(  9-C , 23-H ) :  -0.1042 B(  9-C , 25-H ) :  -0.1210 B( 10-C , 11-C ) :   0.4260
B( 10-C , 18-H ) :   0.8252 B( 11-C , 13-C ) :  -0.1994 B( 11-C , 17-C ) :  -0.1421
B( 11-C , 18-H ) :  -0.1054 B( 11-C , 19-H ) :   0.7726 B( 12-C , 20-H ) :   0.9444
B( 12-C , 21-H ) :   0.7781 B( 12-C , 22-H ) :   1.1173 B( 13-C , 15-C ) :  -0.1368
B( 13-C , 23-H ) :   1.0637 B( 13-C , 24-H ) :   0.7756 B( 13-C , 25-H ) :   1.0236

Dispersion correction           -0.057436321
FINAL SINGLE POINT ENERGY      -908.784162764679

DIPOLE MOMENT
-------------

Method             : TDA/CIS
Type of density    : Electron Density
Level              : Relaxed density
State              :   1
Multiplicity       :   3
Irrep              :   0
Energy             :     0.0000000000000000 Eh
Relativity type    :
Basis              : AO
                                X                 Y                 Z
Electronic contribution:     -9.844724902      -4.258118314      -1.941051374
Nuclear contribution   :     11.469157092       4.880582174       3.580716088
                        -----------------------------------------
Total Dipole Moment    :      1.624432190       0.622463861       1.639664714
                        -----------------------------------------
Magnitude (a.u.)       :      2.390552566
Magnitude (Debye)      :      6.076301732

Rotational constants in cm-1:             0.023460             0.010860             0.010233
Rotational constants in MHz :           703.316614           325.586562           306.786911

                             ****ORCA TERMINATED NORMALLY****
TOTAL RUN TIME: 0 days 0 hours 5 minutes 2 seconds 91 msec
