                         Program Version 6.0.0  -   RELEASE  -
|  1> ! Engrad def2-TZVPPD wB97M-D3BJ
|  2> %pal nprocs 8 end%pal nprocs 64 end
|  3> %tddft Nroots 2 Iroot 2
|  4> sf true
|  5> end
|  6> *xyz 0 3
|  7> O   2.66831999 1.16582403 -0.5371762
|  8> O   -0.52753212 0.87735565 -2.29952226
|  9> O   0.65273419 -2.83798641 -1.47469871
| 10> O   -2.57501413 -1.65636845 0.97986665
| 11> N   0.64269332 -2.10000022 0.65519568
| 12> N   -2.10136122 0.56707991 1.4594119
| 13> N   1.71829485 -0.88093903 -0.98924229
| 14> N   -1.6527362 -0.32052186 -0.67635817
| 15> C   1.43763987 0.11024212 1.21004833
| 16> C   -0.80651558 1.88222853 -0.13592568
| 17> C   0.74199026 -1.05908266 1.5592537
| 18> C   -1.44218804 1.7050297 1.09840293
| 19> C   1.72021858 1.18189484 2.18060209
| 20> C   -0.1292874 3.09710888 -0.56536334
| 21> C   1.98495005 0.22282054 -0.16167467
| 22> C   -0.94904239 0.8108782 -1.14112938
| 23> C   0.9348514 -1.97835485 -0.6863516
| 24> C   -2.15988933 -0.55376955 0.61947137
| 25> H   0.32155722 -1.2590384 2.50725808
| 26> H   -1.35885337 2.41201448 1.89335616
| 27> H   1.61636911 2.14740471 1.72252951
| 28> H   1.02353847 1.07442164 3.01938231
| 29> H   2.72913537 1.08606787 2.59512219
| 30> H   -0.51602154 3.43649932 -1.52711495
| 31> H   -0.19191203 3.88610263 0.1950138
| 32> H   0.93160398 2.8400667 -0.71263236
| 33> H   -0.04217271 -2.815943 0.8120185
| 34> H   -2.45131449 0.35400937 2.40091957
| 35> H   1.89179168 -0.77897978 -1.9709508
| 36> H   -1.7417226 -1.11315043 -1.28683993
| 37> *
| 38>
| 39>                          ****END OF INPUT****

CARTESIAN COORDINATES (ANGSTROEM)
---------------------------------
  O      2.668320    1.165824   -0.537176
  O     -0.527532    0.877356   -2.299522
  O      0.652734   -2.837986   -1.474699
  O     -2.575014   -1.656368    0.979867
  N      0.642693   -2.100000    0.655196
  N     -2.101361    0.567080    1.459412
  N      1.718295   -0.880939   -0.989242
  N     -1.652736   -0.320522   -0.676358
  C      1.437640    0.110242    1.210048
  C     -0.806516    1.882229   -0.135926
  C      0.741990   -1.059083    1.559254
  C     -1.442188    1.705030    1.098403
  C      1.720219    1.181895    2.180602
  C     -0.129287    3.097109   -0.565363
  C      1.984950    0.222821   -0.161675
  C     -0.949042    0.810878   -1.141129
  C      0.934851   -1.978355   -0.686352
  C     -2.159889   -0.553770    0.619471
  H      0.321557   -1.259038    2.507258
  H     -1.358853    2.412014    1.893356
  H      1.616369    2.147405    1.722530
  H      1.023538    1.074422    3.019382
  H      2.729135    1.086068    2.595122
  H     -0.516022    3.436499   -1.527115
  H     -0.191912    3.886103    0.195014
  H      0.931604    2.840067   -0.712632
  H     -0.042173   -2.815943    0.812018
  H     -2.451314    0.354009    2.400920
  H      1.891792   -0.778980   -1.970951
  H     -1.741723   -1.113150   -1.286840

 Total Charge           Charge          ....    0
 Multiplicity           Mult            ....    3
 Number of Electrons    NEL             ....  132
 Basis Dimension        Dim             ....  882

ORBITAL ENERGIES
----------------
                 SPIN UP ORBITALS
  NO   OCC          E(Eh)            E(eV)
   0   1.0000     -19.339156      -526.2452
   1   1.0000     -19.330324      -526.0049
   2   1.0000     -19.326850      -525.9103
   3   1.0000     -19.322860      -525.8018
   4   1.0000     -14.596115      -397.1805
   5   1.0000     -14.583210      -396.8293
   6   1.0000     -14.577566      -396.6757
   7   1.0000     -14.550119      -395.9289
   8   1.0000     -10.527600      -286.4706
   9   1.0000     -10.505048      -285.8569
  10   1.0000     -10.486231      -285.3448
  11   1.0000     -10.466207      -284.8000
  12   1.0000     -10.443133      -284.1721
  13   1.0000     -10.412004      -283.3250
  14   1.0000     -10.400476      -283.0114
  15   1.0000     -10.390889      -282.7505
  16   1.0000     -10.370213      -282.1878
  17   1.0000     -10.350631      -281.6550
  18   1.0000      -1.227730       -33.4082
  19   1.0000      -1.220001       -33.1979
  20   1.0000      -1.186153       -32.2769
  21   1.0000      -1.182719       -32.1834
  22   1.0000      -1.123493       -30.5718
  23   1.0000      -1.118369       -30.4324
  24   1.0000      -1.068698       -29.0808
  25   1.0000      -1.059317       -28.8255
  26   1.0000      -0.967548       -26.3283
  27   1.0000      -0.953106       -25.9353
  28   1.0000      -0.855689       -23.2845
  29   1.0000      -0.851423       -23.1684
  30   1.0000      -0.810760       -22.0619
  31   1.0000      -0.806980       -21.9590
  32   1.0000      -0.790961       -21.5231
  33   1.0000      -0.782499       -21.2929
  34   1.0000      -0.696939       -18.9647
  35   1.0000      -0.691416       -18.8144
  36   1.0000      -0.685687       -18.6585
  37   1.0000      -0.685447       -18.6520
  38   1.0000      -0.645376       -17.5616
  39   1.0000      -0.639200       -17.3935
  40   1.0000      -0.629201       -17.1214
  41   1.0000      -0.599985       -16.3264
  42   1.0000      -0.596647       -16.2356
  43   1.0000      -0.593039       -16.1374
  44   1.0000      -0.577511       -15.7149
  45   1.0000      -0.569392       -15.4939
  46   1.0000      -0.566480       -15.4147
  47   1.0000      -0.555520       -15.1165
  48   1.0000      -0.551359       -15.0033
  49   1.0000      -0.550553       -14.9813
  50   1.0000      -0.533070       -14.5056
  51   1.0000      -0.525585       -14.3019
  52   1.0000      -0.518757       -14.1161
  53   1.0000      -0.514755       -14.0072
  54   1.0000      -0.507701       -13.8153
  55   1.0000      -0.495181       -13.4746
  56   1.0000      -0.488851       -13.3023
  57   1.0000      -0.479949       -13.0601
  58   1.0000      -0.425761       -11.5856
  59   1.0000      -0.419822       -11.4239
  60   1.0000      -0.407297       -11.0831
  61   1.0000      -0.401381       -10.9221
  62   1.0000      -0.389330       -10.5942
  63   1.0000      -0.387551       -10.5458
  64   1.0000      -0.381193       -10.3728
  65   1.0000      -0.341323        -9.2879
  66   1.0000      -0.219204        -5.9648
  67   0.0000       0.008198         0.2231
  68   0.0000       0.010633         0.2893
  69   0.0000       0.033100         0.9007
  70   0.0000       0.037830         1.0294
  71   0.0000       0.041028         1.1164

                 SPIN DOWN ORBITALS
  NO   OCC          E(Eh)            E(eV)
   0   1.0000     -19.339117      -526.2441
   1   1.0000     -19.328519      -525.9557
   2   1.0000     -19.326976      -525.9138
   3   1.0000     -19.317105      -525.6451
   4   1.0000     -14.595740      -397.1703
   5   1.0000     -14.578518      -396.7017
   6   1.0000     -14.577575      -396.6760
   7   1.0000     -14.549285      -395.9062
   8   1.0000     -10.527608      -286.4708
   9   1.0000     -10.505297      -285.8637
  10   1.0000     -10.486207      -285.3442
  11   1.0000     -10.466238      -284.8008
  12   1.0000     -10.442569      -284.1567
  13   1.0000     -10.402044      -283.0540
  14   1.0000     -10.390990      -282.7532
  15   1.0000     -10.389798      -282.7208
  16   1.0000     -10.370715      -282.2015
  17   1.0000     -10.350596      -281.6540
  18   1.0000      -1.224223       -33.3128
  19   1.0000      -1.219567       -33.1861
  20   1.0000      -1.183549       -32.2060
  21   1.0000      -1.176814       -32.0227
  22   1.0000      -1.122918       -30.5561
  23   1.0000      -1.108188       -30.1553
  24   1.0000      -1.068577       -29.0775
  25   1.0000      -1.054187       -28.6859
  26   1.0000      -0.954732       -25.9796
  27   1.0000      -0.943344       -25.6697
  28   1.0000      -0.851096       -23.1595
  29   1.0000      -0.842437       -22.9239
  30   1.0000      -0.809506       -22.0278
  31   1.0000      -0.795701       -21.6521
  32   1.0000      -0.790649       -21.5147
  33   1.0000      -0.777329       -21.1522
  34   1.0000      -0.696550       -18.9541
  35   1.0000      -0.685668       -18.6580
  36   1.0000      -0.681019       -18.5315
  37   1.0000      -0.675538       -18.3823
  38   1.0000      -0.645003       -17.5514
  39   1.0000      -0.628944       -17.1144
  40   1.0000      -0.621673       -16.9166
  41   1.0000      -0.599795       -16.3213
  42   1.0000      -0.588058       -16.0019
  43   1.0000      -0.585718       -15.9382
  44   1.0000      -0.569802       -15.5051
  45   1.0000      -0.563445       -15.3321
  46   1.0000      -0.560244       -15.2450
  47   1.0000      -0.551145       -14.9974
  48   1.0000      -0.547192       -14.8899
  49   1.0000      -0.543035       -14.7767
  50   1.0000      -0.524245       -14.2654
  51   1.0000      -0.523787       -14.2530
  52   1.0000      -0.513050       -13.9608
  53   1.0000      -0.505256       -13.7487
  54   1.0000      -0.499511       -13.5924
  55   1.0000      -0.493455       -13.4276
  56   1.0000      -0.478610       -13.0236
  57   1.0000      -0.442301       -12.0356
  58   1.0000      -0.425422       -11.5763
  59   1.0000      -0.414999       -11.2927
  60   1.0000      -0.405593       -11.0367
  61   1.0000      -0.389385       -10.5957
  62   1.0000      -0.381945       -10.3933
  63   1.0000      -0.378672       -10.3042
  64   1.0000      -0.340557        -9.2670
  65   0.0000      -0.096632        -2.6295
  66   0.0000       0.008575         0.2334
  67   0.0000       0.011401         0.3102
  68   0.0000       0.031007         0.8437
  69   0.0000       0.034713         0.9446

----------------------------------------------------------------------------------------------------
          SPIN FLIP ABSORPTION SPECTRUM VIA TRANSITION ELECTRIC DIPOLE MOMENTS
----------------------------------------------------------------------------------------------------
     Transition      Energy     Energy  Wavelength fosc(D2)      D2        DX        DY        DZ
                      (eV)      (cm-1)    (nm)                 (au**2)    (au)      (au)      (au)
----------------------------------------------------------------------------------------------------
  1-3A  ->  2-3A    3.708247   29909.0   334.3   0.000990277   0.01090  -0.05227  -0.04396   0.07897

Dispersion correction             ... done (  0.1 sec)

MULLIKEN ATOMIC CHARGES AND SPIN DENSITIES
------------------------------------------
   0 O :   -0.691875    0.003845
   1 O :   -0.678710    0.000036
   2 O :   -0.605535    0.002619
   3 O :   -0.653053    0.000456
   4 N :   -0.020457    0.022857
   5 N :   -0.035969   -0.003911
   6 N :    0.003905   -0.009146
   7 N :    0.054720   -0.002582
   8 C :    1.329650    0.085801
   9 C :    0.643917    0.009525
  10 C :   -0.374316    0.014909
  11 C :   -0.111251   -0.011370
  12 C :   -1.446722   -0.022141
  13 C :   -1.319455    0.007373
  14 C :    0.079647   -0.090302
  15 C :    0.571280   -0.004333
  16 C :    0.404260    0.003603
  17 C :    0.372437   -0.002568
  18 H :    0.193291   -0.019491
  19 H :    0.182178   -0.002551
  20 H :    0.262392    0.002771
  21 H :    0.339928    0.001664
  22 H :    0.390454    0.011785
  23 H :    0.335418   -0.000127
  24 H :    0.317225    0.000402
  25 H :    0.204339   -0.001907
  26 H :    0.089802   -0.000440
  27 H :    0.095074    0.002000
  28 H :    0.033517    0.001679
  29 H :    0.033907   -0.000452
Sum of atomic charges       :   -0.0000000

LOEWDIN ATOMIC CHARGES AND SPIN DENSITIES
-----------------------------------------
   0 O :    0.059822    0.002651
   1 O :    0.078405    0.000145
   2 O :    0.120981    0.001733
   3 O :    0.053335   -0.000116
   4 N :    0.300083    0.018732
   5 N :    0.256589   -0.002541
   6 N :    0.322323   -0.005621
   7 N :    0.342422   -0.000351
   8 C :   -0.084911    0.005712
   9 C :   -0.137927    0.000550
  10 C :    0.037324   -0.008350
  11 C :    0.064913   -0.001638
  12 C :    0.186419    0.001068
  13 C :    0.158923    0.000265
  14 C :   -0.413694   -0.006973
  15 C :   -0.373565   -0.000008
  16 C :   -0.491912   -0.001991
  17 C :   -0.436952   -0.000388
  18 H :   -0.018305   -0.005036
  19 H :    0.021762   -0.000331
  20 H :   -0.013320    0.000494
  21 H :   -0.000054   -0.000169
  22 H :    0.022369    0.000954
  23 H :    0.007692    0.000071
  24 H :    0.006920   -0.000014
  25 H :   -0.008470    0.000049
  26 H :   -0.021624    0.001921
  27 H :    0.003582   -0.000187
  28 H :   -0.020669   -0.000601
  29 H :   -0.022462   -0.000031

  Mayer bond orders larger than 0.100000
B(  0-O , 14-C ) :   1.2926 B(  1-O , 15-C ) :   1.3686 B(  2-O , 16-C ) :   1.5479
B(  3-O , 17-C ) :   1.5329 B(  4-N , 10-C ) :   0.8190 B(  4-N , 16-C ) :   0.9458
B(  4-N , 26-H ) :   1.0591 B(  5-N , 11-C ) :   0.9816 B(  5-N , 17-C ) :   1.0467
B(  5-N , 27-H ) :   1.0816 B(  6-N , 14-C ) :   0.8830 B(  6-N , 16-C ) :   0.9021
B(  6-N , 28-H ) :   1.1031 B(  7-N , 15-C ) :   0.9668 B(  7-N , 17-C ) :   0.9304
B(  7-N , 29-H ) :   1.1129 B(  8-C , 10-C ) :   0.4130 B(  8-C , 12-C ) :   0.3037
B(  8-C , 14-C ) :   0.7758 B(  8-C , 21-H ) :  -0.1252 B(  9-C , 11-C ) :   1.1213
B(  9-C , 13-C ) :   0.3638 B(  9-C , 15-C ) :   0.7602 B(  9-C , 24-H ) :  -0.1174
B(  9-C , 25-H ) :  -0.1128 B( 10-C , 18-H ) :   1.1227 B( 11-C , 19-H ) :   1.0805
B( 12-C , 20-H ) :   1.0275 B( 12-C , 21-H ) :   1.0098 B( 12-C , 22-H ) :   0.8003
B( 13-C , 23-H ) :   0.8823 B( 13-C , 24-H ) :   1.0417 B( 13-C , 25-H ) :   1.0127

Dispersion correction           -0.059674852
FINAL SINGLE POINT ENERGY      -908.768806141575

DIPOLE MOMENT
-------------

Method             : TDA/CIS
Type of density    : Electron Density
Level              : Relaxed density
State              :   2
Multiplicity       :   3
Irrep              :   0
Energy             :     0.0000000000000000 Eh
Relativity type    :
Basis              : AO
                                X                 Y                 Z
Electronic contribution:     -2.793777413      -9.655227798      -5.970903943
Nuclear contribution   :      1.971015820      10.569534280       8.533416178
                        -----------------------------------------
Total Dipole Moment    :     -0.822761594       0.914306483       2.562512235
                        -----------------------------------------
Magnitude (a.u.)       :      2.842421844
Magnitude (Debye)      :      7.224862158

Rotational constants in cm-1:             0.016991             0.016403             0.013272
Rotational constants in MHz :           509.367378           491.757363           397.883366

                             ****ORCA TERMINATED NORMALLY****
TOTAL RUN TIME: 0 days 0 hours 5 minutes 41 seconds 608 msec
