                         Program Version 6.0.0  -   RELEASE  -
|  1> ! Engrad wB97M-D3BJ def2-TZVPPD
|  2> %pal nprocs 8 end%pal nprocs 16 end
|  3> %tddft nroots 2 Iroot 1
|  4>  sf true
|  5> end
|  6> *xyz 0 3
|  7> O   0.9287337909972 1.01247995959395 0.01318576077538
|  8> C   0.78511620085727 -0.32065191429609 0.00070194859159
|  9> C   -0.63696583225654 -0.60068717856703 0.00050488425369
| 10> H   1.25614862340876 -0.8057437489986 0.87225920860729
| 11> H   1.25176293865439 -0.7847172840951 -0.88389544123944
| 12> H   -1.20267785838058 -0.55866430747952 -0.92279530333975
| 13> H   -1.20333358344673 -0.51201761458352 0.92003894235124
| 14> *
| 15>
| 16>                          ****END OF INPUT****

CARTESIAN COORDINATES (ANGSTROEM)
---------------------------------
  O      0.928734    1.012480    0.013186
  C      0.785116   -0.320652    0.000702
  C     -0.636966   -0.600687    0.000505
  H      1.256149   -0.805744    0.872259
  H      1.251763   -0.784717   -0.883895
  H     -1.202678   -0.558664   -0.922795
  H     -1.203334   -0.512018    0.920039

 Total Charge           Charge          ....    0
 Multiplicity           Mult            ....    3
 Number of Electrons    NEL             ....   24
 Basis Dimension        Dim             ....  182

ORBITAL ENERGIES
----------------
                 SPIN UP ORBITALS
  NO   OCC          E(Eh)            E(eV)
   0   1.0000     -19.392507      -527.6969
   1   1.0000     -10.407883      -283.2129
   2   1.0000     -10.356391      -281.8117
   3   1.0000      -1.186572       -32.2883
   4   1.0000      -0.878397       -23.9024
   5   1.0000      -0.733912       -19.9708
   6   1.0000      -0.631363       -17.1803
   7   1.0000      -0.588957       -16.0263
   8   1.0000      -0.557710       -15.1761
   9   1.0000      -0.517961       -14.0944
  10   1.0000      -0.435051       -11.8383
  11   1.0000      -0.418487       -11.3876
  12   1.0000      -0.321714        -8.7543
  13   0.0000       0.040971         1.1149
  14   0.0000       0.063027         1.7150
  15   0.0000       0.074182         2.0186
  16   0.0000       0.087412         2.3786
  17   0.0000       0.116729         3.1764

                 SPIN DOWN ORBITALS
  NO   OCC          E(Eh)            E(eV)
   0   1.0000     -19.367427      -527.0145
   1   1.0000     -10.409231      -283.2496
   2   1.0000     -10.343503      -281.4610
   3   1.0000      -1.131391       -30.7867
   4   1.0000      -0.844941       -22.9920
   5   1.0000      -0.709317       -19.3015
   6   1.0000      -0.593803       -16.1582
   7   1.0000      -0.557347       -15.1662
   8   1.0000      -0.535620       -14.5750
   9   1.0000      -0.479210       -13.0400
  10   1.0000      -0.382866       -10.4183
  11   0.0000      -0.062644        -1.7046
  12   0.0000       0.002599         0.0707
  13   0.0000       0.039933         1.0866
  14   0.0000       0.063602         1.7307
  15   0.0000       0.073860         2.0098

----------------------------------------------------------------------------------------------------
          SPIN FLIP ABSORPTION SPECTRUM VIA TRANSITION ELECTRIC DIPOLE MOMENTS
----------------------------------------------------------------------------------------------------
     Transition      Energy     Energy  Wavelength fosc(D2)      D2        DX        DY        DZ
                      (eV)      (cm-1)    (nm)                 (au**2)    (au)      (au)      (au)
----------------------------------------------------------------------------------------------------
  1-3A  ->  2-3A    0.664795    5361.9  1865.0   0.000071077   0.00436   0.00055   0.00170   0.06604

Dispersion correction             ... done (  0.0 sec)

MULLIKEN ATOMIC CHARGES AND SPIN DENSITIES
------------------------------------------
   0 O :   -0.493234   -0.501948
   1 C :   -0.096015   -0.032084
   2 C :   -0.342519    0.368833
   3 H :    0.219617    0.050490
   4 H :    0.218974    0.036782
   5 H :    0.244192    0.038077
   6 H :    0.248986    0.039850
Sum of atomic charges       :    0.0000000

LOEWDIN ATOMIC CHARGES AND SPIN DENSITIES
-----------------------------------------
   0 O :   -0.031095   -0.501404
   1 C :   -0.384733    0.032459
   2 C :    0.385506    0.367151
   3 H :    0.028502    0.013340
   4 H :    0.025641    0.004686
   5 H :   -0.011729    0.041808
   6 H :   -0.012092    0.041960

  Mayer bond orders larger than 0.100000
B(  0-O ,  1-C ) :   0.8445 B(  0-O ,  2-C ) :   0.5949 B(  1-C ,  2-C ) :   0.7527
B(  1-C ,  3-H ) :   1.0110 B(  1-C ,  4-H ) :   1.0168 B(  2-C ,  5-H ) :   0.9453
B(  2-C ,  6-H ) :   0.9461

Dispersion correction           -0.005609101
FINAL SINGLE POINT ENERGY      -153.770075613832

DIPOLE MOMENT
-------------

Method             : TDA/CIS
Type of density    : Electron Density
Level              : Relaxed density
State              :   1
Multiplicity       :   3
Irrep              :   0
Energy             :     0.0000000000000000 Eh
Relativity type    :
Basis              : AO
                                X                 Y                 Z
Electronic contribution:      0.492466642       1.400918420       0.024376167
Nuclear contribution   :     -1.322382717      -2.691178921      -0.031348325
                        -----------------------------------------
Total Dipole Moment    :     -0.829916074      -1.290260501      -0.006972158
                        -----------------------------------------
Magnitude (a.u.)       :      1.534138671
Magnitude (Debye)      :      3.899470606

Rotational constants in cm-1:             1.296656             0.391841             0.340609
Rotational constants in MHz :         38872.763668         11747.090612         10211.192128

                             ****ORCA TERMINATED NORMALLY****
TOTAL RUN TIME: 0 days 0 hours 0 minutes 19 seconds 136 msec
