                         Program Version 6.0.0  -   RELEASE  -
|  1> ! EnGrad wB97M-D3BJ def2-TZVPPD
|  2> %pal nprocs 8 end%pal nprocs 16 end
|  3> %tddft
|  4>  sf true
|  5>  nroots 2 Iroot 2 end
|  6> *xyz 0 3
|  7> O   0.2896066527424 0.98027523078797 -0.00212569158538
|  8> C   0.63817422847879 -0.31455084851652 -0.00045147268031
|  9> C   -0.73724058636323 -0.68481155204023 0.00053101917996
| 10> H   1.19528342074619 -0.63895380803123 0.88758983179522
| 11> H   1.19564420950279 -0.64101525033842 -0.88744164956433
| 12> H   -1.29026872436151 -0.71119951514302 -0.9256160444223
| 13> H   -1.28899920074543 -0.70814425671855 0.92751400727713
| 14> *
| 15>
| 16>                          ****END OF INPUT****

CARTESIAN COORDINATES (ANGSTROEM)
---------------------------------
  O      0.289607    0.980275   -0.002126
  C      0.638174   -0.314551   -0.000451
  C     -0.737241   -0.684812    0.000531
  H      1.195283   -0.638954    0.887590
  H      1.195644   -0.641015   -0.887442
  H     -1.290269   -0.711200   -0.925616
  H     -1.288999   -0.708144    0.927514

 Total Charge           Charge          ....    0
 Multiplicity           Mult            ....    3
 Number of Electrons    NEL             ....   24
 Basis Dimension        Dim             ....  182

ORBITAL ENERGIES
----------------
                 SPIN UP ORBITALS
  NO   OCC          E(Eh)            E(eV)
   0   1.0000     -19.407642      -528.1088
   1   1.0000     -10.406973      -283.1881
   2   1.0000     -10.339657      -281.3564
   3   1.0000      -1.212820       -33.0025
   4   1.0000      -0.867037       -23.5933
   5   1.0000      -0.740490       -20.1498
   6   1.0000      -0.644468       -17.5369
   7   1.0000      -0.606956       -16.5161
   8   1.0000      -0.551099       -14.9962
   9   1.0000      -0.506910       -13.7937
  10   1.0000      -0.451796       -12.2940
  11   1.0000      -0.437425       -11.9029
  12   1.0000      -0.273902        -7.4532
  13   0.0000       0.040947         1.1142
  14   0.0000       0.063699         1.7333
  15   0.0000       0.072900         1.9837
  16   0.0000       0.085987         2.3398
  17   0.0000       0.116830         3.1791

                 SPIN DOWN ORBITALS
  NO   OCC          E(Eh)            E(eV)
   0   1.0000     -19.379403      -527.3404
   1   1.0000     -10.408153      -283.2202
   2   1.0000     -10.327031      -281.0128
   3   1.0000      -1.152789       -31.3690
   4   1.0000      -0.832830       -22.6625
   5   1.0000      -0.718986       -19.5646
   6   1.0000      -0.601797       -16.3757
   7   1.0000      -0.570660       -15.5284
   8   1.0000      -0.527588       -14.3564
   9   1.0000      -0.473652       -12.8887
  10   1.0000      -0.390020       -10.6130
  11   0.0000      -0.074791        -2.0352
  12   0.0000       0.031137         0.8473
  13   0.0000       0.039466         1.0739
  14   0.0000       0.064190         1.7467
  15   0.0000       0.071661         1.9500

----------------------------------------------------------------------------------------------------
          SPIN FLIP ABSORPTION SPECTRUM VIA TRANSITION ELECTRIC DIPOLE MOMENTS
----------------------------------------------------------------------------------------------------
     Transition      Energy     Energy  Wavelength fosc(D2)      D2        DX        DY        DZ
                      (eV)      (cm-1)    (nm)                 (au**2)    (au)      (au)      (au)
----------------------------------------------------------------------------------------------------
  1-3A  ->  2-3A    2.385919   19243.7   519.6   0.000741976   0.01269   0.00043   0.00061   0.11266

Dispersion correction             ... done (  0.0 sec)

MULLIKEN ATOMIC CHARGES AND SPIN DENSITIES
------------------------------------------
   0 O :   -0.304452    0.734317
   1 C :    0.108421    0.240408
   2 C :   -0.461241   -0.770173
   3 H :    0.206953    0.021725
   4 H :    0.207129    0.022149
   5 H :    0.121358   -0.124355
   6 H :    0.121833   -0.124072
Sum of atomic charges       :    0.0000000

LOEWDIN ATOMIC CHARGES AND SPIN DENSITIES
-----------------------------------------
   0 O :    0.107801    0.671995
   1 C :   -0.249008    0.045547
   2 C :    0.197103   -0.598615
   3 H :    0.040509    0.028779
   4 H :    0.040683    0.029094
   5 H :   -0.068547   -0.088433
   6 H :   -0.068540   -0.088367

  Mayer bond orders larger than 0.100000
B(  0-O ,  1-C ) :   0.8563 B(  0-O ,  2-C ) :   0.2381 B(  1-C ,  2-C ) :   0.6120
B(  1-C ,  3-H ) :   0.9826 B(  1-C ,  4-H ) :   0.9819 B(  2-C ,  5-H ) :   1.1172
B(  2-C ,  6-H ) :   1.1169

Dispersion correction           -0.005652321
FINAL SINGLE POINT ENERGY      -153.720047498453

DIPOLE MOMENT
-------------

Method             : TDA/CIS
Type of density    : Electron Density
Level              : Relaxed density
State              :   2
Multiplicity       :   3
Irrep              :   0
Energy             :     0.0000000000000000 Eh
Relativity type    :
Basis              : AO
                                X                 Y                 Z
Electronic contribution:      0.889871232       2.402049702      -0.004962061
Nuclear contribution   :     -0.450674468      -2.599964435       0.004538615
                        -----------------------------------------
Total Dipole Moment    :      0.439196763      -0.197914733      -0.000423446
                        -----------------------------------------
Magnitude (a.u.)       :      0.481730441
Magnitude (Debye)      :      1.224461471

Rotational constants in cm-1:             1.061793             0.502734             0.394137
Rotational constants in MHz :         31831.751728         15071.589359         11815.939671

                             ****ORCA TERMINATED NORMALLY****
TOTAL RUN TIME: 0 days 0 hours 0 minutes 17 seconds 129 msec
