                         Program Version 6.0.0  -   RELEASE  -
|  1> ! Engrad def2-TZVPPD wB97M-D3BJ
|  2> %pal nprocs 8 end%pal nprocs 64 end
|  3> %tddft
|  4>  Iroot 2 Nroots 3
|  5> sf true
|  6> end
|  7> *xyz 0 3
|  8> O   -0.25007423 0.9991893 0.36975687
|  9> C   0.52983574 -0.09212609 0.5265652
| 10> C   1.03730586 -0.77109718 -0.74507272
| 11> H   0.04642264 -0.76368858 1.24800191
| 12> H   1.34627088 0.14101987 1.17995902
| 13> H   0.71657717 -1.86393815 -0.98543743
| 14> H   1.56785429 -0.14102615 -1.4204012
| 15> *
| 16>
| 17>                          ****END OF INPUT****

CARTESIAN COORDINATES (ANGSTROEM)
---------------------------------
  O     -0.250074    0.999189    0.369757
  C      0.529836   -0.092126    0.526565
  C      1.037306   -0.771097   -0.745073
  H      0.046423   -0.763689    1.248002
  H      1.346271    0.141020    1.179959
  H      0.716577   -1.863938   -0.985437
  H      1.567854   -0.141026   -1.420401

 Total Charge           Charge          ....    0
 Multiplicity           Mult            ....    3
 Number of Electrons    NEL             ....   24
 Basis Dimension        Dim             ....  182

ORBITAL ENERGIES
----------------
                 SPIN UP ORBITALS
  NO   OCC          E(Eh)            E(eV)
   0   1.0000     -19.386106      -527.5228
   1   1.0000     -10.411208      -283.3034
   2   1.0000     -10.377183      -282.3775
   3   1.0000      -1.172362       -31.9016
   4   1.0000      -0.868329       -23.6284
   5   1.0000      -0.743139       -20.2218
   6   1.0000      -0.611210       -16.6319
   7   1.0000      -0.583818       -15.8865
   8   1.0000      -0.549410       -14.9502
   9   1.0000      -0.523474       -14.2445
  10   1.0000      -0.427686       -11.6379
  11   1.0000      -0.411778       -11.2050
  12   1.0000      -0.329229        -8.9588
  13   0.0000       0.039648         1.0789
  14   0.0000       0.060012         1.6330
  15   0.0000       0.077585         2.1112
  16   0.0000       0.087639         2.3848
  17   0.0000       0.112961         3.0738

                 SPIN DOWN ORBITALS
  NO   OCC          E(Eh)            E(eV)
   0   1.0000     -19.362726      -526.8866
   1   1.0000     -10.412430      -283.3366
   2   1.0000     -10.363881      -282.0155
   3   1.0000      -1.120638       -30.4941
   4   1.0000      -0.835736       -22.7415
   5   1.0000      -0.715421       -19.4676
   6   1.0000      -0.574338       -15.6285
   7   1.0000      -0.552131       -15.0242
   8   1.0000      -0.529030       -14.3956
   9   1.0000      -0.488871       -13.3029
  10   1.0000      -0.381817       -10.3898
  11   0.0000      -0.053238        -1.4487
  12   0.0000      -0.002548        -0.0693
  13   0.0000       0.038865         1.0576
  14   0.0000       0.060465         1.6453
  15   0.0000       0.077631         2.1125

----------------------------------------------------------------------------------------------------
          SPIN FLIP ABSORPTION SPECTRUM VIA TRANSITION ELECTRIC DIPOLE MOMENTS
----------------------------------------------------------------------------------------------------
     Transition      Energy     Energy  Wavelength fosc(D2)      D2        DX        DY        DZ
                      (eV)      (cm-1)    (nm)                 (au**2)    (au)      (au)      (au)
----------------------------------------------------------------------------------------------------
  1-3A  ->  2-3A    0.183286    1478.3  6764.5   0.000555253   0.12365   0.11528  -0.23549  -0.23432
  1-3A  ->  3-3A    0.741350    5979.4  1672.4   0.003600637   0.19824  -0.22491   0.37306   0.09212

Dispersion correction             ... done (  0.1 sec)

MULLIKEN ATOMIC CHARGES AND SPIN DENSITIES
------------------------------------------
   0 O :   -0.359647   -0.097239
   1 C :   -0.001757    0.054575
   2 C :   -0.416500    0.069868
   3 H :    0.198596   -0.041124
   4 H :    0.166075    0.040270
   5 H :    0.189390   -0.013188
   6 H :    0.223843   -0.013162
Sum of atomic charges       :    0.0000000

LOEWDIN ATOMIC CHARGES AND SPIN DENSITIES
-----------------------------------------
   0 O :    0.043685   -0.093482
   1 C :   -0.290462    0.004486
   2 C :    0.310231    0.076196
   3 H :    0.013051   -0.032368
   4 H :    0.003650    0.036198
   5 H :    0.000445    0.003515
   6 H :   -0.080600    0.005453

  Mayer bond orders larger than 0.100000
B(  0-O ,  1-C ) :   0.9270 B(  0-O ,  2-C ) :   0.1707 B(  1-C ,  2-C ) :   0.7718
B(  1-C ,  3-H ) :   0.9962 B(  1-C ,  4-H ) :   0.9515 B(  2-C ,  5-H ) :   0.9819
B(  2-C ,  6-H ) :   0.9755

Dispersion correction           -0.005435946
FINAL SINGLE POINT ENERGY      -153.741085332864

DIPOLE MOMENT
-------------

Method             : TDA/CIS
Type of density    : Electron Density
Level              : Relaxed density
State              :   2
Multiplicity       :   3
Irrep              :   0
Energy             :     0.0000000000000000 Eh
Relativity type    :
Basis              : AO
                                X                 Y                 Z
Electronic contribution:     -1.273978769       1.985430401       0.280496295
Nuclear contribution   :      1.861497932      -2.704337623      -0.257157555
                        -----------------------------------------
Total Dipole Moment    :      0.587519163      -0.718907222       0.023338740
                        -----------------------------------------
Magnitude (a.u.)       :      0.928736269
Magnitude (Debye)      :      2.360659991

Rotational constants in cm-1:             1.478795             0.333012             0.296939
Rotational constants in MHz :         44333.148223          9983.435555          8902.017701

                             ****ORCA TERMINATED NORMALLY****
TOTAL RUN TIME: 0 days 0 hours 0 minutes 26 seconds 192 msec
