                         Program Version 6.0.0  -   RELEASE  -
|  1> ! Engrad def2-TZVPPD wB97M-D3BJ
|  2> %pal nprocs 8 end%pal nprocs 64 end
|  3> %tddft
|  4>  Iroot 2 Nroots 3
|  5> sf true
|  6> end
|  7> *xyz 0 3
|  8> O   3.01893004 -0.94788021 -1.86102279
|  9> O   -1.74171311 1.1179233 -2.02005686
| 10> O   -1.02058796 -2.66108083 -0.77255236
| 11> O   -3.05204019 0.09334052 2.19367644
| 12> N   0.09336041 -1.52949246 0.77773678
| 13> N   -0.97206819 0.93922045 1.98523372
| 14> N   0.81292038 -1.47197646 -1.44897044
| 15> N   -2.43927937 0.76113073 0.12045985
| 16> C   2.13962851 -0.43106641 0.25228993
| 17> C   -0.23176257 1.56273318 -0.23366809
| 18> C   0.91736029 -0.3083396 1.09560454
| 19> C   0.17488847 1.12321844 1.08870404
| 20> C   3.41679932 0.17482823 0.63905711
| 21> C   0.81858746 2.24488187 -1.0609711
| 22> C   2.0418206 -0.94887807 -1.14304332
| 23> C   -1.51505067 1.10635993 -0.83137675
| 24> C   -0.10207735 -1.95483109 -0.51236868
| 25> C   -2.23348033 0.59040704 1.48741945
| 26> H   1.21827796 -0.23148964 2.16468469
| 27> H   0.82415215 1.8483963 1.59121463
| 28> H   4.28546938 -0.40253207 0.30061586
| 29> H   3.65676456 1.16164031 0.19310516
| 30> H   3.49731295 0.31859514 1.72153618
| 31> H   1.31900768 1.51441111 -1.64266147
| 32> H   0.50055464 2.99760706 -1.76601071
| 33> H   1.50577705 2.70477776 -0.32596306
| 34> H   -0.61344493 -1.85577607 1.31403154
| 35> H   -0.80700376 0.32250143 2.8023585
| 36> H   0.64941243 -1.87494585 -2.3430113
| 37> H   -3.30366572 0.41399139 -0.13563563
| 38> *
| 39>
| 40>                          ****END OF INPUT****

CARTESIAN COORDINATES (ANGSTROEM)
---------------------------------
  O      3.018930   -0.947880   -1.861023
  O     -1.741713    1.117923   -2.020057
  O     -1.020588   -2.661081   -0.772552
  O     -3.052040    0.093341    2.193676
  N      0.093360   -1.529492    0.777737
  N     -0.972068    0.939220    1.985234
  N      0.812920   -1.471976   -1.448970
  N     -2.439279    0.761131    0.120460
  C      2.139629   -0.431066    0.252290
  C     -0.231763    1.562733   -0.233668
  C      0.917360   -0.308340    1.095605
  C      0.174888    1.123218    1.088704
  C      3.416799    0.174828    0.639057
  C      0.818587    2.244882   -1.060971
  C      2.041821   -0.948878   -1.143043
  C     -1.515051    1.106360   -0.831377
  C     -0.102077   -1.954831   -0.512369
  C     -2.233480    0.590407    1.487419
  H      1.218278   -0.231490    2.164685
  H      0.824152    1.848396    1.591215
  H      4.285469   -0.402532    0.300616
  H      3.656765    1.161640    0.193105
  H      3.497313    0.318595    1.721536
  H      1.319008    1.514411   -1.642661
  H      0.500555    2.997607   -1.766011
  H      1.505777    2.704778   -0.325963
  H     -0.613445   -1.855776    1.314032
  H     -0.807004    0.322501    2.802358
  H      0.649412   -1.874946   -2.343011
  H     -3.303666    0.413991   -0.135636

 Total Charge           Charge          ....    0
 Multiplicity           Mult            ....    3
 Number of Electrons    NEL             ....  132
 Basis Dimension        Dim             ....  882

ORBITAL ENERGIES
----------------
                 SPIN UP ORBITALS
  NO   OCC          E(Eh)            E(eV)
   0   1.0000     -19.339627      -526.2580
   1   1.0000     -19.334003      -526.1050
   2   1.0000     -19.328966      -525.9679
   3   1.0000     -19.327409      -525.9255
   4   1.0000     -14.568493      -396.4289
   5   1.0000     -14.564394      -396.3173
   6   1.0000     -14.560947      -396.2235
   7   1.0000     -14.558868      -396.1669
   8   1.0000     -10.508984      -285.9640
   9   1.0000     -10.507399      -285.9209
  10   1.0000     -10.487212      -285.3715
  11   1.0000     -10.484953      -285.3101
  12   1.0000     -10.456469      -284.5350
  13   1.0000     -10.443846      -284.1915
  14   1.0000     -10.418562      -283.5035
  15   1.0000     -10.413687      -283.3708
  16   1.0000     -10.374367      -282.3009
  17   1.0000     -10.369829      -282.1774
  18   1.0000      -1.235104       -33.6089
  19   1.0000      -1.231948       -33.5230
  20   1.0000      -1.207000       -32.8441
  21   1.0000      -1.202836       -32.7308
  22   1.0000      -1.118492       -30.4357
  23   1.0000      -1.104250       -30.0482
  24   1.0000      -1.077802       -29.3285
  25   1.0000      -1.062304       -28.9068
  26   1.0000      -0.980963       -26.6934
  27   1.0000      -0.954678       -25.9781
  28   1.0000      -0.885457       -24.0945
  29   1.0000      -0.842015       -22.9124
  30   1.0000      -0.829541       -22.5730
  31   1.0000      -0.803764       -21.8715
  32   1.0000      -0.791786       -21.5456
  33   1.0000      -0.782731       -21.2992
  34   1.0000      -0.704849       -19.1799
  35   1.0000      -0.696341       -18.9484
  36   1.0000      -0.686286       -18.6748
  37   1.0000      -0.678314       -18.4579
  38   1.0000      -0.659385       -17.9428
  39   1.0000      -0.643002       -17.4970
  40   1.0000      -0.612468       -16.6661
  41   1.0000      -0.608373       -16.5547
  42   1.0000      -0.606432       -16.5019
  43   1.0000      -0.591872       -16.1056
  44   1.0000      -0.580760       -15.8033
  45   1.0000      -0.573632       -15.6093
  46   1.0000      -0.569798       -15.5050
  47   1.0000      -0.566848       -15.4247
  48   1.0000      -0.560147       -15.2424
  49   1.0000      -0.556582       -15.1454
  50   1.0000      -0.550081       -14.9685
  51   1.0000      -0.534623       -14.5478
  52   1.0000      -0.532446       -14.4886
  53   1.0000      -0.523970       -14.2579
  54   1.0000      -0.514078       -13.9888
  55   1.0000      -0.509096       -13.8532
  56   1.0000      -0.500784       -13.6270
  57   1.0000      -0.429704       -11.6928
  58   1.0000      -0.425738       -11.5849
  59   1.0000      -0.417084       -11.3494
  60   1.0000      -0.410050       -11.1580
  61   1.0000      -0.405595       -11.0368
  62   1.0000      -0.401970       -10.9382
  63   1.0000      -0.395861       -10.7719
  64   1.0000      -0.389749       -10.6056
  65   1.0000      -0.350407        -9.5351
  66   1.0000      -0.317281        -8.6337
  67   0.0000       0.009932         0.2703
  68   0.0000       0.030454         0.8287
  69   0.0000       0.035611         0.9690
  70   0.0000       0.036568         0.9951
  71   0.0000       0.055341         1.5059

                 SPIN DOWN ORBITALS
  NO   OCC          E(Eh)            E(eV)
   0   1.0000     -19.336005      -526.1594
   1   1.0000     -19.330883      -526.0201
   2   1.0000     -19.328903      -525.9662
   3   1.0000     -19.327178      -525.9192
   4   1.0000     -14.568011      -396.4157
   5   1.0000     -14.563661      -396.2974
   6   1.0000     -14.560547      -396.2126
   7   1.0000     -14.558581      -396.1591
   8   1.0000     -10.509043      -285.9656
   9   1.0000     -10.507434      -285.9218
  10   1.0000     -10.488112      -285.3960
  11   1.0000     -10.485856      -285.3346
  12   1.0000     -10.455607      -284.5115
  13   1.0000     -10.443583      -284.1843
  14   1.0000     -10.407017      -283.1893
  15   1.0000     -10.402056      -283.0543
  16   1.0000     -10.375038      -282.3191
  17   1.0000     -10.370314      -282.1906
  18   1.0000      -1.234225       -33.5850
  19   1.0000      -1.231225       -33.5033
  20   1.0000      -1.202163       -32.7125
  21   1.0000      -1.198650       -32.6169
  22   1.0000      -1.115721       -30.3603
  23   1.0000      -1.102020       -29.9875
  24   1.0000      -1.075941       -29.2778
  25   1.0000      -1.060927       -28.8693
  26   1.0000      -0.967983       -26.3402
  27   1.0000      -0.937436       -25.5089
  28   1.0000      -0.879543       -23.9336
  29   1.0000      -0.836678       -22.7672
  30   1.0000      -0.821947       -22.3663
  31   1.0000      -0.799824       -21.7643
  32   1.0000      -0.790255       -21.5039
  33   1.0000      -0.780686       -21.2435
  34   1.0000      -0.697276       -18.9738
  35   1.0000      -0.690025       -18.7765
  36   1.0000      -0.680219       -18.5097
  37   1.0000      -0.673609       -18.3298
  38   1.0000      -0.646817       -17.6008
  39   1.0000      -0.638144       -17.3648
  40   1.0000      -0.609111       -16.5748
  41   1.0000      -0.602590       -16.3973
  42   1.0000      -0.602208       -16.3869
  43   1.0000      -0.587149       -15.9771
  44   1.0000      -0.573331       -15.6011
  45   1.0000      -0.568574       -15.4717
  46   1.0000      -0.565473       -15.3873
  47   1.0000      -0.559912       -15.2360
  48   1.0000      -0.553209       -15.0536
  49   1.0000      -0.545540       -14.8449
  50   1.0000      -0.539205       -14.6725
  51   1.0000      -0.528083       -14.3699
  52   1.0000      -0.526069       -14.3151
  53   1.0000      -0.515247       -14.0206
  54   1.0000      -0.506488       -13.7822
  55   1.0000      -0.504968       -13.7409
  56   1.0000      -0.494489       -13.4557
  57   1.0000      -0.425788       -11.5863
  58   1.0000      -0.421359       -11.4658
  59   1.0000      -0.407854       -11.0983
  60   1.0000      -0.402342       -10.9483
  61   1.0000      -0.398108       -10.8331
  62   1.0000      -0.394821       -10.7436
  63   1.0000      -0.390286       -10.6202
  64   1.0000      -0.381986       -10.3944
  65   0.0000      -0.064596        -1.7577
  66   0.0000      -0.040804        -1.1103
  67   0.0000       0.009420         0.2563
  68   0.0000       0.030173         0.8210
  69   0.0000       0.035517         0.9665

----------------------------------------------------------------------------------------------------
          SPIN FLIP ABSORPTION SPECTRUM VIA TRANSITION ELECTRIC DIPOLE MOMENTS
----------------------------------------------------------------------------------------------------
     Transition      Energy     Energy  Wavelength fosc(D2)      D2        DX        DY        DZ
                      (eV)      (cm-1)    (nm)                 (au**2)    (au)      (au)      (au)
----------------------------------------------------------------------------------------------------
  1-3A  ->  2-3A    0.182541    1472.3  6792.1   0.000067005   0.01498   0.09482  -0.07237  -0.02747
  1-3A  ->  3-3A    2.507305   20222.8   494.5   0.013178258   0.21453  -0.41230   0.19369   0.08380

Dispersion correction             ... done (  0.1 sec)

MULLIKEN ATOMIC CHARGES AND SPIN DENSITIES
------------------------------------------
   0 O :   -0.653943   -0.004536
   1 O :   -0.658197    0.002826
   2 O :   -0.624661   -0.000384
   3 O :   -0.603874    0.000048
   4 N :   -0.157830   -0.003505
   5 N :   -0.335366   -0.002388
   6 N :    0.146053   -0.004153
   7 N :    0.060959   -0.001729
   8 C :    0.250094    0.334053
   9 C :    0.442534    0.324501
  10 C :    0.537190   -0.225083
  11 C :    0.389672   -0.148269
  12 C :   -1.454243   -0.017318
  13 C :   -1.311055   -0.011405
  14 C :    0.092123   -0.126859
  15 C :    0.185260   -0.151100
  16 C :    0.398116    0.005856
  17 C :    0.446256    0.010376
  18 H :    0.600345   -0.006607
  19 H :    0.304940   -0.012413
  20 H :    0.354094   -0.001867
  21 H :    0.250623    0.012239
  22 H :    0.351085    0.004545
  23 H :    0.253152    0.013867
  24 H :    0.339543    0.000706
  25 H :    0.299701    0.002678
  26 H :   -0.058663    0.000218
  27 H :    0.169165    0.001339
  28 H :    0.021892    0.001852
  29 H :   -0.034965    0.002513
Sum of atomic charges       :   -0.0000000

LOEWDIN ATOMIC CHARGES AND SPIN DENSITIES
-----------------------------------------
   0 O :    0.096126   -0.004172
   1 O :    0.104676    0.001960
   2 O :    0.126635   -0.000314
   3 O :    0.111601   -0.000078
   4 N :    0.343785   -0.000646
   5 N :    0.252321   -0.000664
   6 N :    0.346389   -0.003121
   7 N :    0.356967   -0.000726
   8 C :   -0.025595   -0.006126
   9 C :   -0.003206    0.026583
  10 C :   -0.064601   -0.001836
  11 C :   -0.134678    0.000398
  12 C :    0.164919   -0.002479
  13 C :    0.211054    0.000912
  14 C :   -0.423787   -0.006820
  15 C :   -0.407771   -0.001085
  16 C :   -0.488950   -0.000297
  17 C :   -0.479992   -0.000238
  18 H :    0.051598   -0.000898
  19 H :    0.054455   -0.000019
  20 H :    0.009881   -0.000322
  21 H :    0.021032   -0.000295
  22 H :    0.001532    0.000038
  23 H :   -0.028475    0.000555
  24 H :    0.004642    0.000013
  25 H :    0.010124    0.000156
  26 H :   -0.114933   -0.000035
  27 H :   -0.016496   -0.000118
  28 H :   -0.021920   -0.000256
  29 H :   -0.057335   -0.000070

  Mayer bond orders larger than 0.100000
B(  0-O , 14-C ) :   1.4835 B(  1-O ,  9-C ) :  -0.1150 B(  1-O , 15-C ) :   1.4793
B(  2-O , 16-C ) :   1.4949 B(  3-O , 17-C ) :   1.5686 B(  4-N ,  8-C ) :   0.4057
B(  4-N , 16-C ) :   1.0578 B(  4-N , 26-H ) :   1.1258 B(  5-N ,  9-C ) :   0.1690
B(  5-N , 11-C ) :   0.2447 B(  5-N , 17-C ) :   1.0236 B(  5-N , 27-H ) :   0.9504
B(  6-N , 10-C ) :   0.1153 B(  6-N , 14-C ) :   1.0414 B(  6-N , 16-C ) :   0.9353
B(  6-N , 28-H ) :   1.1011 B(  7-N , 15-C ) :   0.9847 B(  7-N , 17-C ) :   0.9512
B(  7-N , 29-H ) :   1.1381 B(  8-C ,  9-C ) :   0.1296 B(  8-C , 10-C ) :   0.3833
B(  8-C , 11-C ) :   0.2234 B(  8-C , 12-C ) :   0.3166 B(  8-C , 14-C ) :   0.7572
B(  8-C , 16-C ) :   0.1145 B(  8-C , 18-H ) :  -0.1261 B(  8-C , 20-H ) :  -0.1146
B(  8-C , 22-H ) :  -0.1245 B(  9-C , 10-C ) :   0.1905 B(  9-C , 11-C ) :   0.2331
B(  9-C , 13-C ) :   0.4516 B(  9-C , 15-C ) :   0.5821 B(  9-C , 19-H ) :  -0.2689
B(  9-C , 25-H ) :  -0.1405 B( 10-C , 11-C ) :   0.3860 B( 10-C , 14-C ) :  -0.1729
B( 10-C , 16-C ) :  -0.1755 B( 10-C , 18-H ) :   0.7422 B( 11-C , 13-C ) :  -0.1613
B( 11-C , 19-H ) :   1.1571 B( 12-C , 20-H ) :   0.9313 B( 12-C , 21-H ) :   0.9098
B( 12-C , 22-H ) :   0.9866 B( 13-C , 23-H ) :   0.8755 B( 13-C , 24-H ) :   0.9841
B( 13-C , 25-H ) :   1.0412 B( 14-C , 16-C ) :  -0.1094

Dispersion correction           -0.058871707
FINAL SINGLE POINT ENERGY      -908.774288289798

DIPOLE MOMENT
-------------

Method             : TDA/CIS
Type of density    : Electron Density
Level              : Relaxed density
State              :   2
Multiplicity       :   3
Irrep              :   0
Energy             :     0.0000000000000000 Eh
Relativity type    :
Basis              : AO
                                X                 Y                 Z
Electronic contribution:    -10.361261654      -5.924043868      -2.376089972
Nuclear contribution   :     11.971111513       6.971387908       3.874682701
                        -----------------------------------------
Total Dipole Moment    :      1.609849858       1.047344040       1.498592729
                        -----------------------------------------
Magnitude (a.u.)       :      2.436047264
Magnitude (Debye)      :      6.191940063

Rotational constants in cm-1:             0.021749             0.012523             0.012020
Rotational constants in MHz :           652.020239           375.433059           360.348904

                             ****ORCA TERMINATED NORMALLY****
TOTAL RUN TIME: 0 days 0 hours 4 minutes 59 seconds 32 msec
