                         Program Version 6.0.0  -   RELEASE  -
|  1> ! Opt wB97M-D3BJ def2-TZVPPD
|  2> %pal nprocs 8 end %pal nprocs 64 end
|  3> %geom
|  4> Constraints
|  5>     {A 2 1 0 54.54545454545455 C }
|  6> end
|  7> MaxIter 500
|  8> end
|  9> *xyz 0 1
| 10> O   -0.0007 0.8141 0.0
| 11> C   0.7509 -0.4065 0.0
| 12> C   -0.7502 -0.4076 0.0
| 13> H   1.2625 -0.6786 0.9136
| 14> H   1.2625 -0.6787 -0.9136
| 15> H   -1.2614 -0.6806 -0.9136
| 16> H   -1.2614 -0.6805 0.9136
| 17> *
| 18>
| 19>                          ****END OF INPUT****
 Total Charge           Charge          ....    0
 Multiplicity           Mult            ....    1
 Number of Electrons    NEL             ....   24
Dispersion correction           -0.005181144
FINAL SINGLE POINT ENERGY      -153.883661360746
Dispersion correction             ... done (  0.1 sec)
Dispersion correction           -0.005193044
FINAL SINGLE POINT ENERGY      -153.885458912606
Dispersion correction             ... done (  0.0 sec)
Dispersion correction           -0.005204908
FINAL SINGLE POINT ENERGY      -153.885871112212
Dispersion correction             ... done (  0.1 sec)
Dispersion correction           -0.005207424
FINAL SINGLE POINT ENERGY      -153.885938760031
Dispersion correction             ... done (  0.1 sec)
Dispersion correction           -0.005208659
FINAL SINGLE POINT ENERGY      -153.885973405035
Dispersion correction             ... done (  0.1 sec)
                    ***********************HURRAY********************

CARTESIAN COORDINATES (ANGSTROEM)
---------------------------------
  O     -0.042035    0.763757   -0.000027
  C      0.756597   -0.467969   -0.000009
  C     -0.735829   -0.402917    0.000024
  H      1.279155   -0.653575    0.925896
  H      1.279146   -0.653732   -0.925890
  H     -1.267386   -0.651976   -0.914088
  H     -1.267448   -0.651987    0.914094

 Multiplicity           Mult            ....    1
 Number of Electrons    NEL             ....   24
 Basis Dimension        Dim             ....  182

ORBITAL ENERGIES
----------------

  NO   OCC          E(Eh)            E(eV)
   0   2.0000     -19.353241      -526.6284
   1   2.0000     -10.401957      -283.0516
   2   2.0000     -10.400253      -283.0053
   3   2.0000      -1.217461       -33.1288
   4   2.0000      -0.799335       -21.7510
   5   2.0000      -0.759175       -20.6582
   6   2.0000      -0.632033       -17.1985
   7   2.0000      -0.595096       -16.1934
   8   2.0000      -0.516215       -14.0469
   9   2.0000      -0.495459       -13.4821
  10   2.0000      -0.411962       -11.2100
  11   2.0000      -0.384925       -10.4743
  12   0.0000       0.042667         1.1610
  13   0.0000       0.058701         1.5973
  14   0.0000       0.075262         2.0480
  15   0.0000       0.078132         2.1261
  16   0.0000       0.112780         3.0689

MULLIKEN ATOMIC CHARGES
-----------------------
   0 O :   -0.377582
   1 C :   -0.212670
   2 C :   -0.145228
   3 H :    0.182404
   4 H :    0.182383
   5 H :    0.185337
   6 H :    0.185356
Sum of atomic charges:   -0.0000000

LOEWDIN ATOMIC CHARGES
----------------------
   0 O :   -0.029983
   1 C :    0.072975
   2 C :   -0.073849
   3 H :    0.001949
   4 H :    0.001952
   5 H :    0.013477
   6 H :    0.013479

  Mayer bond orders larger than 0.100000
B(  0-O ,  1-C ) :   0.8528 B(  0-O ,  2-C ) :   0.8003 B(  1-C ,  2-C ) :   0.8072
B(  1-C ,  3-H ) :   1.0052 B(  1-C ,  4-H ) :   1.0052 B(  2-C ,  5-H ) :   1.0276
B(  2-C ,  6-H ) :   1.0276

Dispersion correction           -0.005208379
FINAL SINGLE POINT ENERGY      -153.885974106343

DIPOLE MOMENT
-------------

Method             : SCF
Type of density    : Electron Density
Multiplicity       :   1
Irrep              :   0
Energy             :  -153.8807657271680966 Eh
Relativity type    :
Basis              : AO
                                X                 Y                 Z
Electronic contribution:     -0.013961496       1.659952563      -0.000012492
Nuclear contribution   :      0.055554727      -2.363874525       0.000031866
                        -----------------------------------------
Total Dipole Moment    :      0.041593231      -0.703921962       0.000019374
                        -----------------------------------------
Magnitude (a.u.)       :      0.705149718
Magnitude (Debye)      :      1.792348144

Rotational constants in cm-1:             0.901480             0.711895             0.474137
Rotational constants in MHz :         27025.687216         21342.061488         14214.255722

                             ****ORCA TERMINATED NORMALLY****
TOTAL RUN TIME: 0 days 0 hours 1 minutes 21 seconds 680 msec
