                         Program Version 6.0.0  -   RELEASE  -
|  1> ! Opt wB97M-D3BJ def2-TZVPPD
|  2> %pal nprocs 8 end %pal nprocs 64 end
|  3> %geom
|  4> Constraints
|  5>     {A 2 1 0 133.22033898305085 C }
|  6> end
|  7> MaxIter 200
|  8> end
|  9> *xyz 0 1
| 10> O   1.73176632641082 0.6388076914063835 0.0
| 11> C   0.7509 -0.4065 0.0
| 12> C   -0.7502 -0.4076 0.0
| 13> H   1.2625 -0.6786 0.9136
| 14> H   1.2625 -0.6787 -0.9136
| 15> H   -1.2614 -0.6806 -0.9136
| 16> H   -1.2614 -0.6805 0.9136
| 17> *
| 18>
| 19>                          ****END OF INPUT****
 Total Charge           Charge          ....    0
 Multiplicity           Mult            ....    1
 Number of Electrons    NEL             ....   24
Dispersion correction           -0.005330645
FINAL SINGLE POINT ENERGY      -153.691176631426
Dispersion correction             ... done (  0.1 sec)
Dispersion correction           -0.005413249
FINAL SINGLE POINT ENERGY      -153.710283275376
Dispersion correction             ... done (  0.0 sec)
Dispersion correction           -0.005479179
FINAL SINGLE POINT ENERGY      -153.719566414979
Dispersion correction             ... done (  0.1 sec)
FINAL SINGLE POINT ENERGY      -153.725527879576
FINAL SINGLE POINT ENERGY      -153.735434900999
FINAL SINGLE POINT ENERGY      -153.747168931469
FINAL SINGLE POINT ENERGY      -153.761521828857
FINAL SINGLE POINT ENERGY      -153.781101009264
FINAL SINGLE POINT ENERGY      -153.819893151759
FINAL SINGLE POINT ENERGY      -153.836866774388
FINAL SINGLE POINT ENERGY      -153.928004106730
FINAL SINGLE POINT ENERGY      -153.928105444802
FINAL SINGLE POINT ENERGY      -153.928176428869
FINAL SINGLE POINT ENERGY      -153.928249248598
FINAL SINGLE POINT ENERGY      -153.928371883435
FINAL SINGLE POINT ENERGY      -153.928585438838
FINAL SINGLE POINT ENERGY      -153.928706241621
Dispersion correction             ... done (  0.1 sec)
Dispersion correction           -0.005516711
FINAL SINGLE POINT ENERGY      -153.928745366432
Dispersion correction             ... done (  0.1 sec)
Dispersion correction           -0.005515840
FINAL SINGLE POINT ENERGY      -153.928746854306
Dispersion correction             ... done (  0.1 sec)
                    ***********************HURRAY********************

CARTESIAN COORDINATES (ANGSTROEM)
---------------------------------
  O      1.497724    1.013471   -0.048396
  C      0.945874   -0.010563    0.243891
  C     -0.308067   -0.672691   -0.236272
  H      1.426182   -0.635141    1.031346
  H     -0.041820   -1.662587   -0.606459
  H     -0.824898   -0.109489   -1.009099
  H     -0.960328   -0.816693    0.624989

 Multiplicity           Mult            ....    1
 Number of Electrons    NEL             ....   24
 Basis Dimension        Dim             ....  182

ORBITAL ENERGIES
----------------

  NO   OCC          E(Eh)            E(eV)
   0   2.0000     -19.341435      -526.3072
   1   2.0000     -10.443978      -284.1951
   2   2.0000     -10.362210      -281.9701
   3   2.0000      -1.189569       -32.3698
   4   2.0000      -0.891252       -24.2522
   5   2.0000      -0.698785       -19.0149
   6   2.0000      -0.597153       -16.2494
   7   2.0000      -0.564213       -15.3530
   8   2.0000      -0.558571       -15.1995
   9   2.0000      -0.509786       -13.8720
  10   2.0000      -0.479152       -13.0384
  11   2.0000      -0.366291        -9.9673
  12   0.0000       0.035836         0.9751
  13   0.0000       0.056771         1.5448
  14   0.0000       0.059239         1.6120
  15   0.0000       0.082192         2.2366
  16   0.0000       0.085590         2.3290

MULLIKEN ATOMIC CHARGES
-----------------------
   0 O :   -0.473538
   1 C :    0.232008
   2 C :   -0.694110
   3 H :    0.227281
   4 H :    0.233687
   5 H :    0.240818
   6 H :    0.233854
Sum of atomic charges:    0.0000000

LOEWDIN ATOMIC CHARGES
----------------------
   0 O :    0.075326
   1 C :   -0.242348
   2 C :    0.171415
   3 H :    0.021757
   4 H :   -0.008774
   5 H :   -0.008671
   6 H :   -0.008706

  Mayer bond orders larger than 0.100000
B(  0-O ,  1-C ) :   1.7704 B(  1-C ,  2-C ) :   0.7480 B(  1-C ,  3-H ) :   0.9977
B(  2-C ,  4-H ) :   0.9907 B(  2-C ,  5-H ) :   0.9587 B(  2-C ,  6-H ) :   0.9902

Dispersion correction           -0.005515808
FINAL SINGLE POINT ENERGY      -153.928746969787

DIPOLE MOMENT
-------------

Method             : SCF
Type of density    : Electron Density
Multiplicity       :   1
Irrep              :   0
Energy             :  -153.9232311614165098 Eh
Relativity type    :
Basis              : AO
                                X                 Y                 Z
Electronic contribution:      2.352815155       2.466648245       0.059912590
Nuclear contribution   :     -3.023814709      -3.416543796       0.092417621
                        -----------------------------------------
Total Dipole Moment    :     -0.670999554      -0.949895550       0.152330210
                        -----------------------------------------
Magnitude (a.u.)       :      1.172922185
Magnitude (Debye)      :      2.981331263

Rotational constants in cm-1:             2.171569             0.320398             0.294316
Rotational constants in MHz :         65102.012061          9605.287827          8823.376153

                             ****ORCA TERMINATED NORMALLY****
TOTAL RUN TIME: 0 days 0 hours 6 minutes 20 seconds 543 msec
