                         Program Version 6.0.0  -   RELEASE  -
|  1> ! Engrad def2-TZVPPD wB97M-D3BJ
|  2> %pal nprocs 8 end%pal nprocs 64 end
|  3> %tddft Nroots 2 Iroot 2
|  4> sf true
|  5> end
|  6> *xyz 0 3
|  7> O   4.04220114 -0.18149767 0.7552535
|  8> O   -2.13910803 1.84102182 -2.01642591
|  9> O   1.09069579 -2.8697874 -1.18273829
| 10> O   -3.4649783 -1.64946246 0.36033424
| 11> N   0.47039361 -0.86598538 -0.38428366
| 12> N   -1.93680664 -0.25077281 1.34263291
| 13> N   2.56212221 -1.70980783 0.18617744
| 14> N   -2.69375512 0.08989273 -0.80637313
| 15> C   1.82234742 0.42423153 1.06427423
| 16> C   -1.01724665 1.62037125 0.07014838
| 17> C   0.48197495 -0.20208851 0.90503686
| 18> C   -0.7630424 0.65349543 1.18520926
| 19> C   2.14750396 1.68174959 1.76713074
| 20> C   -0.36658719 2.93238817 0.02328592
| 21> C   2.89117348 -0.46525487 0.63421824
| 22> C   -1.98202527 1.24435507 -0.99043342
| 23> C   1.34564815 -1.90320534 -0.52272382
| 24> C   -2.71513263 -0.72040778 0.31541021
| 25> H   0.52833709 -0.95143256 1.71729785
| 26> H   -0.53995457 1.16773427 2.1536859
| 27> H   3.11921091 1.59853319 2.27450708
| 28> H   2.27114076 2.5540506 1.11707687
| 29> H   1.38833904 1.9720464 2.53653349
| 30> H   -0.08703478 3.27218335 1.03801267
| 31> H   0.5492771 2.7417935 -0.55311391
| 32> H   -1.0612241 3.63224945 -0.48550164
| 33> H   -0.39644407 -1.1136788 -0.86029079
| 34> H   -1.98675467 -0.77955341 2.16156141
| 35> H   3.32542927 -2.17781179 -0.28821831
| 36> H   -3.35302211 -0.26711647 -1.49987121
| 37> *
| 38>
| 39>                          ****END OF INPUT****

CARTESIAN COORDINATES (ANGSTROEM)
---------------------------------
  O      4.042201   -0.181498    0.755254
  O     -2.139108    1.841022   -2.016426
  O      1.090696   -2.869787   -1.182738
  O     -3.464978   -1.649462    0.360334
  N      0.470394   -0.865985   -0.384284
  N     -1.936807   -0.250773    1.342633
  N      2.562122   -1.709808    0.186177
  N     -2.693755    0.089893   -0.806373
  C      1.822347    0.424232    1.064274
  C     -1.017247    1.620371    0.070148
  C      0.481975   -0.202089    0.905037
  C     -0.763042    0.653495    1.185209
  C      2.147504    1.681750    1.767131
  C     -0.366587    2.932388    0.023286
  C      2.891173   -0.465255    0.634218
  C     -1.982025    1.244355   -0.990433
  C      1.345648   -1.903205   -0.522724
  C     -2.715133   -0.720408    0.315410
  H      0.528337   -0.951433    1.717298
  H     -0.539955    1.167734    2.153686
  H      3.119211    1.598533    2.274507
  H      2.271141    2.554051    1.117077
  H      1.388339    1.972046    2.536533
  H     -0.087035    3.272183    1.038013
  H      0.549277    2.741793   -0.553114
  H     -1.061224    3.632249   -0.485502
  H     -0.396444   -1.113679   -0.860291
  H     -1.986755   -0.779553    2.161561
  H      3.325429   -2.177812   -0.288218
  H     -3.353022   -0.267116   -1.499871

 Total Charge           Charge          ....    0
 Multiplicity           Mult            ....    3
 Number of Electrons    NEL             ....  132
 Basis Dimension        Dim             ....  882

ORBITAL ENERGIES
----------------
                 SPIN UP ORBITALS
  NO   OCC          E(Eh)            E(eV)
   0   1.0000     -19.332827      -526.0730
   1   1.0000     -19.331935      -526.0487
   2   1.0000     -19.328164      -525.9461
   3   1.0000     -19.325596      -525.8762
   4   1.0000     -14.563318      -396.2880
   5   1.0000     -14.563070      -396.2813
   6   1.0000     -14.563028      -396.2801
   7   1.0000     -14.558916      -396.1683
   8   1.0000     -10.506542      -285.8975
   9   1.0000     -10.504150      -285.8325
  10   1.0000     -10.483452      -285.2692
  11   1.0000     -10.473188      -284.9899
  12   1.0000     -10.458498      -284.5902
  13   1.0000     -10.444235      -284.2021
  14   1.0000     -10.422280      -283.6047
  15   1.0000     -10.418344      -283.4976
  16   1.0000     -10.384664      -282.5811
  17   1.0000     -10.381959      -282.5075
  18   1.0000      -1.234084       -33.5811
  19   1.0000      -1.232145       -33.5284
  20   1.0000      -1.212330       -32.9892
  21   1.0000      -1.210345       -32.9352
  22   1.0000      -1.126096       -30.6426
  23   1.0000      -1.106426       -30.1074
  24   1.0000      -1.070404       -29.1272
  25   1.0000      -1.059599       -28.8331
  26   1.0000      -0.987819       -26.8799
  27   1.0000      -0.962163       -26.1818
  28   1.0000      -0.898049       -24.4371
  29   1.0000      -0.849844       -23.1254
  30   1.0000      -0.830062       -22.5871
  31   1.0000      -0.792250       -21.5582
  32   1.0000      -0.787162       -21.4198
  33   1.0000      -0.777627       -21.1603
  34   1.0000      -0.707100       -19.2412
  35   1.0000      -0.706029       -19.2120
  36   1.0000      -0.690557       -18.7910
  37   1.0000      -0.685593       -18.6559
  38   1.0000      -0.649575       -17.6758
  39   1.0000      -0.636310       -17.3149
  40   1.0000      -0.624429       -16.9916
  41   1.0000      -0.610752       -16.6194
  42   1.0000      -0.602586       -16.3972
  43   1.0000      -0.589072       -16.0295
  44   1.0000      -0.583657       -15.8821
  45   1.0000      -0.575294       -15.6546
  46   1.0000      -0.574847       -15.6424
  47   1.0000      -0.571138       -15.5415
  48   1.0000      -0.567119       -15.4321
  49   1.0000      -0.559632       -15.2284
  50   1.0000      -0.556452       -15.1418
  51   1.0000      -0.546741       -14.8776
  52   1.0000      -0.539170       -14.6716
  53   1.0000      -0.529999       -14.4220
  54   1.0000      -0.520856       -14.1732
  55   1.0000      -0.511467       -13.9177
  56   1.0000      -0.494558       -13.4576
  57   1.0000      -0.432626       -11.7724
  58   1.0000      -0.424492       -11.5510
  59   1.0000      -0.416879       -11.3438
  60   1.0000      -0.408625       -11.1193
  61   1.0000      -0.403399       -10.9770
  62   1.0000      -0.397280       -10.8105
  63   1.0000      -0.390345       -10.6218
  64   1.0000      -0.385962       -10.5026
  65   1.0000      -0.344357        -9.3704
  66   1.0000      -0.336431        -9.1547
  67   0.0000       0.008091         0.2202
  68   0.0000       0.029992         0.8161
  69   0.0000       0.031781         0.8648
  70   0.0000       0.033930         0.9233
  71   0.0000       0.053439         1.4541

                 SPIN DOWN ORBITALS
  NO   OCC          E(Eh)            E(eV)
   0   1.0000     -19.329252      -525.9757
   1   1.0000     -19.328038      -525.9427
   2   1.0000     -19.327570      -525.9299
   3   1.0000     -19.325500      -525.8736
   4   1.0000     -14.562954      -396.2781
   5   1.0000     -14.562866      -396.2757
   6   1.0000     -14.562836      -396.2749
   7   1.0000     -14.558353      -396.1529
   8   1.0000     -10.506580      -285.8986
   9   1.0000     -10.504202      -285.8339
  10   1.0000     -10.484398      -285.2950
  11   1.0000     -10.474128      -285.0155
  12   1.0000     -10.459158      -284.6082
  13   1.0000     -10.443726      -284.1882
  14   1.0000     -10.410517      -283.2846
  15   1.0000     -10.406790      -283.1832
  16   1.0000     -10.385301      -282.5984
  17   1.0000     -10.382470      -282.5214
  18   1.0000      -1.232030       -33.5252
  19   1.0000      -1.230195       -33.4753
  20   1.0000      -1.208375       -32.8816
  21   1.0000      -1.206445       -32.8290
  22   1.0000      -1.123455       -30.5708
  23   1.0000      -1.104505       -30.0551
  24   1.0000      -1.068804       -29.0836
  25   1.0000      -1.058423       -28.8011
  26   1.0000      -0.975541       -26.5458
  27   1.0000      -0.944064       -25.6893
  28   1.0000      -0.892611       -24.2892
  29   1.0000      -0.844690       -22.9852
  30   1.0000      -0.821072       -22.3425
  31   1.0000      -0.790435       -21.5088
  32   1.0000      -0.782809       -21.3013
  33   1.0000      -0.776224       -21.1221
  34   1.0000      -0.702091       -19.1049
  35   1.0000      -0.697922       -18.9914
  36   1.0000      -0.685230       -18.6461
  37   1.0000      -0.678016       -18.4497
  38   1.0000      -0.642711       -17.4891
  39   1.0000      -0.625118       -17.0103
  40   1.0000      -0.621202       -16.9038
  41   1.0000      -0.604059       -16.4373
  42   1.0000      -0.597618       -16.2620
  43   1.0000      -0.585840       -15.9415
  44   1.0000      -0.576777       -15.6949
  45   1.0000      -0.570456       -15.5229
  46   1.0000      -0.568429       -15.4677
  47   1.0000      -0.564743       -15.3674
  48   1.0000      -0.555156       -15.1066
  49   1.0000      -0.553284       -15.0556
  50   1.0000      -0.548096       -14.9145
  51   1.0000      -0.540227       -14.7003
  52   1.0000      -0.529516       -14.4089
  53   1.0000      -0.521872       -14.2009
  54   1.0000      -0.515615       -14.0306
  55   1.0000      -0.504880       -13.7385
  56   1.0000      -0.489870       -13.3300
  57   1.0000      -0.428358       -11.6562
  58   1.0000      -0.422108       -11.4862
  59   1.0000      -0.407457       -11.0875
  60   1.0000      -0.400511       -10.8985
  61   1.0000      -0.396643       -10.7932
  62   1.0000      -0.393123       -10.6974
  63   1.0000      -0.385962       -10.5026
  64   1.0000      -0.381812       -10.3896
  65   0.0000      -0.055507        -1.5104
  66   0.0000      -0.051689        -1.4065
  67   0.0000       0.007837         0.2132
  68   0.0000       0.029481         0.8022
  69   0.0000       0.032008         0.8710

----------------------------------------------------------------------------------------------------
          SPIN FLIP ABSORPTION SPECTRUM VIA TRANSITION ELECTRIC DIPOLE MOMENTS
----------------------------------------------------------------------------------------------------
     Transition      Energy     Energy  Wavelength fosc(D2)      D2        DX        DY        DZ
                      (eV)      (cm-1)    (nm)                 (au**2)    (au)      (au)      (au)
----------------------------------------------------------------------------------------------------
  1-3A  ->  2-3A    0.006942      56.0  178596.9   0.000001277   0.00751  -0.08534   0.01233  -0.00868

Dispersion correction             ... done (  0.1 sec)

MULLIKEN ATOMIC CHARGES AND SPIN DENSITIES
------------------------------------------
   0 O :   -0.632342   -0.077288
   1 O :   -0.658814    0.058103
   2 O :   -0.611649   -0.000735
   3 O :   -0.630905    0.001456
   4 N :   -0.332754   -0.025792
   5 N :   -0.177703    0.005692
   6 N :   -0.114000   -0.000170
   7 N :   -0.070931    0.008653
   8 C :    0.888616    0.338847
   9 C :    0.418783    0.381714
  10 C :    0.440510   -0.287703
  11 C :    0.239799   -0.064726
  12 C :   -1.421629    0.013635
  13 C :   -1.281321    0.033857
  14 C :    0.041462   -0.317684
  15 C :    0.270429   -0.044018
  16 C :    0.204847    0.005568
  17 C :    0.449354    0.005650
  18 H :    0.322269   -0.070856
  19 H :    0.478063   -0.000104
  20 H :    0.367505   -0.000577
  21 H :    0.249520   -0.005298
  22 H :    0.308258    0.001322
  23 H :    0.260260    0.004439
  24 H :    0.284477    0.020867
  25 H :    0.387421    0.007988
  26 H :    0.117983    0.004778
  27 H :    0.016019    0.000052
  28 H :    0.144369    0.002078
  29 H :    0.042103    0.000251
Sum of atomic charges       :   -0.0000000

LOEWDIN ATOMIC CHARGES AND SPIN DENSITIES
-----------------------------------------
   0 O :    0.109945   -0.067681
   1 O :    0.109101    0.050738
   2 O :    0.116805   -0.001722
   3 O :    0.111152    0.001297
   4 N :    0.284479   -0.005840
   5 N :    0.308062    0.002711
   6 N :    0.323772   -0.002363
   7 N :    0.302782    0.007629
   8 C :    0.009766   -0.218850
   9 C :   -0.014941    0.241967
  10 C :   -0.148122   -0.018815
  11 C :   -0.092600    0.027120
  12 C :    0.172547   -0.037245
  13 C :    0.177320    0.036238
  14 C :   -0.464521   -0.043511
  15 C :   -0.427984    0.035092
  16 C :   -0.471595   -0.000500
  17 C :   -0.513619    0.000401
  18 H :    0.070772   -0.011624
  19 H :    0.064263    0.003511
  20 H :    0.009027   -0.003514
  21 H :    0.005122   -0.012680
  22 H :    0.011781   -0.002602
  23 H :    0.004863    0.002511
  24 H :    0.015498    0.014394
  25 H :    0.021788    0.003536
  26 H :   -0.026505   -0.000473
  27 H :   -0.070056    0.000038
  28 H :   -0.008477   -0.000317
  29 H :    0.009575    0.000554

  Mayer bond orders larger than 0.100000
B(  0-O , 14-C ) :   1.3715 B(  1-O , 15-C ) :   1.3911 B(  2-O , 16-C ) :   1.5843
B(  3-O , 17-C ) :   1.5748 B(  4-N ,  8-C ) :   0.4077 B(  4-N , 10-C ) :  -0.2109
B(  4-N , 11-C ) :   0.1207 B(  4-N , 16-C ) :   1.2427 B(  4-N , 26-H ) :   0.9606
B(  5-N ,  9-C ) :   0.1610 B(  5-N , 10-C ) :   0.2223 B(  5-N , 11-C ) :   0.1377
B(  5-N , 17-C ) :   1.0924 B(  5-N , 27-H ) :   1.1309 B(  6-N , 14-C ) :   0.8606
B(  6-N , 16-C ) :   0.9506 B(  6-N , 28-H ) :   0.9714 B(  7-N , 15-C ) :   1.0052
B(  7-N , 17-C ) :   0.9614 B(  7-N , 29-H ) :   1.1073 B(  8-C , 10-C ) :  -0.2138
B(  8-C , 11-C ) :   0.2389 B(  8-C , 12-C ) :   0.2479 B(  8-C , 14-C ) :   0.9179
B(  8-C , 22-H ) :  -0.1936 B(  9-C , 10-C ) :   0.2782 B(  9-C , 11-C ) :   0.2512
B(  9-C , 13-C ) :   0.3007 B(  9-C , 15-C ) :   0.7940 B(  9-C , 19-H ) :  -0.2749
B(  9-C , 23-H ) :  -0.1554 B( 10-C , 11-C ) :   0.5959 B( 10-C , 16-C ) :  -0.1755
B( 10-C , 18-H ) :   0.7710 B( 11-C , 12-C ) :  -0.1240 B( 11-C , 13-C ) :  -0.1761
B( 11-C , 15-C ) :  -0.1433 B( 11-C , 19-H ) :   0.9306 B( 12-C , 20-H ) :   0.8782
B( 12-C , 21-H ) :   0.9285 B( 12-C , 22-H ) :   1.0673 B( 13-C , 23-H ) :   1.1058
B( 13-C , 24-H ) :   0.9095 B( 13-C , 25-H ) :   0.8440 B( 14-C , 16-C ) :  -0.1046

Dispersion correction           -0.057433186
FINAL SINGLE POINT ENERGY      -908.776519375509

DIPOLE MOMENT
-------------

Method             : TDA/CIS
Type of density    : Electron Density
Level              : Relaxed density
State              :   2
Multiplicity       :   3
Irrep              :   0
Energy             :     0.0000000000000000 Eh
Relativity type    :
Basis              : AO
                                X                 Y                 Z
Electronic contribution:     -3.555664065      -9.698776756      -5.311530959
Nuclear contribution   :      3.688139183      11.280445538       7.167062232
                        -----------------------------------------
Total Dipole Moment    :      0.132475118       1.581668781       1.855531273
                        -----------------------------------------
Magnitude (a.u.)       :      2.441766184
Magnitude (Debye)      :      6.206476403

Rotational constants in cm-1:             0.021372             0.011307             0.009152
Rotational constants in MHz :           640.723939           338.982130           274.366719

                             ****ORCA TERMINATED NORMALLY****
TOTAL RUN TIME: 0 days 0 hours 4 minutes 26 seconds 346 msec
