                         Program Version 6.0.0  -   RELEASE  -
|  1> ! Engrad def2-TZVPPD wB97M-D3BJ
|  2> %pal nprocs 8 end%pal nprocs 64 end
|  3> %tddft Nroots 2 Iroot 2
|  4> sf true
|  5> end
|  6> *xyz 0 3
|  7> O   2.90005232 1.09172057 -0.78551525
|  8> O   -0.42663669 0.83910986 -2.08355247
|  9> O   0.65922461 -2.8508321 -1.43520543
| 10> O   -2.76259294 -1.72818697 0.8420902
| 11> N   0.65167224 -1.94683166 0.67734316
| 12> N   -2.52192784 0.46008788 1.42069457
| 13> N   1.96246687 -1.05538292 -0.96816653
| 14> N   -1.74308417 -0.3578233 -0.6554211
| 15> C   1.71536432 0.2205244 1.06441342
| 16> C   -1.02578129 1.80807841 0.04414462
| 17> C   0.96277942 -0.89563562 1.46719295
| 18> C   -1.83433634 1.63727152 1.12853835
| 19> C   2.1039016 1.30945907 1.99149079
| 20> C   -0.27367853 3.06877562 -0.20454447
| 21> C   2.22300296 0.22309549 -0.29885953
| 22> C   -1.00755806 0.77744411 -1.03010168
| 23> C   1.03575258 -2.01909734 -0.63579047
| 24> C   -2.34908188 -0.61415854 0.54456385
| 25> H   0.74515902 -0.98702977 2.52887406
| 26> H   -1.9536095 2.378198 1.90514903
| 27> H   1.28068231 2.02968198 2.06521935
| 28> H   2.30939816 0.9537726 3.02350003
| 29> H   2.98137084 1.83836257 1.66767863
| 30> H   -0.45299628 3.32602951 -1.27110576
| 31> H   -0.53845406 3.76384564 0.55588044
| 32> H   0.79921946 2.99302457 -0.09841548
| 33> H   -0.02346196 -2.66142839 0.95708554
| 34> H   -2.94475804 0.23861995 2.30932518
| 35> H   2.16153883 -1.0346222 -1.90460117
| 36> H   -1.71157039 -1.09495719 -1.33467248
| 37> *
| 38>
| 39>                          ****END OF INPUT****

CARTESIAN COORDINATES (ANGSTROEM)
---------------------------------
  O      2.900052    1.091721   -0.785515
  O     -0.426637    0.839110   -2.083552
  O      0.659225   -2.850832   -1.435205
  O     -2.762593   -1.728187    0.842090
  N      0.651672   -1.946832    0.677343
  N     -2.521928    0.460088    1.420695
  N      1.962467   -1.055383   -0.968167
  N     -1.743084   -0.357823   -0.655421
  C      1.715364    0.220524    1.064413
  C     -1.025781    1.808078    0.044145
  C      0.962779   -0.895636    1.467193
  C     -1.834336    1.637272    1.128538
  C      2.103902    1.309459    1.991491
  C     -0.273679    3.068776   -0.204544
  C      2.223003    0.223095   -0.298860
  C     -1.007558    0.777444   -1.030102
  C      1.035753   -2.019097   -0.635790
  C     -2.349082   -0.614159    0.544564
  H      0.745159   -0.987030    2.528874
  H     -1.953609    2.378198    1.905149
  H      1.280682    2.029682    2.065219
  H      2.309398    0.953773    3.023500
  H      2.981371    1.838363    1.667679
  H     -0.452996    3.326030   -1.271106
  H     -0.538454    3.763846    0.555880
  H      0.799219    2.993025   -0.098415
  H     -0.023462   -2.661428    0.957086
  H     -2.944758    0.238620    2.309325
  H      2.161539   -1.034622   -1.904601
  H     -1.711570   -1.094957   -1.334672

 Total Charge           Charge          ....    0
 Multiplicity           Mult            ....    3
 Number of Electrons    NEL             ....  132
 Basis Dimension        Dim             ....  882

ORBITAL ENERGIES
----------------
                 SPIN UP ORBITALS
  NO   OCC          E(Eh)            E(eV)
   0   1.0000     -19.333189      -526.0828
   1   1.0000     -19.328823      -525.9640
   2   1.0000     -19.326107      -525.8901
   3   1.0000     -19.325143      -525.8639
   4   1.0000     -14.589785      -397.0082
   5   1.0000     -14.587009      -396.9327
   6   1.0000     -14.572922      -396.5494
   7   1.0000     -14.538279      -395.6067
   8   1.0000     -10.516398      -286.1657
   9   1.0000     -10.501954      -285.7727
  10   1.0000     -10.485686      -285.3300
  11   1.0000     -10.465200      -284.7726
  12   1.0000     -10.439704      -284.0788
  13   1.0000     -10.411882      -283.3217
  14   1.0000     -10.401599      -283.0419
  15   1.0000     -10.388282      -282.6795
  16   1.0000     -10.371176      -282.2141
  17   1.0000     -10.354351      -281.7562
  18   1.0000      -1.223567       -33.2949
  19   1.0000      -1.218778       -33.1646
  20   1.0000      -1.199445       -32.6386
  21   1.0000      -1.193924       -32.4883
  22   1.0000      -1.123498       -30.5719
  23   1.0000      -1.114545       -30.3283
  24   1.0000      -1.074423       -29.2365
  25   1.0000      -1.052123       -28.6297
  26   1.0000      -0.968056       -26.3421
  27   1.0000      -0.953856       -25.9557
  28   1.0000      -0.855249       -23.2725
  29   1.0000      -0.843849       -22.9623
  30   1.0000      -0.810651       -22.0589
  31   1.0000      -0.808507       -22.0006
  32   1.0000      -0.799802       -21.7637
  33   1.0000      -0.778481       -21.1835
  34   1.0000      -0.698804       -19.0154
  35   1.0000      -0.694191       -18.8899
  36   1.0000      -0.690747       -18.7962
  37   1.0000      -0.682152       -18.5623
  38   1.0000      -0.643952       -17.5228
  39   1.0000      -0.634138       -17.2558
  40   1.0000      -0.621419       -16.9097
  41   1.0000      -0.603852       -16.4316
  42   1.0000      -0.599094       -16.3022
  43   1.0000      -0.591322       -16.0907
  44   1.0000      -0.574865       -15.6429
  45   1.0000      -0.564653       -15.3650
  46   1.0000      -0.561635       -15.2829
  47   1.0000      -0.560094       -15.2409
  48   1.0000      -0.551607       -15.0100
  49   1.0000      -0.544819       -14.8253
  50   1.0000      -0.536599       -14.6016
  51   1.0000      -0.527210       -14.3461
  52   1.0000      -0.522252       -14.2112
  53   1.0000      -0.512506       -13.9460
  54   1.0000      -0.507707       -13.8154
  55   1.0000      -0.503896       -13.7117
  56   1.0000      -0.488214       -13.2850
  57   1.0000      -0.473924       -12.8961
  58   1.0000      -0.421300       -11.4642
  59   1.0000      -0.417215       -11.3530
  60   1.0000      -0.406808       -11.0698
  61   1.0000      -0.398104       -10.8330
  62   1.0000      -0.391861       -10.6631
  63   1.0000      -0.387193       -10.5361
  64   1.0000      -0.380638       -10.3577
  65   1.0000      -0.344708        -9.3800
  66   1.0000      -0.220558        -6.0017
  67   0.0000       0.011258         0.3064
  68   0.0000       0.015993         0.4352
  69   0.0000       0.032236         0.8772
  70   0.0000       0.035664         0.9705
  71   0.0000       0.042761         1.1636

                 SPIN DOWN ORBITALS
  NO   OCC          E(Eh)            E(eV)
   0   1.0000     -19.333204      -526.0832
   1   1.0000     -19.325127      -525.8634
   2   1.0000     -19.323953      -525.8315
   3   1.0000     -19.322721      -525.7980
   4   1.0000     -14.586844      -396.9282
   5   1.0000     -14.585315      -396.8866
   6   1.0000     -14.572944      -396.5500
   7   1.0000     -14.537496      -395.5854
   8   1.0000     -10.516397      -286.1657
   9   1.0000     -10.502156      -285.7782
  10   1.0000     -10.485673      -285.3297
  11   1.0000     -10.465349      -284.7766
  12   1.0000     -10.439468      -284.0724
  13   1.0000     -10.401966      -283.0519
  14   1.0000     -10.391258      -282.7605
  15   1.0000     -10.388301      -282.6800
  16   1.0000     -10.371688      -282.2280
  17   1.0000     -10.354341      -281.7559
  18   1.0000      -1.223231       -33.2858
  19   1.0000      -1.214369       -33.0447
  20   1.0000      -1.199394       -32.6372
  21   1.0000      -1.184591       -32.2344
  22   1.0000      -1.114432       -30.3252
  23   1.0000      -1.113018       -30.2868
  24   1.0000      -1.074332       -29.2340
  25   1.0000      -1.047787       -28.5117
  26   1.0000      -0.954830       -25.9822
  27   1.0000      -0.943785       -25.6817
  28   1.0000      -0.844503       -22.9801
  29   1.0000      -0.842060       -22.9136
  30   1.0000      -0.808802       -22.0086
  31   1.0000      -0.800250       -21.7759
  32   1.0000      -0.797760       -21.7082
  33   1.0000      -0.771740       -21.0001
  34   1.0000      -0.694363       -18.8946
  35   1.0000      -0.690543       -18.7906
  36   1.0000      -0.686976       -18.6936
  37   1.0000      -0.674294       -18.3485
  38   1.0000      -0.643802       -17.5188
  39   1.0000      -0.624008       -16.9801
  40   1.0000      -0.616004       -16.7623
  41   1.0000      -0.603278       -16.4160
  42   1.0000      -0.587603       -15.9895
  43   1.0000      -0.582892       -15.8613
  44   1.0000      -0.562780       -15.3140
  45   1.0000      -0.560724       -15.2581
  46   1.0000      -0.560312       -15.2469
  47   1.0000      -0.555279       -15.1099
  48   1.0000      -0.545012       -14.8305
  49   1.0000      -0.538614       -14.6564
  50   1.0000      -0.528124       -14.3710
  51   1.0000      -0.521580       -14.1929
  52   1.0000      -0.513414       -13.9707
  53   1.0000      -0.506919       -13.7940
  54   1.0000      -0.503216       -13.6932
  55   1.0000      -0.497307       -13.5324
  56   1.0000      -0.472787       -12.8652
  57   1.0000      -0.445919       -12.1341
  58   1.0000      -0.417469       -11.3599
  59   1.0000      -0.413013       -11.2386
  60   1.0000      -0.405172       -11.0253
  61   1.0000      -0.392150       -10.6709
  62   1.0000      -0.380723       -10.3600
  63   1.0000      -0.377794       -10.2803
  64   1.0000      -0.345310        -9.3964
  65   0.0000      -0.097013        -2.6399
  66   0.0000       0.010212         0.2779
  67   0.0000       0.016294         0.4434
  68   0.0000       0.028108         0.7649
  69   0.0000       0.034648         0.9428

----------------------------------------------------------------------------------------------------
          SPIN FLIP ABSORPTION SPECTRUM VIA TRANSITION ELECTRIC DIPOLE MOMENTS
----------------------------------------------------------------------------------------------------
     Transition      Energy     Energy  Wavelength fosc(D2)      D2        DX        DY        DZ
                      (eV)      (cm-1)    (nm)                 (au**2)    (au)      (au)      (au)
----------------------------------------------------------------------------------------------------
  1-3A  ->  2-3A    3.657531   29500.0   339.0   0.001454572   0.01623   0.06505   0.07298  -0.08171

Dispersion correction             ... done (  0.1 sec)

MULLIKEN ATOMIC CHARGES AND SPIN DENSITIES
------------------------------------------
   0 O :   -0.642069    0.001476
   1 O :   -0.635517   -0.001249
   2 O :   -0.628007    0.003820
   3 O :   -0.675035    0.000466
   4 N :    0.044450    0.019968
   5 N :   -0.024263   -0.002737
   6 N :   -0.016675   -0.008333
   7 N :    0.030338   -0.000235
   8 C :    1.082180    0.069852
   9 C :    0.463141    0.001086
  10 C :   -0.292927    0.075063
  11 C :    0.124222    0.000597
  12 C :   -1.219111   -0.017915
  13 C :   -1.329596   -0.001269
  14 C :    0.167342   -0.146569
  15 C :    0.552539   -0.005479
  16 C :    0.460391    0.005176
  17 C :    0.397128   -0.003376
  18 H :    0.108510   -0.015703
  19 H :    0.158704    0.001568
  20 H :    0.228493    0.024784
  21 H :    0.389122    0.001544
  22 H :    0.268665    0.000870
  23 H :    0.355553    0.000148
  24 H :    0.329229   -0.000388
  25 H :    0.162186   -0.002596
  26 H :    0.096707   -0.001814
  27 H :    0.058078    0.000870
  28 H :   -0.023963    0.000866
  29 H :    0.010184   -0.000493
Sum of atomic charges       :   -0.0000000

LOEWDIN ATOMIC CHARGES AND SPIN DENSITIES
-----------------------------------------
   0 O :    0.091100    0.002194
   1 O :    0.112060   -0.000661
   2 O :    0.103043    0.003011
   3 O :    0.055235   -0.000032
   4 N :    0.282725    0.016532
   5 N :    0.274347   -0.001926
   6 N :    0.351107   -0.007044
   7 N :    0.338546   -0.000247
   8 C :   -0.088844    0.012899
   9 C :   -0.130814   -0.000115
  10 C :    0.019916   -0.010283
  11 C :    0.065509   -0.000356
  12 C :    0.191355    0.002471
  13 C :    0.178116   -0.000160
  14 C :   -0.394302   -0.008263
  15 C :   -0.388443   -0.000079
  16 C :   -0.486445   -0.003198
  17 C :   -0.472488   -0.000253
  18 H :    0.002043   -0.006860
  19 H :    0.028475   -0.000152
  20 H :   -0.002868    0.001523
  21 H :    0.017939    0.000248
  22 H :   -0.007340    0.000281
  23 H :    0.022779   -0.000015
  24 H :   -0.026970   -0.000068
  25 H :   -0.020961   -0.000042
  26 H :    0.009897    0.001658
  27 H :   -0.019873   -0.000128
  28 H :   -0.088293   -0.000906
  29 H :   -0.016551   -0.000027

  Mayer bond orders larger than 0.100000
B(  0-O , 14-C ) :   1.2823 B(  1-O , 15-C ) :   1.4294 B(  2-O , 16-C ) :   1.5325
B(  3-O , 17-C ) :   1.4965 B(  4-N , 10-C ) :   0.9615 B(  4-N , 16-C ) :   0.9374
B(  4-N , 26-H ) :   1.0734 B(  5-N , 11-C ) :   0.9603 B(  5-N , 17-C ) :   1.0736
B(  5-N , 27-H ) :   1.0924 B(  6-N , 14-C ) :   0.7890 B(  6-N , 16-C ) :   0.9319
B(  6-N , 28-H ) :   1.1046 B(  7-N , 15-C ) :   0.9626 B(  7-N , 17-C ) :   0.9326
B(  7-N , 29-H ) :   1.1349 B(  8-C , 10-C ) :   0.4646 B(  8-C , 12-C ) :   0.5769
B(  8-C , 14-C ) :   0.6763 B(  8-C , 18-H ) :  -0.1676 B(  9-C , 11-C ) :   1.0768
B(  9-C , 13-C ) :   0.5473 B(  9-C , 15-C ) :   0.7874 B(  9-C , 24-H ) :  -0.1056
B(  9-C , 25-H ) :  -0.1026 B( 10-C , 16-C ) :  -0.1021 B( 10-C , 18-H ) :   1.1989
B( 11-C , 13-C ) :  -0.1732 B( 11-C , 19-H ) :   1.0999 B( 12-C , 20-H ) :   0.9233
B( 12-C , 21-H ) :   0.8761 B( 12-C , 22-H ) :   1.0131 B( 13-C , 23-H ) :   0.8259
B( 13-C , 24-H ) :   1.0396 B( 13-C , 25-H ) :   1.0480

Dispersion correction           -0.056615804
FINAL SINGLE POINT ENERGY      -908.761027026143

DIPOLE MOMENT
-------------

Method             : TDA/CIS
Type of density    : Electron Density
Level              : Relaxed density
State              :   2
Multiplicity       :   3
Irrep              :   0
Energy             :     0.0000000000000000 Eh
Relativity type    :
Basis              : AO
                                X                 Y                 Z
Electronic contribution:     -3.075857709     -10.053904209      -6.615120463
Nuclear contribution   :      2.300961299      11.182658086       9.233845551
                        -----------------------------------------
Total Dipole Moment    :     -0.774896410       1.128753877       2.618725089
                        -----------------------------------------
Magnitude (a.u.)       :      2.955041599
Magnitude (Debye)      :      7.511118826

Rotational constants in cm-1:             0.017860             0.014843             0.011705
Rotational constants in MHz :           535.426628           444.983001           350.914813

                             ****ORCA TERMINATED NORMALLY****
TOTAL RUN TIME: 0 days 0 hours 5 minutes 8 seconds 733 msec
