                         Program Version 6.0.0  -   RELEASE  -
|  1> ! EnGrad wB97M-D3BJ def2-TZVPPD
|  2> %pal nprocs 8 end%pal nprocs 16 end
|  3> %tddft
|  4>  sf true
|  5>  nroots 2 Iroot 1 end
|  6> *xyz 0 3
|  7> O   0.70937556126862 1.33586693361277 0.07761229206744
|  8> C   0.5594648836356 0.19183318278981 -0.25358833563444
|  9> C   -0.45032624699331 -0.8050166186138 0.22470167138627
| 10> H   0.07944063579793 -1.66643799364054 0.63205408533424
| 11> H   1.24287240660773 -0.23088525422898 -1.02008677084289
| 12> H   -1.02206484490995 -1.15862892698659 -0.63371173835275
| 13> H   -1.11656239540662 -0.38513132293267 0.97301879604213
| 14> *
| 15>
| 16>                          ****END OF INPUT****

CARTESIAN COORDINATES (ANGSTROEM)
---------------------------------
  O      0.709376    1.335867    0.077612
  C      0.559465    0.191833   -0.253588
  C     -0.450326   -0.805017    0.224702
  H      0.079441   -1.666438    0.632054
  H      1.242872   -0.230885   -1.020087
  H     -1.022065   -1.158629   -0.633712
  H     -1.116562   -0.385131    0.973019

 Total Charge           Charge          ....    0
 Multiplicity           Mult            ....    3
 Number of Electrons    NEL             ....   24
 Basis Dimension        Dim             ....  182

ORBITAL ENERGIES
----------------
                 SPIN UP ORBITALS
  NO   OCC          E(Eh)            E(eV)
   0   1.0000     -19.408573      -528.1341
   1   1.0000     -10.379497      -282.4405
   2   1.0000     -10.367844      -282.1234
   3   1.0000      -1.245239       -33.8847
   4   1.0000      -0.884499       -24.0684
   5   1.0000      -0.717195       -19.5159
   6   1.0000      -0.633330       -17.2338
   7   1.0000      -0.588131       -16.0039
   8   1.0000      -0.581585       -15.8257
   9   1.0000      -0.515773       -14.0349
  10   1.0000      -0.514716       -14.0061
  11   1.0000      -0.431161       -11.7325
  12   1.0000      -0.219262        -5.9664
  13   0.0000       0.040058         1.0900
  14   0.0000       0.060122         1.6360
  15   0.0000       0.078176         2.1273
  16   0.0000       0.087771         2.3884
  17   0.0000       0.107365         2.9215

                 SPIN DOWN ORBITALS
  NO   OCC          E(Eh)            E(eV)
   0   1.0000     -19.381109      -527.3868
   1   1.0000     -10.369244      -282.1615
   2   1.0000     -10.365750      -282.0664
   3   1.0000      -1.188024       -32.3278
   4   1.0000      -0.865382       -23.5482
   5   1.0000      -0.672071       -18.2880
   6   1.0000      -0.585842       -15.9416
   7   1.0000      -0.541145       -14.7253
   8   1.0000      -0.535644       -14.5756
   9   1.0000      -0.498859       -13.5746
  10   1.0000      -0.471486       -12.8298
  11   0.0000      -0.083261        -2.2656
  12   0.0000       0.040659         1.1064
  13   0.0000       0.059787         1.6269
  14   0.0000       0.077944         2.1210
  15   0.0000       0.084473         2.2986

----------------------------------------------------------------------------------------------------
          SPIN FLIP ABSORPTION SPECTRUM VIA TRANSITION ELECTRIC DIPOLE MOMENTS
----------------------------------------------------------------------------------------------------
     Transition      Energy     Energy  Wavelength fosc(D2)      D2        DX        DY        DZ
                      (eV)      (cm-1)    (nm)                 (au**2)    (au)      (au)      (au)
----------------------------------------------------------------------------------------------------
  1-3A  ->  2-3A    4.612343   37201.1   268.8   0.000157707   0.00140   0.02349  -0.01084   0.02695

Dispersion correction             ... done (  0.0 sec)

MULLIKEN ATOMIC CHARGES AND SPIN DENSITIES
------------------------------------------
   0 O :   -0.510867    0.055945
   1 C :    0.205501   -0.175988
   2 C :   -0.690012    0.046135
   3 H :    0.234147   -0.004553
   4 H :    0.288677    0.078300
   5 H :    0.233237   -0.004432
   6 H :    0.239316    0.004594
Sum of atomic charges       :    0.0000000

LOEWDIN ATOMIC CHARGES AND SPIN DENSITIES
-----------------------------------------
   0 O :    0.046236    0.021872
   1 C :   -0.231803   -0.015259
   2 C :    0.177859   -0.001953
   3 H :   -0.008080   -0.001310
   4 H :    0.029762   -0.003246
   5 H :   -0.008070   -0.001289
   6 H :   -0.005904    0.001184

  Mayer bond orders larger than 0.100000
B(  0-O ,  1-C ) :   1.7884 B(  1-C ,  2-C ) :   0.7372 B(  1-C ,  4-H ) :   0.9353
B(  2-C ,  3-H ) :   0.9908 B(  2-C ,  5-H ) :   0.9913 B(  2-C ,  6-H ) :   0.9622

Dispersion correction           -0.005525979
FINAL SINGLE POINT ENERGY      -153.924173172669

DIPOLE MOMENT
-------------

Method             : TDA/CIS
Type of density    : Electron Density
Level              : Relaxed density
State              :   1
Multiplicity       :   3
Irrep              :   0
Energy             :     0.0000000000000000 Eh
Relativity type    :
Basis              : AO
                                X                 Y                 Z
Electronic contribution:      1.450730383       2.891221964      -0.098620337
Nuclear contribution   :     -1.767705230      -4.109899848      -0.116886623
                        -----------------------------------------
Total Dipole Moment    :     -0.316974848      -1.218677884      -0.215506960
                        -----------------------------------------
Magnitude (a.u.)       :      1.277533596
Magnitude (Debye)      :      3.247232338

Rotational constants in cm-1:             2.044775             0.329741             0.299584
Rotational constants in MHz :         61300.824087          9885.391361          8981.300305

                             ****ORCA TERMINATED NORMALLY****
TOTAL RUN TIME: 0 days 0 hours 0 minutes 16 seconds 805 msec
