                         Program Version 6.0.0  -   RELEASE  -
|  1> ! Opt wB97M-D3BJ def2-TZVPPD
|  2> %pal nprocs 8 end %pal nprocs 64 end
|  3> %geom
|  4> Constraints
|  5>     {A 2 1 0 103.63636363636363 C }
|  6> end
|  7> MaxIter 500
|  8> end
|  9> *xyz 0 1
| 10> O   -0.0007 0.8141 0.0
| 11> C   0.7509 -0.4065 0.0
| 12> C   -0.7502 -0.4076 0.0
| 13> H   1.2625 -0.6786 0.9136
| 14> H   1.2625 -0.6787 -0.9136
| 15> H   -1.2614 -0.6806 -0.9136
| 16> H   -1.2614 -0.6805 0.9136
| 17> *
| 18>
| 19>                          ****END OF INPUT****
 Total Charge           Charge          ....    0
 Multiplicity           Mult            ....    1
 Number of Electrons    NEL             ....   24
Dispersion correction           -0.005796209
FINAL SINGLE POINT ENERGY      -153.722083576682
Dispersion correction             ... done (  0.1 sec)
Dispersion correction           -0.005693718
FINAL SINGLE POINT ENERGY      -153.766764435033
Dispersion correction             ... done (  0.1 sec)
Dispersion correction           -0.005638866
FINAL SINGLE POINT ENERGY      -153.779959202450
Dispersion correction             ... done (  0.1 sec)
FINAL SINGLE POINT ENERGY      -153.786046129031
FINAL SINGLE POINT ENERGY      -153.787687033319
FINAL SINGLE POINT ENERGY      -153.787996848058
FINAL SINGLE POINT ENERGY      -153.788112457462
FINAL SINGLE POINT ENERGY      -153.788179819485
FINAL SINGLE POINT ENERGY      -153.788210356368
FINAL SINGLE POINT ENERGY      -153.788245210349
FINAL SINGLE POINT ENERGY      -153.788281129919
FINAL SINGLE POINT ENERGY      -153.788318002542
FINAL SINGLE POINT ENERGY      -153.788350781402
FINAL SINGLE POINT ENERGY      -153.788373057230
Dispersion correction             ... done (  0.1 sec)
Dispersion correction           -0.005632180
FINAL SINGLE POINT ENERGY      -153.788381780698
Dispersion correction             ... done (  0.1 sec)
Dispersion correction           -0.005633429
FINAL SINGLE POINT ENERGY      -153.788384712679
Dispersion correction             ... done (  0.2 sec)
                    ***********************HURRAY********************

CARTESIAN COORDINATES (ANGSTROEM)
---------------------------------
  O      0.458050    1.078321   -0.002926
  C      0.608315   -0.252582   -0.000586
  C     -0.747723   -0.748230    0.000844
  H      1.156496   -0.623179    0.880189
  H      1.156110   -0.626370   -0.880238
  H     -1.315249   -0.775301   -0.920869
  H     -1.313799   -0.771059    0.923585

 Multiplicity           Mult            ....    1
 Number of Electrons    NEL             ....   24
 Basis Dimension        Dim             ....  182

ORBITAL ENERGIES
----------------

  NO   OCC          E(Eh)            E(eV)
   0   2.0000     -19.326514      -525.9012
   1   2.0000     -10.450494      -284.3724
   2   2.0000     -10.397232      -282.9231
   3   2.0000      -1.122969       -30.5575
   4   2.0000      -0.887250       -24.1433
   5   2.0000      -0.733697       -19.9649
   6   2.0000      -0.625138       -17.0109
   7   2.0000      -0.572142       -15.5688
   8   2.0000      -0.517622       -14.0852
   9   2.0000      -0.512770       -13.9532
  10   2.0000      -0.364112        -9.9080
  11   2.0000      -0.350949        -9.5498
  12   0.0000      -0.068905        -1.8750
  13   0.0000       0.035236         0.9588
  14   0.0000       0.061327         1.6688
  15   0.0000       0.076167         2.0726
  16   0.0000       0.098639         2.6841

MULLIKEN ATOMIC CHARGES
-----------------------
   0 O :   -0.513835
   1 C :   -0.121822
   2 C :   -0.217405
   3 H :    0.210587
   4 H :    0.210747
   5 H :    0.215821
   6 H :    0.215908
Sum of atomic charges:   -0.0000000

LOEWDIN ATOMIC CHARGES
----------------------
   0 O :   -0.020501
   1 C :   -0.411677
   2 C :    0.406211
   3 H :    0.021273
   4 H :    0.021271
   5 H :   -0.008285
   6 H :   -0.008293

  Mayer bond orders larger than 0.100000
B(  0-O ,  1-C ) :   0.7618 B(  0-O ,  2-C ) :   0.8676 B(  1-C ,  2-C ) :   0.7920
B(  1-C ,  3-H ) :   1.0410 B(  1-C ,  4-H ) :   1.0409 B(  2-C ,  5-H ) :   0.9689
B(  2-C ,  6-H ) :   0.9688

Dispersion correction           -0.005634007
FINAL SINGLE POINT ENERGY      -153.788385424991

DIPOLE MOMENT
-------------

Method             : SCF
Type of density    : Electron Density
Multiplicity       :   1
Irrep              :   0
Energy             :  -153.7827514177204762 Eh
Relativity type    :
Basis              : AO
                                X                 Y                 Z
Electronic contribution:      0.112730365       1.414855177      -0.003196426
Nuclear contribution   :     -0.746358716      -2.813474660       0.005967359
                        -----------------------------------------
Total Dipole Moment    :     -0.633628351      -1.398619483       0.002770933
                        -----------------------------------------
Magnitude (a.u.)       :      1.535457268
Magnitude (Debye)      :      3.902822214

Rotational constants in cm-1:             1.237969             0.411770             0.351175
Rotational constants in MHz :         37113.387511         12344.545456         10527.967896

                             ****ORCA TERMINATED NORMALLY****
TOTAL RUN TIME: 0 days 0 hours 4 minutes 1 seconds 188 msec
