                         Program Version 6.0.0  -   RELEASE  -
|  1> ! Engrad def2-TZVPPD wB97M-D3BJ
|  2> %pal nprocs 8 end%pal nprocs 32 end
|  3> %tddft Nroots 2 Iroot 2
|  4> sf true
|  5> end
|  6> *xyz 0 3
|  7> O   0.51644379 1.25123578 -0.0253306
|  8> C   0.42816198 -0.26269282 -0.01174138
|  9> C   -0.87758918 -1.09574214 0.03936058
| 10> H   1.02427845 -0.64617022 0.80801711
| 11> H   0.99126536 -0.57014137 -0.89593979
| 12> H   -1.50034641 -1.07830934 -0.86265377
| 13> H   -1.42040026 -1.12832916 0.99238593
| 14> *
| 15>
| 16>                          ****END OF INPUT****

CARTESIAN COORDINATES (ANGSTROEM)
---------------------------------
  O      0.516444    1.251236   -0.025331
  C      0.428162   -0.262693   -0.011741
  C     -0.877589   -1.095742    0.039361
  H      1.024278   -0.646170    0.808017
  H      0.991265   -0.570141   -0.895940
  H     -1.500346   -1.078309   -0.862654
  H     -1.420400   -1.128329    0.992386

 Total Charge           Charge          ....    0
 Multiplicity           Mult            ....    3
 Number of Electrons    NEL             ....   24
 Basis Dimension        Dim             ....  182

ORBITAL ENERGIES
----------------
                 SPIN UP ORBITALS
  NO   OCC          E(Eh)            E(eV)
   0   1.0000     -19.401304      -527.9363
   1   1.0000     -10.418391      -283.4988
   2   1.0000     -10.387835      -282.6674
   3   1.0000      -1.125647       -30.6304
   4   1.0000      -0.879749       -23.9392
   5   1.0000      -0.739140       -20.1130
   6   1.0000      -0.601863       -16.3775
   7   1.0000      -0.550133       -14.9699
   8   1.0000      -0.535635       -14.5754
   9   1.0000      -0.522193       -14.2096
  10   1.0000      -0.446981       -12.1630
  11   1.0000      -0.419772       -11.4226
  12   1.0000      -0.354517        -9.6469
  13   0.0000       0.039232         1.0676
  14   0.0000       0.061373         1.6700
  15   0.0000       0.079180         2.1546
  16   0.0000       0.087459         2.3799
  17   0.0000       0.112311         3.0561

                 SPIN DOWN ORBITALS
  NO   OCC          E(Eh)            E(eV)
   0   1.0000     -19.375039      -527.2216
   1   1.0000     -10.419754      -283.5359
   2   1.0000     -10.374631      -282.3081
   3   1.0000      -1.060735       -28.8641
   4   1.0000      -0.850250       -23.1365
   5   1.0000      -0.715625       -19.4731
   6   1.0000      -0.577534       -15.7155
   7   1.0000      -0.519696       -14.1416
   8   1.0000      -0.511283       -13.9127
   9   1.0000      -0.483950       -13.1690
  10   1.0000      -0.389092       -10.5877
  11   0.0000      -0.051040        -1.3889
  12   0.0000      -0.024867        -0.6767
  13   0.0000       0.038427         1.0457
  14   0.0000       0.062008         1.6873
  15   0.0000       0.080637         2.1942

----------------------------------------------------------------------------------------------------
          SPIN FLIP ABSORPTION SPECTRUM VIA TRANSITION ELECTRIC DIPOLE MOMENTS
----------------------------------------------------------------------------------------------------
     Transition      Energy     Energy  Wavelength fosc(D2)      D2        DX        DY        DZ
                      (eV)      (cm-1)    (nm)                 (au**2)    (au)      (au)      (au)
----------------------------------------------------------------------------------------------------
  1-3A  ->  2-3A    0.096548     778.7  12841.7   0.000000500   0.00021  -0.00517  -0.00789  -0.01106

Dispersion correction             ... done (  0.1 sec)

MULLIKEN ATOMIC CHARGES AND SPIN DENSITIES
------------------------------------------
   0 O :   -0.279479   -0.873874
   1 C :   -0.091479   -0.018916
   2 C :   -0.557696    0.773130
   3 H :    0.213453    0.009825
   4 H :    0.214498    0.037899
   5 H :    0.251221    0.036600
   6 H :    0.249482    0.035337
Sum of atomic charges       :   -0.0000000

LOEWDIN ATOMIC CHARGES AND SPIN DENSITIES
-----------------------------------------
   0 O :   -0.026790   -0.850424
   1 C :   -0.139804    0.042790
   2 C :    0.276303    0.652522
   3 H :   -0.009861    0.001069
   4 H :   -0.003917    0.010834
   5 H :   -0.049054    0.071395
   6 H :   -0.046877    0.071814

  Mayer bond orders larger than 0.100000
B(  0-O ,  1-C ) :   0.8752 B(  0-O ,  2-C ) :   0.1325 B(  1-C ,  2-C ) :   0.7228
B(  1-C ,  3-H ) :   0.9738 B(  1-C ,  4-H ) :   0.9938 B(  2-C ,  5-H ) :   0.9801
B(  2-C ,  6-H ) :   0.9829

Dispersion correction           -0.005335379
FINAL SINGLE POINT ENERGY      -153.726404829962

DIPOLE MOMENT
-------------

Method             : TDA/CIS
Type of density    : Electron Density
Level              : Relaxed density
State              :   2
Multiplicity       :   3
Irrep              :   0
Energy             :     0.0000000000000000 Eh
Relativity type    :
Basis              : AO
                                X                 Y                 Z
Electronic contribution:      0.776857059       2.309440129      -0.018524763
Nuclear contribution   :     -1.008546779      -3.214379821       0.041534245
                        -----------------------------------------
Total Dipole Moment    :     -0.231689720      -0.904939692       0.023009481
                        -----------------------------------------
Magnitude (a.u.)       :      0.934411799
Magnitude (Debye)      :      2.375086041

Rotational constants in cm-1:             1.536536             0.276570             0.257270
Rotational constants in MHz :         46064.203709          8291.351674          7712.748040

                             ****ORCA TERMINATED NORMALLY****
TOTAL RUN TIME: 0 days 0 hours 0 minutes 17 seconds 654 msec
