                         Program Version 6.0.0  -   RELEASE  -
|  1> ! Opt wB97M-D3BJ def2-TZVPPD
|  2> %pal nprocs 8 end %pal nprocs 64 end
|  3> %geom
|  4> Constraints
|  5>     {A 2 1 0 110.0 C }
|  6> end
|  7> MaxIter 500
|  8> end
|  9> *xyz 0 1
| 10> O   -0.0007 0.8141 0.0
| 11> C   0.7509 -0.4065 0.0
| 12> C   -0.7502 -0.4076 0.0
| 13> H   1.2625 -0.6786 0.9136
| 14> H   1.2625 -0.6787 -0.9136
| 15> H   -1.2614 -0.6806 -0.9136
| 16> H   -1.2614 -0.6805 0.9136
| 17> *
| 18>
| 19>                          ****END OF INPUT****
 Total Charge           Charge          ....    0
 Multiplicity           Mult            ....    1
 Number of Electrons    NEL             ....   24
Dispersion correction           -0.005798646
FINAL SINGLE POINT ENERGY      -153.683285091016
Dispersion correction             ... done (  0.1 sec)
Dispersion correction           -0.005684676
FINAL SINGLE POINT ENERGY      -153.742070401251
Dispersion correction             ... done (  0.1 sec)
Dispersion correction           -0.005619765
FINAL SINGLE POINT ENERGY      -153.759138392873
Dispersion correction             ... done (  0.1 sec)
FINAL SINGLE POINT ENERGY      -153.767687578642
FINAL SINGLE POINT ENERGY      -153.770542658206
FINAL SINGLE POINT ENERGY      -153.771160790029
FINAL SINGLE POINT ENERGY      -153.771353767702
FINAL SINGLE POINT ENERGY      -153.771505766761
FINAL SINGLE POINT ENERGY      -153.771569261038
FINAL SINGLE POINT ENERGY      -153.771628016371
FINAL SINGLE POINT ENERGY      -153.773282013422
FINAL SINGLE POINT ENERGY      -153.773354847283
FINAL SINGLE POINT ENERGY      -153.773400908038
FINAL SINGLE POINT ENERGY      -153.773427794866
FINAL SINGLE POINT ENERGY      -153.773438047333
FINAL SINGLE POINT ENERGY      -153.773443902270
FINAL SINGLE POINT ENERGY      -153.773449995791
Dispersion correction             ... done (  0.2 sec)
Dispersion correction           -0.005611007
FINAL SINGLE POINT ENERGY      -153.773452959216
Dispersion correction             ... done (  0.2 sec)
Dispersion correction           -0.005611952
FINAL SINGLE POINT ENERGY      -153.773453726758
Dispersion correction             ... done (  0.2 sec)
                    ***********************HURRAY********************

CARTESIAN COORDINATES (ANGSTROEM)
---------------------------------
  O      0.551114    1.096378    0.279686
  C      0.582049   -0.197803    0.026678
  C     -0.756417   -0.729882    0.016353
  H      1.207762   -0.848430    0.699293
  H      1.033272   -0.419754   -0.968677
  H     -1.180367   -1.274920   -0.819838
  H     -1.435214   -0.343990    0.766505

 Multiplicity           Mult            ....    1
 Number of Electrons    NEL             ....   24
 Basis Dimension        Dim             ....  182

ORBITAL ENERGIES
----------------

  NO   OCC          E(Eh)            E(eV)
   0   2.0000     -19.291369      -524.9448
   1   2.0000     -10.446150      -284.2542
   2   2.0000     -10.409221      -283.2493
   3   2.0000      -1.109215       -30.1833
   4   2.0000      -0.893537       -24.3144
   5   2.0000      -0.737148       -20.0588
   6   2.0000      -0.622347       -16.9349
   7   2.0000      -0.571497       -15.5512
   8   2.0000      -0.535430       -14.5698
   9   2.0000      -0.495300       -13.4778
  10   2.0000      -0.341910        -9.3039
  11   2.0000      -0.336075        -9.1451
  12   0.0000      -0.074903        -2.0382
  13   0.0000       0.032928         0.8960
  14   0.0000       0.056923         1.5489
  15   0.0000       0.078475         2.1354
  16   0.0000       0.096610         2.6289

MULLIKEN ATOMIC CHARGES
-----------------------
   0 O :   -0.593657
   1 C :   -0.077012
   2 C :   -0.172675
   3 H :    0.221918
   4 H :    0.224682
   5 H :    0.174720
   6 H :    0.222024
Sum of atomic charges:    0.0000000

LOEWDIN ATOMIC CHARGES
----------------------
   0 O :   -0.073259
   1 C :   -0.415235
   2 C :    0.411995
   3 H :    0.052717
   4 H :    0.054903
   5 H :   -0.014513
   6 H :   -0.016608

  Mayer bond orders larger than 0.100000
B(  0-O ,  1-C ) :   1.0263 B(  0-O ,  2-C ) :   0.5445 B(  1-C ,  2-C ) :   1.0161
B(  1-C ,  3-H ) :   0.9377 B(  1-C ,  4-H ) :   0.9316 B(  2-C ,  5-H ) :   0.9829
B(  2-C ,  6-H ) :   0.9647

Dispersion correction           -0.005612088
FINAL SINGLE POINT ENERGY      -153.773453807806

DIPOLE MOMENT
-------------

Method             : SCF
Type of density    : Electron Density
Multiplicity       :   1
Irrep              :   0
Energy             :  -153.7678417201136938 Eh
Relativity type    :
Basis              : AO
                                X                 Y                 Z
Electronic contribution:      0.210929661       1.376449955       0.327418009
Nuclear contribution   :     -0.885910717      -2.990719166      -0.697696057
                        -----------------------------------------
Total Dipole Moment    :     -0.674981056      -1.614269210      -0.370278048
                        -----------------------------------------
Magnitude (a.u.)       :      1.788454736
Magnitude (Debye)      :      4.545890671

Rotational constants in cm-1:             1.391042             0.390777             0.333848
Rotational constants in MHz :         41702.382052         11715.203107         10008.506520

                             ****ORCA TERMINATED NORMALLY****
TOTAL RUN TIME: 0 days 0 hours 6 minutes 18 seconds 656 msec
