                         Program Version 6.0.0  -   RELEASE  -
|  1> ! Opt wB97M-D3BJ def2-TZVPPD
|  2> %pal nprocs 8 end %pal nprocs 64 end
|  3> %geom
|  4> Constraints
|  5>     {A 2 1 0 113.38983050847457 C }
|  6> end
|  7> MaxIter 200
|  8> end
|  9> *xyz 0 1
| 10> O   1.3189922188461374 0.9095692044442315 0.0
| 11> C   0.7509 -0.4065 0.0
| 12> C   -0.7502 -0.4076 0.0
| 13> H   1.2625 -0.6786 0.9136
| 14> H   1.2625 -0.6787 -0.9136
| 15> H   -1.2614 -0.6806 -0.9136
| 16> H   -1.2614 -0.6805 0.9136
| 17> *
| 18>
| 19>                          ****END OF INPUT****
 Total Charge           Charge          ....    0
 Multiplicity           Mult            ....    1
 Number of Electrons    NEL             ....   24
Dispersion correction           -0.005427184
FINAL SINGLE POINT ENERGY      -153.710544047077
Dispersion correction             ... done (  0.1 sec)
Dispersion correction           -0.005489442
FINAL SINGLE POINT ENERGY      -153.733598228461
Dispersion correction             ... done (  0.1 sec)
Dispersion correction           -0.005547091
FINAL SINGLE POINT ENERGY      -153.746817802708
Dispersion correction             ... done (  0.1 sec)
FINAL SINGLE POINT ENERGY      -153.757349756001
FINAL SINGLE POINT ENERGY      -153.761436371978
FINAL SINGLE POINT ENERGY      -153.762111381128
FINAL SINGLE POINT ENERGY      -153.763180960249
FINAL SINGLE POINT ENERGY      -153.765005573173
FINAL SINGLE POINT ENERGY      -153.767107707276
FINAL SINGLE POINT ENERGY      -153.769454252586
FINAL SINGLE POINT ENERGY      -153.925719268334
FINAL SINGLE POINT ENERGY      -153.925797374335
FINAL SINGLE POINT ENERGY      -153.925819235900
FINAL SINGLE POINT ENERGY      -153.925838606195
FINAL SINGLE POINT ENERGY      -153.925845667827
FINAL SINGLE POINT ENERGY      -153.925854013086
FINAL SINGLE POINT ENERGY      -153.925856025974
Dispersion correction             ... done (  0.1 sec)
Dispersion correction           -0.005556155
FINAL SINGLE POINT ENERGY      -153.925856902587
Dispersion correction             ... done (  0.1 sec)
Dispersion correction           -0.005556205
FINAL SINGLE POINT ENERGY      -153.925857150237
Dispersion correction             ... done (  0.1 sec)
                    ***********************HURRAY********************

CARTESIAN COORDINATES (ANGSTROEM)
---------------------------------
  O      0.940735    1.184634    0.072465
  C      0.891332    0.038446   -0.307282
  C     -0.317220   -0.713716    0.207759
  H     -0.017337   -1.597856    0.773639
  H      1.643479   -0.423420   -0.963330
  H     -0.934010   -1.072162   -0.618757
  H     -0.885088   -0.038857    0.835506

 Multiplicity           Mult            ....    1
 Number of Electrons    NEL             ....   24
 Basis Dimension        Dim             ....  182

ORBITAL ENERGIES
----------------

  NO   OCC          E(Eh)            E(eV)
   0   2.0000     -19.336627      -526.1764
   1   2.0000     -10.443765      -284.1893
   2   2.0000     -10.351406      -281.6761
   3   2.0000      -1.185986       -32.2723
   4   2.0000      -0.870916       -23.6988
   5   2.0000      -0.709992       -19.3199
   6   2.0000      -0.598707       -16.2916
   7   2.0000      -0.554903       -15.0997
   8   2.0000      -0.545219       -14.8362
   9   2.0000      -0.507268       -13.8035
  10   2.0000      -0.470953       -12.8153
  11   2.0000      -0.366286        -9.9672
  12   0.0000       0.039333         1.0703
  13   0.0000       0.050218         1.3665
  14   0.0000       0.058848         1.6013
  15   0.0000       0.084953         2.3117
  16   0.0000       0.087278         2.3750

MULLIKEN ATOMIC CHARGES
-----------------------
   0 O :   -0.472533
   1 C :    0.245510
   2 C :   -0.688852
   3 H :    0.218904
   4 H :    0.243079
   5 H :    0.216932
   6 H :    0.236961
Sum of atomic charges:   -0.0000000

LOEWDIN ATOMIC CHARGES
----------------------
   0 O :    0.048515
   1 C :   -0.190344
   2 C :    0.163403
   3 H :   -0.015870
   4 H :    0.022793
   5 H :   -0.015544
   6 H :   -0.012954

  Mayer bond orders larger than 0.100000
B(  0-O ,  1-C ) :   1.7729 B(  1-C ,  2-C ) :   0.7834 B(  1-C ,  4-H ) :   0.9812
B(  2-C ,  3-H ) :   0.9949 B(  2-C ,  5-H ) :   0.9935 B(  2-C ,  6-H ) :   0.9609

Dispersion correction           -0.005556215
FINAL SINGLE POINT ENERGY      -153.925857182417

DIPOLE MOMENT
-------------

Method             : SCF
Type of density    : Electron Density
Multiplicity       :   1
Irrep              :   0
Energy             :  -153.9203009670853248 Eh
Relativity type    :
Basis              : AO
                                X                 Y                 Z
Electronic contribution:      1.839637509       2.554834430      -0.274198367
Nuclear contribution   :     -2.027384264      -3.578354798       0.027203526
                        -----------------------------------------
Total Dipole Moment    :     -0.187746755      -1.023520367      -0.246994841
                        -----------------------------------------
Magnitude (a.u.)       :      1.069508877
Magnitude (Debye)      :      2.718475524

Rotational constants in cm-1:             1.635734             0.371948             0.320801
Rotational constants in MHz :         49038.073784         11150.715160          9617.370086

                             ****ORCA TERMINATED NORMALLY****
TOTAL RUN TIME: 0 days 0 hours 10 minutes 14 seconds 96 msec
