                         Program Version 6.0.0  -   RELEASE  -
|  1> ! Engrad def2-TZVPPD wB97M-D3BJ
|  2> %pal nprocs 8 end%pal nprocs 64 end
|  3> %tddft Nroots 2 Iroot 2
|  4> sf true
|  5> end
|  6> *xyz 0 3
|  7> O   2.81256611 1.29114899 -0.56370865
|  8> O   -0.51974709 0.48881336 -1.98494433
|  9> O   1.32153862 -2.82436259 -1.68217023
| 10> O   -3.00534811 -1.48184222 1.20079119
| 11> N   0.64398322 -1.98791178 0.32539978
| 12> N   -2.24610893 0.60848807 1.62947306
| 13> N   2.08180115 -0.81138187 -1.04026921
| 14> N   -1.91550921 -0.3406641 -0.41545387
| 15> C   1.41910695 0.21119977 0.99290645
| 16> C   -0.83078683 1.72083459 0.04679272
| 17> C   0.67256087 -0.94539988 1.24550188
| 18> C   -1.45180857 1.6648448 1.23069105
| 19> C   1.52132968 1.31965645 2.01824034
| 20> C   0.0087458 2.85786743 -0.39426853
| 21> C   2.11975724 0.32613439 -0.2344459
| 22> C   -0.99710006 0.61652764 -0.87965305
| 23> C   1.36964683 -1.9498178 -0.85054894
| 24> C   -2.42923793 -0.47941492 0.82935684
| 25> H   0.06321717 -1.05979299 2.01692801
| 26> H   -1.41774066 2.47674876 1.90373167
| 27> H   1.41770039 2.28203375 1.49399249
| 28> H   0.79138222 1.14387396 2.81906393
| 29> H   2.53679477 1.27875075 2.44328954
| 30> H   -0.22532552 3.2631195 -1.35584102
| 31> H   -0.0358846 3.68666519 0.32722772
| 32> H   1.06569675 2.52976774 -0.51014397
| 33> H   0.09044655 -2.78727749 0.48000902
| 34> H   -2.73879813 0.6136779 2.50874217
| 35> H   2.58671814 -0.76485247 -1.90960177
| 36> H   -1.89675941 -1.16163249 -0.99812274
| 37> *
| 38>
| 39>                          ****END OF INPUT****

CARTESIAN COORDINATES (ANGSTROEM)
---------------------------------
  O      2.812566    1.291149   -0.563709
  O     -0.519747    0.488813   -1.984944
  O      1.321539   -2.824363   -1.682170
  O     -3.005348   -1.481842    1.200791
  N      0.643983   -1.987912    0.325400
  N     -2.246109    0.608488    1.629473
  N      2.081801   -0.811382   -1.040269
  N     -1.915509   -0.340664   -0.415454
  C      1.419107    0.211200    0.992906
  C     -0.830787    1.720835    0.046793
  C      0.672561   -0.945400    1.245502
  C     -1.451809    1.664845    1.230691
  C      1.521330    1.319656    2.018240
  C      0.008746    2.857867   -0.394269
  C      2.119757    0.326134   -0.234446
  C     -0.997100    0.616528   -0.879653
  C      1.369647   -1.949818   -0.850549
  C     -2.429238   -0.479415    0.829357
  H      0.063217   -1.059793    2.016928
  H     -1.417741    2.476749    1.903732
  H      1.417700    2.282034    1.493992
  H      0.791382    1.143874    2.819064
  H      2.536795    1.278751    2.443290
  H     -0.225326    3.263119   -1.355841
  H     -0.035885    3.686665    0.327228
  H      1.065697    2.529768   -0.510144
  H      0.090447   -2.787277    0.480009
  H     -2.738798    0.613678    2.508742
  H      2.586718   -0.764852   -1.909602
  H     -1.896759   -1.161632   -0.998123

 Total Charge           Charge          ....    0
 Multiplicity           Mult            ....    3
 Number of Electrons    NEL             ....  132
 Basis Dimension        Dim             ....  882

ORBITAL ENERGIES
----------------
                 SPIN UP ORBITALS
  NO   OCC          E(Eh)            E(eV)
   0   1.0000     -19.330796      -526.0177
   1   1.0000     -19.325553      -525.8750
   2   1.0000     -19.323180      -525.8105
   3   1.0000     -19.322526      -525.7927
   4   1.0000     -14.590045      -397.0153
   5   1.0000     -14.586880      -396.9292
   6   1.0000     -14.569123      -396.4460
   7   1.0000     -14.547429      -395.8557
   8   1.0000     -10.512403      -286.0570
   9   1.0000     -10.502690      -285.7927
  10   1.0000     -10.482662      -285.2477
  11   1.0000     -10.457606      -284.5659
  12   1.0000     -10.437884      -284.0293
  13   1.0000     -10.413416      -283.3635
  14   1.0000     -10.396720      -282.9091
  15   1.0000     -10.385953      -282.6162
  16   1.0000     -10.376182      -282.3503
  17   1.0000     -10.351874      -281.6888
  18   1.0000      -1.231771       -33.5182
  19   1.0000      -1.222209       -33.2580
  20   1.0000      -1.199185       -32.6315
  21   1.0000      -1.184061       -32.2199
  22   1.0000      -1.128370       -30.7045
  23   1.0000      -1.118549       -30.4373
  24   1.0000      -1.075431       -29.2640
  25   1.0000      -1.061335       -28.8804
  26   1.0000      -0.976242       -26.5649
  27   1.0000      -0.961361       -26.1600
  28   1.0000      -0.856386       -23.3034
  29   1.0000      -0.852682       -23.2027
  30   1.0000      -0.821164       -22.3450
  31   1.0000      -0.815388       -22.1878
  32   1.0000      -0.803213       -21.8565
  33   1.0000      -0.791051       -21.5256
  34   1.0000      -0.703549       -19.1445
  35   1.0000      -0.698939       -19.0191
  36   1.0000      -0.696861       -18.9625
  37   1.0000      -0.690131       -18.7794
  38   1.0000      -0.651996       -17.7417
  39   1.0000      -0.640917       -17.4402
  40   1.0000      -0.633842       -17.2477
  41   1.0000      -0.609349       -16.5812
  42   1.0000      -0.604132       -16.4393
  43   1.0000      -0.600702       -16.3459
  44   1.0000      -0.580653       -15.8004
  45   1.0000      -0.567969       -15.4552
  46   1.0000      -0.563523       -15.3342
  47   1.0000      -0.559224       -15.2173
  48   1.0000      -0.556680       -15.1480
  49   1.0000      -0.540671       -14.7124
  50   1.0000      -0.530495       -14.4355
  51   1.0000      -0.525470       -14.2988
  52   1.0000      -0.522257       -14.2113
  53   1.0000      -0.517774       -14.0893
  54   1.0000      -0.509228       -13.8568
  55   1.0000      -0.499132       -13.5821
  56   1.0000      -0.486253       -13.2316
  57   1.0000      -0.479607       -13.0508
  58   1.0000      -0.422359       -11.4930
  59   1.0000      -0.415793       -11.3143
  60   1.0000      -0.408576       -11.1179
  61   1.0000      -0.397837       -10.8257
  62   1.0000      -0.392536       -10.6814
  63   1.0000      -0.389811       -10.6073
  64   1.0000      -0.382495       -10.4082
  65   1.0000      -0.347087        -9.4447
  66   1.0000      -0.226132        -6.1534
  67   0.0000       0.008924         0.2428
  68   0.0000       0.014598         0.3972
  69   0.0000       0.030286         0.8241
  70   0.0000       0.036705         0.9988
  71   0.0000       0.041598         1.1319

                 SPIN DOWN ORBITALS
  NO   OCC          E(Eh)            E(eV)
   0   1.0000     -19.330949      -526.0219
   1   1.0000     -19.325451      -525.8723
   2   1.0000     -19.321383      -525.7615
   3   1.0000     -19.315642      -525.6053
   4   1.0000     -14.589677      -397.0053
   5   1.0000     -14.582026      -396.7971
   6   1.0000     -14.569120      -396.4459
   7   1.0000     -14.546566      -395.8322
   8   1.0000     -10.512407      -286.0571
   9   1.0000     -10.503129      -285.8047
  10   1.0000     -10.482610      -285.2463
  11   1.0000     -10.457337      -284.5586
  12   1.0000     -10.437043      -284.0064
  13   1.0000     -10.404220      -283.1132
  14   1.0000     -10.386225      -282.6236
  15   1.0000     -10.386052      -282.6188
  16   1.0000     -10.376619      -282.3622
  17   1.0000     -10.351830      -281.6876
  18   1.0000      -1.231488       -33.5105
  19   1.0000      -1.218202       -33.1490
  20   1.0000      -1.199266       -32.6337
  21   1.0000      -1.173991       -31.9459
  22   1.0000      -1.127714       -30.6867
  23   1.0000      -1.108118       -30.1534
  24   1.0000      -1.075174       -29.2570
  25   1.0000      -1.055599       -28.7243
  26   1.0000      -0.969315       -26.3764
  27   1.0000      -0.945179       -25.7196
  28   1.0000      -0.852632       -23.2013
  29   1.0000      -0.844410       -22.9776
  30   1.0000      -0.815927       -22.2025
  31   1.0000      -0.807536       -21.9742
  32   1.0000      -0.802394       -21.8343
  33   1.0000      -0.785700       -21.3800
  34   1.0000      -0.702622       -19.1193
  35   1.0000      -0.698057       -18.9951
  36   1.0000      -0.690727       -18.7956
  37   1.0000      -0.678504       -18.4630
  38   1.0000      -0.647737       -17.6258
  39   1.0000      -0.635610       -17.2958
  40   1.0000      -0.625013       -17.0075
  41   1.0000      -0.605457       -16.4753
  42   1.0000      -0.596641       -16.2354
  43   1.0000      -0.592245       -16.1158
  44   1.0000      -0.570499       -15.5241
  45   1.0000      -0.566994       -15.4287
  46   1.0000      -0.559134       -15.2148
  47   1.0000      -0.557090       -15.1592
  48   1.0000      -0.549774       -14.9601
  49   1.0000      -0.537048       -14.6138
  50   1.0000      -0.527928       -14.3656
  51   1.0000      -0.515703       -14.0330
  52   1.0000      -0.513250       -13.9662
  53   1.0000      -0.509799       -13.8723
  54   1.0000      -0.498727       -13.5710
  55   1.0000      -0.493222       -13.4212
  56   1.0000      -0.475908       -12.9501
  57   1.0000      -0.444510       -12.0957
  58   1.0000      -0.421569       -11.4715
  59   1.0000      -0.410971       -11.1831
  60   1.0000      -0.403473       -10.9791
  61   1.0000      -0.392086       -10.6692
  62   1.0000      -0.380548       -10.3552
  63   1.0000      -0.373433       -10.1616
  64   1.0000      -0.350053        -9.5254
  65   0.0000      -0.103268        -2.8101
  66   0.0000       0.008625         0.2347
  67   0.0000       0.017189         0.4677
  68   0.0000       0.026686         0.7262
  69   0.0000       0.034141         0.9290

----------------------------------------------------------------------------------------------------
          SPIN FLIP ABSORPTION SPECTRUM VIA TRANSITION ELECTRIC DIPOLE MOMENTS
----------------------------------------------------------------------------------------------------
     Transition      Energy     Energy  Wavelength fosc(D2)      D2        DX        DY        DZ
                      (eV)      (cm-1)    (nm)                 (au**2)    (au)      (au)      (au)
----------------------------------------------------------------------------------------------------
  1-3A  ->  2-3A    3.583310   28901.3   346.0   0.000702515   0.00800   0.03385   0.04999  -0.06601

Dispersion correction             ... done (  0.1 sec)

MULLIKEN ATOMIC CHARGES AND SPIN DENSITIES
------------------------------------------
   0 O :   -0.724723    0.010335
   1 O :   -0.644324   -0.001003
   2 O :   -0.637526    0.000295
   3 O :   -0.673907    0.000325
   4 N :    0.055626    0.021951
   5 N :    0.003389   -0.001964
   6 N :    0.000668   -0.007176
   7 N :   -0.020348   -0.001223
   8 C :    1.111144    0.032797
   9 C :    0.381298    0.014999
  10 C :   -0.734027    0.055265
  11 C :    0.135373   -0.001120
  12 C :   -1.447621   -0.030770
  13 C :   -1.375603    0.001731
  14 C :    0.221062   -0.093961
  15 C :    0.602262   -0.014749
  16 C :    0.540627    0.004756
  17 C :    0.456347   -0.000119
  18 H :    0.540164    0.005280
  19 H :    0.249864   -0.002096
  20 H :    0.257211    0.000493
  21 H :    0.311850   -0.000330
  22 H :    0.449146    0.011328
  23 H :    0.327215   -0.000477
  24 H :    0.324980   -0.000291
  25 H :    0.189921   -0.001324
  26 H :    0.004779   -0.002497
  27 H :    0.031887   -0.000890
  28 H :    0.015294    0.001095
  29 H :    0.047972   -0.000661
Sum of atomic charges       :   -0.0000000

LOEWDIN ATOMIC CHARGES AND SPIN DENSITIES
-----------------------------------------
   0 O :    0.057342    0.009891
   1 O :    0.118849   -0.000853
   2 O :    0.111114   -0.000088
   3 O :    0.077647    0.000171
   4 N :    0.334908    0.015064
   5 N :    0.289400   -0.001123
   6 N :    0.321814   -0.004176
   7 N :    0.335642   -0.000483
   8 C :   -0.086119   -0.000494
   9 C :   -0.145624    0.000183
  10 C :    0.073857   -0.008371
  11 C :    0.063063   -0.000223
  12 C :    0.205539   -0.000313
  13 C :    0.179457    0.000096
  14 C :   -0.435435   -0.004298
  15 C :   -0.389946   -0.000303
  16 C :   -0.478280   -0.001726
  17 C :   -0.517586   -0.000055
  18 H :   -0.077611   -0.004328
  19 H :    0.024732   -0.000100
  20 H :   -0.012681    0.000337
  21 H :    0.000623   -0.000297
  22 H :    0.022052    0.000357
  23 H :   -0.005871    0.000032
  24 H :    0.010254   -0.000034
  25 H :   -0.021828   -0.000038
  26 H :   -0.031859    0.001731
  27 H :   -0.009709   -0.000082
  28 H :   -0.005795   -0.000449
  29 H :   -0.007952   -0.000029

  Mayer bond orders larger than 0.100000
B(  0-O , 14-C ) :   1.1707 B(  1-O , 15-C ) :   1.4322 B(  2-O , 16-C ) :   1.5503
B(  3-O , 17-C ) :   1.5383 B(  4-N , 10-C ) :   0.8881 B(  4-N , 16-C ) :   0.9699
B(  4-N , 26-H ) :   1.1519 B(  5-N , 11-C ) :   1.0134 B(  5-N , 17-C ) :   1.0421
B(  5-N , 27-H ) :   1.1251 B(  6-N , 14-C ) :   0.9596 B(  6-N , 16-C ) :   1.0032
B(  6-N , 28-H ) :   1.1134 B(  7-N , 15-C ) :   0.9521 B(  7-N , 17-C ) :   0.9722
B(  7-N , 29-H ) :   1.0720 B(  8-C , 10-C ) :   0.2290 B(  8-C , 12-C ) :   0.3429
B(  8-C , 14-C ) :   0.7959 B(  8-C , 20-H ) :  -0.1018 B(  8-C , 21-H ) :  -0.1117
B(  9-C , 11-C ) :   0.9261 B(  9-C , 13-C ) :   0.3827 B(  9-C , 15-C ) :   0.7267
B(  9-C , 24-H ) :  -0.1354 B(  9-C , 25-H ) :  -0.1174 B( 10-C , 12-C ) :  -0.1087
B( 10-C , 16-C ) :  -0.1060 B( 10-C , 18-H ) :   0.7709 B( 11-C , 13-C ) :  -0.1651
B( 11-C , 19-H ) :   1.0352 B( 12-C , 20-H ) :   1.0409 B( 12-C , 21-H ) :   1.0647
B( 12-C , 22-H ) :   0.7644 B( 13-C , 23-H ) :   0.9644 B( 13-C , 24-H ) :   1.0910
B( 13-C , 25-H ) :   0.9319

Dispersion correction           -0.061490621
FINAL SINGLE POINT ENERGY      -908.763556191569

DIPOLE MOMENT
-------------

Method             : TDA/CIS
Type of density    : Electron Density
Level              : Relaxed density
State              :   2
Multiplicity       :   3
Irrep              :   0
Energy             :     0.0000000000000000 Eh
Relativity type    :
Basis              : AO
                                X                 Y                 Z
Electronic contribution:     -2.559773684      -9.599022491      -5.579258885
Nuclear contribution   :      1.707791046      10.743894778       7.892167006
                        -----------------------------------------
Total Dipole Moment    :     -0.851982638       1.144872288       2.312908121
                        -----------------------------------------
Magnitude (a.u.)       :      2.717747403
Magnitude (Debye)      :      6.907964913

Rotational constants in cm-1:             0.019550             0.015069             0.011838
Rotational constants in MHz :           586.100099           451.747597           354.903012

                             ****ORCA TERMINATED NORMALLY****
TOTAL RUN TIME: 0 days 0 hours 5 minutes 17 seconds 429 msec
