                         Program Version 6.0.0  -   RELEASE  -
|  1> ! Engrad def2-TZVPPD wB97M-D3BJ
|  2> %pal nprocs 8 end%pal nprocs 32 end
|  3>  %tddft nroots 2 Iroot 2
|  4> sf true
|  5> end
|  6> *xyz 0 3
|  7> O   2.76435569416685 1.64726404092856 0.81436845629022
|  8> O   -1.9825302793877 0.19875887825559 -2.17436636648662
|  9> O   1.57262430667379 -1.49834873406658 -2.22465460780816
| 10> O   -3.20315711523363 -0.24968623241092 2.17341447678043
| 11> N   0.57750273669763 -1.52247384240871 -0.17245713220241
| 12> N   -1.44187705897455 1.09449622372402 1.65345454990104
| 13> N   2.26574211772415 -0.01588795505069 -0.6366500453485
| 14> N   -2.4753731072561 -0.13071227793205 0.01224221948481
| 15> C   1.01955606786102 0.15911449406748 1.42277264483222
| 16> C   -0.60915824429766 1.27606712254786 -0.56209675355787
| 17> C   0.49206102954125 -1.0483404328451 1.0985079645321
| 18> C   -0.42498238025269 1.43519316185225 0.75827830454252
| 19> C   1.12964461570234 0.56874766092035 2.870374711928
| 20> C   0.19466121878205 1.97768998786765 -1.61484154032007
| 21> C   2.08830170597049 0.67793477485975 0.54662865844954
| 22> C   -1.70767269609002 0.43897623715053 -1.01687635105219
| 23> C   1.47531420034849 -1.04202672185189 -1.11452344394798
| 24> C   -2.43820149145916 0.20336182683739 1.34840228668533
| 25> H   -0.14249710341526 -1.60369776580593 1.77168057094962
| 26> H   0.2323394497687 2.21500949635558 1.1138843573196
| 27> H   0.97047938302016 1.63755316397592 3.00384461410563
| 28> H   0.41588913488475 0.02042528925228 3.48057398610191
| 29> H   2.13024689360968 0.36114305449296 3.24114675265208
| 30> H   -0.43135704474536 2.70372492874015 -2.13279772097359
| 31> H   1.03813530011435 2.5078799658001 -1.17876415341783
| 32> H   0.55213929267131 1.28352686571853 -2.37317371211034
| 33> H   0.03659448561086 -2.31561824422326 -0.47226402929669
| 34> H   -1.33302724485115 1.28358757539317 2.63277227393584
| 35> H   2.93742334516164 0.35775969711895 -1.28852803199826
| 36> H   -3.25057721234627 -0.70642223926399 -0.27575293997037
| 37> *
| 38>
| 39>                          ****END OF INPUT****

CARTESIAN COORDINATES (ANGSTROEM)
---------------------------------
  O      2.764356    1.647264    0.814368
  O     -1.982530    0.198759   -2.174366
  O      1.572624   -1.498349   -2.224655
  O     -3.203157   -0.249686    2.173414
  N      0.577503   -1.522474   -0.172457
  N     -1.441877    1.094496    1.653455
  N      2.265742   -0.015888   -0.636650
  N     -2.475373   -0.130712    0.012242
  C      1.019556    0.159114    1.422773
  C     -0.609158    1.276067   -0.562097
  C      0.492061   -1.048340    1.098508
  C     -0.424982    1.435193    0.758278
  C      1.129645    0.568748    2.870375
  C      0.194661    1.977690   -1.614842
  C      2.088302    0.677935    0.546629
  C     -1.707673    0.438976   -1.016876
  C      1.475314   -1.042027   -1.114523
  C     -2.438201    0.203362    1.348402
  H     -0.142497   -1.603698    1.771681
  H      0.232339    2.215009    1.113884
  H      0.970479    1.637553    3.003845
  H      0.415889    0.020425    3.480574
  H      2.130247    0.361143    3.241147
  H     -0.431357    2.703725   -2.132798
  H      1.038135    2.507880   -1.178764
  H      0.552139    1.283527   -2.373174
  H      0.036594   -2.315618   -0.472264
  H     -1.333027    1.283588    2.632772
  H      2.937423    0.357760   -1.288528
  H     -3.250577   -0.706422   -0.275753

 Total Charge           Charge          ....    0
 Multiplicity           Mult            ....    3
 Number of Electrons    NEL             ....  132
 Basis Dimension        Dim             ....  882

ORBITAL ENERGIES
----------------
                 SPIN UP ORBITALS
  NO   OCC          E(Eh)            E(eV)
   0   1.0000     -19.337839      -526.2093
   1   1.0000     -19.333931      -526.1030
   2   1.0000     -19.332345      -526.0599
   3   1.0000     -19.323120      -525.8088
   4   1.0000     -14.580963      -396.7682
   5   1.0000     -14.573025      -396.5522
   6   1.0000     -14.568890      -396.4397
   7   1.0000     -14.562924      -396.2773
   8   1.0000     -10.513522      -286.0875
   9   1.0000     -10.507776      -285.9311
  10   1.0000     -10.487998      -285.3929
  11   1.0000     -10.479467      -285.1608
  12   1.0000     -10.436613      -283.9947
  13   1.0000     -10.412354      -283.3346
  14   1.0000     -10.406895      -283.1860
  15   1.0000     -10.405821      -283.1568
  16   1.0000     -10.375264      -282.3253
  17   1.0000     -10.367558      -282.1156
  18   1.0000      -1.233294       -33.5596
  19   1.0000      -1.222851       -33.2755
  20   1.0000      -1.206758       -32.8375
  21   1.0000      -1.198177       -32.6040
  22   1.0000      -1.130210       -30.7546
  23   1.0000      -1.118484       -30.4355
  24   1.0000      -1.076888       -29.3036
  25   1.0000      -1.065549       -28.9951
  26   1.0000      -0.985593       -26.8194
  27   1.0000      -0.970123       -26.3984
  28   1.0000      -0.861993       -23.4560
  29   1.0000      -0.857915       -23.3450
  30   1.0000      -0.822953       -22.3937
  31   1.0000      -0.815319       -22.1860
  32   1.0000      -0.799649       -21.7596
  33   1.0000      -0.789960       -21.4959
  34   1.0000      -0.707932       -19.2638
  35   1.0000      -0.705827       -19.2065
  36   1.0000      -0.695329       -18.9209
  37   1.0000      -0.693687       -18.8762
  38   1.0000      -0.659027       -17.9330
  39   1.0000      -0.645895       -17.5757
  40   1.0000      -0.637984       -17.3604
  41   1.0000      -0.605801       -16.4847
  42   1.0000      -0.604558       -16.4509
  43   1.0000      -0.600020       -16.3274
  44   1.0000      -0.574138       -15.6231
  45   1.0000      -0.570713       -15.5299
  46   1.0000      -0.568152       -15.4602
  47   1.0000      -0.563234       -15.3264
  48   1.0000      -0.558301       -15.1921
  49   1.0000      -0.552930       -15.0460
  50   1.0000      -0.539260       -14.6740
  51   1.0000      -0.534934       -14.5563
  52   1.0000      -0.528640       -14.3850
  53   1.0000      -0.525552       -14.3010
  54   1.0000      -0.517200       -14.0737
  55   1.0000      -0.507431       -13.8079
  56   1.0000      -0.504254       -13.7214
  57   1.0000      -0.466179       -12.6854
  58   1.0000      -0.425017       -11.5653
  59   1.0000      -0.419338       -11.4108
  60   1.0000      -0.412231       -11.2174
  61   1.0000      -0.407337       -11.0842
  62   1.0000      -0.401208       -10.9174
  63   1.0000      -0.392806       -10.6888
  64   1.0000      -0.378854       -10.3091
  65   1.0000      -0.356495        -9.7007
  66   1.0000      -0.225648        -6.1402
  67   0.0000       0.017114         0.4657
  68   0.0000       0.030236         0.8228
  69   0.0000       0.032881         0.8947
  70   0.0000       0.035033         0.9533
  71   0.0000       0.037914         1.0317

                 SPIN DOWN ORBITALS
  NO   OCC          E(Eh)            E(eV)
   0   1.0000     -19.337128      -526.1900
   1   1.0000     -19.330754      -526.0166
   2   1.0000     -19.330253      -526.0029
   3   1.0000     -19.322846      -525.8014
   4   1.0000     -14.578350      -396.6971
   5   1.0000     -14.572837      -396.5470
   6   1.0000     -14.568997      -396.4426
   7   1.0000     -14.562189      -396.2573
   8   1.0000     -10.513421      -286.0847
   9   1.0000     -10.507874      -285.9338
  10   1.0000     -10.487731      -285.3857
  11   1.0000     -10.480068      -285.1771
  12   1.0000     -10.434934      -283.9490
  13   1.0000     -10.408848      -283.2391
  14   1.0000     -10.396968      -282.9159
  15   1.0000     -10.396865      -282.9131
  16   1.0000     -10.375330      -282.3271
  17   1.0000     -10.367919      -282.1254
  18   1.0000      -1.230775       -33.4911
  19   1.0000      -1.221268       -33.2324
  20   1.0000      -1.205021       -32.7903
  21   1.0000      -1.193692       -32.4820
  22   1.0000      -1.124230       -30.5919
  23   1.0000      -1.115532       -30.3552
  24   1.0000      -1.073666       -29.2159
  25   1.0000      -1.063564       -28.9410
  26   1.0000      -0.974580       -26.5197
  27   1.0000      -0.956786       -26.0355
  28   1.0000      -0.854155       -23.2427
  29   1.0000      -0.853272       -23.2187
  30   1.0000      -0.815450       -22.1895
  31   1.0000      -0.809168       -22.0186
  32   1.0000      -0.796510       -21.6741
  33   1.0000      -0.788363       -21.4525
  34   1.0000      -0.703334       -19.1387
  35   1.0000      -0.699760       -19.0414
  36   1.0000      -0.689202       -18.7541
  37   1.0000      -0.688942       -18.7471
  38   1.0000      -0.646865       -17.6021
  39   1.0000      -0.641088       -17.4449
  40   1.0000      -0.629543       -17.1307
  41   1.0000      -0.601098       -16.3567
  42   1.0000      -0.599960       -16.3257
  43   1.0000      -0.595984       -16.2176
  44   1.0000      -0.569527       -15.4976
  45   1.0000      -0.566611       -15.4183
  46   1.0000      -0.561143       -15.2695
  47   1.0000      -0.559507       -15.2250
  48   1.0000      -0.548028       -14.9126
  49   1.0000      -0.542979       -14.7752
  50   1.0000      -0.533080       -14.5058
  51   1.0000      -0.529129       -14.3983
  52   1.0000      -0.522807       -14.2263
  53   1.0000      -0.518759       -14.1162
  54   1.0000      -0.513484       -13.9726
  55   1.0000      -0.502146       -13.6641
  56   1.0000      -0.483820       -13.1654
  57   1.0000      -0.444975       -12.1084
  58   1.0000      -0.422106       -11.4861
  59   1.0000      -0.416392       -11.3306
  60   1.0000      -0.406506       -11.0616
  61   1.0000      -0.398561       -10.8454
  62   1.0000      -0.394978       -10.7479
  63   1.0000      -0.388458       -10.5705
  64   1.0000      -0.349872        -9.5205
  65   0.0000      -0.104232        -2.8363
  66   0.0000       0.012802         0.3483
  67   0.0000       0.017165         0.4671
  68   0.0000       0.031570         0.8591
  69   0.0000       0.034781         0.9464

----------------------------------------------------------------------------------------------------
          SPIN FLIP ABSORPTION SPECTRUM VIA TRANSITION ELECTRIC DIPOLE MOMENTS
----------------------------------------------------------------------------------------------------
     Transition      Energy     Energy  Wavelength fosc(D2)      D2        DX        DY        DZ
                      (eV)      (cm-1)    (nm)                 (au**2)    (au)      (au)      (au)
----------------------------------------------------------------------------------------------------
  1-3A  ->  2-3A    2.793346   22529.9   443.9   0.002147475   0.03138   0.08774  -0.02157   0.15237

Dispersion correction             ... done (  0.1 sec)

MULLIKEN ATOMIC CHARGES AND SPIN DENSITIES
------------------------------------------
   0 O :   -0.656034    0.000369
   1 O :   -0.665706    0.005194
   2 O :   -0.627550    0.000212
   3 O :   -0.668508    0.000941
   4 N :    0.107976   -0.001828
   5 N :   -0.076734    0.000142
   6 N :    0.004932   -0.001279
   7 N :    0.052895   -0.002478
   8 C :    1.507465   -0.128392
   9 C :    1.075303    0.236764
  10 C :   -0.591502    0.143235
  11 C :   -0.672812   -0.146729
  12 C :   -1.580209   -0.009961
  13 C :   -1.591524   -0.014743
  14 C :    0.117366   -0.007199
  15 C :    0.126437   -0.073069
  16 C :    0.399915   -0.007924
  17 C :    0.427023    0.001980
  18 H :    0.216276   -0.007625
  19 H :    0.777093    0.000542
  20 H :    0.346597    0.000424
  21 H :    0.377184   -0.001173
  22 H :    0.399790    0.005484
  23 H :    0.402991    0.005116
  24 H :    0.306928   -0.001236
  25 H :    0.271937    0.003210
  26 H :    0.034573    0.000634
  27 H :    0.104548   -0.001796
  28 H :    0.045225    0.000048
  29 H :    0.028125    0.001137
Sum of atomic charges       :    0.0000000

LOEWDIN ATOMIC CHARGES AND SPIN DENSITIES
-----------------------------------------
   0 O :    0.102535   -0.000468
   1 O :    0.100716    0.004773
   2 O :    0.111203   -0.000172
   3 O :    0.082971    0.001110
   4 N :    0.291933   -0.001258
   5 N :    0.282627   -0.000340
   6 N :    0.338971   -0.001143
   7 N :    0.325502   -0.002926
   8 C :   -0.211643    0.000367
   9 C :   -0.082880    0.013193
  10 C :    0.024339   -0.009147
  11 C :   -0.049368    0.003533
  12 C :    0.197423   -0.000144
  13 C :    0.214487    0.002181
  14 C :   -0.416292   -0.001224
  15 C :   -0.396762   -0.002132
  16 C :   -0.467882   -0.001782
  17 C :   -0.486787   -0.000375
  18 H :    0.025313   -0.003846
  19 H :    0.031030   -0.000917
  20 H :    0.001989   -0.000069
  21 H :    0.002175   -0.000269
  22 H :    0.013143   -0.000134
  23 H :    0.016438    0.000934
  24 H :   -0.002378   -0.000066
  25 H :    0.003285    0.000710
  26 H :   -0.005790    0.000105
  27 H :   -0.031156   -0.000043
  28 H :   -0.002098   -0.000158
  29 H :   -0.013043   -0.000293

  Mayer bond orders larger than 0.100000
B(  0-O , 14-C ) :   1.4946 B(  1-O , 15-C ) :   1.3848 B(  2-O , 16-C ) :   1.5401
B(  3-O , 17-C ) :   1.5819 B(  4-N , 10-C ) :   0.8705 B(  4-N , 11-C ) :  -0.1268
B(  4-N , 16-C ) :   1.0198 B(  4-N , 26-H ) :   1.1074 B(  5-N ,  8-C ) :   0.1143
B(  5-N ,  9-C ) :  -0.1391 B(  5-N , 11-C ) :   0.7976 B(  5-N , 17-C ) :   1.0917
B(  5-N , 27-H ) :   1.0548 B(  6-N , 14-C ) :   0.9944 B(  6-N , 16-C ) :   0.9237
B(  6-N , 28-H ) :   1.0730 B(  7-N ,  9-C ) :  -0.2175 B(  7-N , 11-C ) :   0.1330
B(  7-N , 15-C ) :   1.0886 B(  7-N , 17-C ) :   0.9372 B(  7-N , 29-H ) :   1.1098
B(  8-C ,  9-C ) :   0.1326 B(  8-C , 10-C ) :   0.2078 B(  8-C , 12-C ) :   0.2515
B(  8-C , 14-C ) :   0.6103 B(  8-C , 18-H ) :  -0.1691 B(  8-C , 21-H ) :  -0.1187
B(  9-C , 10-C ) :   0.1620 B(  9-C , 11-C ) :   0.4761 B(  9-C , 13-C ) :   0.2231
B(  9-C , 15-C ) :   0.5682 B(  9-C , 24-H ) :  -0.1374 B(  9-C , 25-H ) :  -0.1030
B( 10-C , 11-C ) :   0.1493 B( 10-C , 16-C ) :  -0.1179 B( 10-C , 18-H ) :   1.2168
B( 11-C , 12-C ) :   0.1056 B( 11-C , 13-C ) :  -0.1856 B( 11-C , 15-C ) :   0.1004
B( 11-C , 19-H ) :   0.4290 B( 12-C , 19-H ) :  -0.1014 B( 12-C , 20-H ) :   0.9037
B( 12-C , 21-H ) :   0.9931 B( 12-C , 22-H ) :   0.8358 B( 13-C , 23-H ) :   0.8145
B( 13-C , 24-H ) :   1.0640 B( 13-C , 25-H ) :   0.9571

Dispersion correction           -0.062500331
FINAL SINGLE POINT ENERGY      -908.767745911465

DIPOLE MOMENT
-------------

Method             : TDA/CIS
Type of density    : Electron Density
Level              : Relaxed density
State              :   2
Multiplicity       :   3
Irrep              :   0
Energy             :     0.0000000000000000 Eh
Relativity type    :
Basis              : AO
                                X                 Y                 Z
Electronic contribution:     -2.867459899      -4.403650160      -4.069746209
Nuclear contribution   :      3.427447316       4.695627059       5.158479534
                        -----------------------------------------
Total Dipole Moment    :      0.559987418       0.291976899       1.088733325
                        -----------------------------------------
Magnitude (a.u.)       :      1.258640803
Magnitude (Debye)      :      3.199210676

Rotational constants in cm-1:             0.020393             0.015067             0.011916
Rotational constants in MHz :           611.379342           451.689826           357.233791

                             ****ORCA TERMINATED NORMALLY****
TOTAL RUN TIME: 0 days 0 hours 6 minutes 8 seconds 302 msec
