                         Program Version 6.0.0  -   RELEASE  -
|  1> ! opt def2-TZVPPD wB97M-D3BJ
|  2> %pal nprocs 8 end%pal nprocs 32 end
|  3> %geom Constraints
|  4> {B 9 8 3.3 C}
|  5> {A 8 9 11 88.85714285714286 C}
|  6> end
|  7> MaxIter 300
|  8> end
|  9> *xyz 0 1
| 10> O   2.98579685529314 0.88758230159078 -0.86184571092411
| 11> O   -0.03983205397054 0.68929041702508 -2.10362336723772
| 12> O   0.93431434349854 -3.13274393337945 -0.68767288184107
| 13> O   -3.75829998830163 -0.84727300865116 -0.0472717177755
| 14> N   0.21184538946282 -1.54604804365365 0.7617588924445
| 15> N   -2.13631993928911 0.03188773433438 1.27350571071531
| 16> N   2.02598672506387 -1.14318467211666 -0.64531219127023
| 17> N   -1.91814233924584 0.03137116037665 -1.04498946748291
| 18> C   1.18097737274226 0.71693507080484 0.70173889017321
| 19> C   -0.20686880480777 1.27024627933494 0.21345042231937
| 20> C   0.41441080275909 -0.34173258966541 1.52336266615173
| 21> C   -0.82922175114212 0.58960593673968 1.44434972027296
| 22> C   1.92822011286806 1.69488653817281 1.5963734975385
| 23> C   -0.37809776891576 2.77134929626422 0.04819649358288
| 24> C   2.1403947470937 0.1972384729179 -0.35038567829864
| 25> C   -0.67361678962426 0.6214190571346 -1.0793014500539
| 26> C   1.04142578622994 -2.02697492875068 -0.21027082435993
| 27> C   -2.68467002550422 -0.30396816036989 0.07167054343891
| 28> H   0.80817443950001 -0.54572267081061 2.51895215321335
| 29> H   -0.83785272399001 1.27240685039143 2.28901317073582
| 30> H   2.31167340578204 2.52284411740894 1.00913016264629
| 31> H   1.28982602448342 2.08257620823614 2.38710022492991
| 32> H   2.77390820759972 1.19140411795486 2.06045858523949
| 33> H   -1.41857211141493 3.00964947214868 -0.16882755561625
| 34> H   -0.09065531563179 3.29799318042223 0.95389844358819
| 35> H   0.23426221611057 3.12492645074476 -0.77764887675592
| 36> H   -0.46772570547622 -2.21560145172536 1.0787081584806
| 37> H   -2.71769301149571 -0.17090724573546 2.06627440900372
| 38> H   2.60065167263658 -1.49057255715425 -1.3966820077142
| 39> H   -2.27169977231386 -0.32388339999036 -1.91951041514436
| 40> *
| 41>
| 42>                          ****END OF INPUT****
 Total Charge           Charge          ....    0
 Multiplicity           Mult            ....    1
 Number of Electrons    NEL             ....  132
Dispersion correction           -0.052105727
FINAL SINGLE POINT ENERGY      -908.566485584595
Dispersion correction             ... done (  0.0 sec)
Dispersion correction           -0.052626219
FINAL SINGLE POINT ENERGY      -908.626527589100
Dispersion correction             ... done (  0.0 sec)
Dispersion correction           -0.053165875
FINAL SINGLE POINT ENERGY      -908.680245092870
Dispersion correction             ... done (  0.1 sec)
FINAL SINGLE POINT ENERGY      -908.749565488078
FINAL SINGLE POINT ENERGY      -908.814195619510
FINAL SINGLE POINT ENERGY      -908.853042038294
FINAL SINGLE POINT ENERGY      -908.875932049277
FINAL SINGLE POINT ENERGY      -908.900143711123
FINAL SINGLE POINT ENERGY      -908.914443531994
FINAL SINGLE POINT ENERGY      -908.920523596085
FINAL SINGLE POINT ENERGY      -908.933575508717
FINAL SINGLE POINT ENERGY      -908.933864742152
FINAL SINGLE POINT ENERGY      -908.934011647275
FINAL SINGLE POINT ENERGY      -908.934121485007
FINAL SINGLE POINT ENERGY      -908.934182053918
FINAL SINGLE POINT ENERGY      -908.934204400714
FINAL SINGLE POINT ENERGY      -908.934212515955
Dispersion correction             ... done (  0.0 sec)
Dispersion correction           -0.059090563
FINAL SINGLE POINT ENERGY      -908.934215452979
Dispersion correction             ... done (  0.0 sec)
Dispersion correction           -0.059076719
FINAL SINGLE POINT ENERGY      -908.934217008749
Dispersion correction             ... done (  0.0 sec)
                    ***********************HURRAY********************

CARTESIAN COORDINATES (ANGSTROEM)
---------------------------------
  O      2.667503    1.131228   -0.629292
  O     -0.504616    0.844418   -2.169348
  O      0.634852   -2.833044   -1.509145
  O     -2.533213   -1.674644    1.019187
  N      0.655975   -2.075408    0.637679
  N     -2.186652    0.539367    1.424614
  N      1.760397   -0.910151   -1.015951
  N     -1.599991   -0.369108   -0.603867
  C      1.534005    0.078343    1.166411
  C     -0.927933    1.888973   -0.078771
  C      0.879592   -1.037943    1.511991
  C     -1.589795    1.731617    1.071679
  C      1.802313    1.209409    2.105241
  C     -0.218632    3.142929   -0.476657
  C      2.047857    0.181703   -0.199715
  C     -0.970186    0.795398   -1.053157
  C      0.991778   -2.008031   -0.697807
  C     -2.139775   -0.590599    0.640810
  H      0.480396   -1.186282    2.504125
  H     -1.651591    2.514316    1.812354
  H      1.406092    2.140510    1.705093
  H      1.349024    1.020472    3.076021
  H      2.872530    1.354196    2.240446
  H     -0.638844    3.546920   -1.395446
  H     -0.292441    3.893795    0.306985
  H      0.832256    2.933620   -0.670373
  H      0.001571   -2.801190    0.876543
  H     -2.606995    0.418802    2.328025
  H      1.976941   -0.801604   -1.994876
  H     -1.579818   -1.163013   -1.228199

 Multiplicity           Mult            ....    1
 Number of Electrons    NEL             ....  132
 Basis Dimension        Dim             ....  882

ORBITAL ENERGIES
----------------

  NO   OCC          E(Eh)            E(eV)
   0   2.0000     -19.330083      -525.9983
   1   2.0000     -19.324030      -525.8336
   2   2.0000     -19.318977      -525.6961
   3   2.0000     -19.318884      -525.6936
   4   2.0000     -14.586600      -396.9216
   5   2.0000     -14.574257      -396.5857
   6   2.0000     -14.571595      -396.5133
   7   2.0000     -14.562278      -396.2597
   8   2.0000     -10.516313      -286.1634
   9   2.0000     -10.505333      -285.8646
  10   2.0000     -10.479648      -285.1657
  11   2.0000     -10.473982      -285.0115
  12   2.0000     -10.432242      -283.8757
  13   2.0000     -10.428125      -283.7637
  14   2.0000     -10.380920      -282.4792
  15   2.0000     -10.377919      -282.3975
  16   2.0000     -10.358997      -281.8827
  17   2.0000     -10.351153      -281.6692
  18   2.0000      -1.229055       -33.4443
  19   2.0000      -1.218673       -33.1618
  20   2.0000      -1.195244       -32.5242
  21   2.0000      -1.187980       -32.3266
  22   2.0000      -1.124581       -30.6014
  23   2.0000      -1.115711       -30.3600
  24   2.0000      -1.071633       -29.1606
  25   2.0000      -1.062886       -28.9226
  26   2.0000      -0.958678       -26.0870
  27   2.0000      -0.952982       -25.9320
  28   2.0000      -0.847607       -23.0646
  29   2.0000      -0.846125       -23.0242
  30   2.0000      -0.811286       -22.0762
  31   2.0000      -0.806305       -21.9407
  32   2.0000      -0.795655       -21.6509
  33   2.0000      -0.786694       -21.4070
  34   2.0000      -0.696553       -18.9542
  35   2.0000      -0.693343       -18.8668
  36   2.0000      -0.689882       -18.7726
  37   2.0000      -0.686208       -18.6727
  38   2.0000      -0.644275       -17.5316
  39   2.0000      -0.636874       -17.3302
  40   2.0000      -0.632912       -17.2224
  41   2.0000      -0.598788       -16.2938
  42   2.0000      -0.597492       -16.2586
  43   2.0000      -0.590789       -16.0762
  44   2.0000      -0.569442       -15.4953
  45   2.0000      -0.563311       -15.3285
  46   2.0000      -0.559288       -15.2190
  47   2.0000      -0.551647       -15.0111
  48   2.0000      -0.547795       -14.9062
  49   2.0000      -0.541557       -14.7365
  50   2.0000      -0.520297       -14.1580
  51   2.0000      -0.517628       -14.0854
  52   2.0000      -0.514947       -14.0124
  53   2.0000      -0.512189       -13.9374
  54   2.0000      -0.502821       -13.6825
  55   2.0000      -0.498496       -13.5648
  56   2.0000      -0.480641       -13.0789
  57   2.0000      -0.471389       -12.8272
  58   2.0000      -0.421855       -11.4793
  59   2.0000      -0.411898       -11.2083
  60   2.0000      -0.405587       -11.0366
  61   2.0000      -0.395050       -10.7498
  62   2.0000      -0.387793       -10.5524
  63   2.0000      -0.382321       -10.4035
  64   2.0000      -0.350720        -9.5436
  65   2.0000      -0.340297        -9.2600
  66   0.0000       0.010564         0.2875
  67   0.0000       0.015874         0.4320
  68   0.0000       0.025282         0.6880
  69   0.0000       0.034824         0.9476
  70   0.0000       0.040567         1.1039

MULLIKEN ATOMIC CHARGES
-----------------------
   0 O :   -0.671599
   1 O :   -0.657879
   2 O :   -0.645028
   3 O :   -0.667223
   4 N :   -0.060818
   5 N :   -0.019182
   6 N :    0.029859
   7 N :    0.025800
   8 C :    0.814709
   9 C :    0.497840
  10 C :    0.066719
  11 C :    0.119366
  12 C :   -1.417248
  13 C :   -1.446858
  14 C :    0.334459
  15 C :    0.589470
  16 C :    0.382319
  17 C :    0.459170
  18 H :    0.155097
  19 H :    0.148773
  20 H :    0.194500
  21 H :    0.334898
  22 H :    0.361920
  23 H :    0.367526
  24 H :    0.329522
  25 H :    0.226555
  26 H :    0.068207
  27 H :    0.018904
  28 H :    0.032099
  29 H :    0.028123
Sum of atomic charges:   -0.0000000

LOEWDIN ATOMIC CHARGES
----------------------
   0 O :    0.092197
   1 O :    0.103824
   2 O :    0.085378
   3 O :    0.073215
   4 N :    0.277461
   5 N :    0.282142
   6 N :    0.343295
   7 N :    0.344382
   8 C :   -0.137596
   9 C :   -0.141259
  10 C :    0.047018
  11 C :    0.054188
  12 C :    0.179705
  13 C :    0.180066
  14 C :   -0.400567
  15 C :   -0.392330
  16 C :   -0.486389
  17 C :   -0.489343
  18 H :    0.040100
  19 H :    0.037730
  20 H :   -0.017539
  21 H :   -0.005219
  22 H :    0.002916
  23 H :    0.002224
  24 H :   -0.005034
  25 H :   -0.014588
  26 H :   -0.022259
  27 H :   -0.021343
  28 H :   -0.002659
  29 H :   -0.009716

  Mayer bond orders larger than 0.100000
B(  0-O , 14-C ) :   1.4642 B(  1-O , 15-C ) :   1.4229 B(  2-O , 16-C ) :   1.5760
B(  3-O , 17-C ) :   1.5382 B(  4-N , 10-C ) :   0.8686 B(  4-N , 16-C ) :   0.9927
B(  4-N , 26-H ) :   1.1113 B(  5-N , 11-C ) :   0.9628 B(  5-N , 17-C ) :   1.0387
B(  5-N , 27-H ) :   1.1366 B(  6-N , 14-C ) :   1.0196 B(  6-N , 16-C ) :   0.9159
B(  6-N , 28-H ) :   1.1002 B(  7-N , 15-C ) :   0.9802 B(  7-N , 17-C ) :   0.9349
B(  7-N , 29-H ) :   1.1211 B(  8-C , 10-C ) :   1.1174 B(  8-C , 12-C ) :   0.3568
B(  8-C , 14-C ) :   0.7248 B(  9-C , 11-C ) :   1.2063 B(  9-C , 13-C ) :   0.3442
B(  9-C , 15-C ) :   0.8252 B(  9-C , 24-H ) :  -0.1035 B(  9-C , 25-H ) :  -0.1105
B( 10-C , 12-C ) :  -0.1151 B( 10-C , 18-H ) :   1.1245 B( 11-C , 13-C ) :  -0.1973
B( 11-C , 19-H ) :   1.0854 B( 12-C , 20-H ) :   1.0332 B( 12-C , 21-H ) :   0.9988
B( 12-C , 22-H ) :   0.9122 B( 13-C , 23-H ) :   0.8955 B( 13-C , 24-H ) :   1.0377
B( 13-C , 25-H ) :   1.0038

Dispersion correction           -0.059083648
FINAL SINGLE POINT ENERGY      -908.934217630699

DIPOLE MOMENT
-------------

Method             : SCF
Type of density    : Electron Density
Multiplicity       :   1
Irrep              :   0
Energy             :  -908.8751339826046660 Eh
Relativity type    :
Basis              : AO
                                X                 Y                 Z
Electronic contribution:     -2.555948188     -10.243251837      -5.931494956
Nuclear contribution   :      1.826895442      11.228367010       8.422392826
                        -----------------------------------------
Total Dipole Moment    :     -0.729052745       0.985115172       2.490897870
                        -----------------------------------------
Magnitude (a.u.)       :      2.776065923
Magnitude (Debye)      :      7.056198811

Rotational constants in cm-1:             0.017432             0.016201             0.012913
Rotational constants in MHz :           522.608936           485.702289           387.116888

                             ****ORCA TERMINATED NORMALLY****
TOTAL RUN TIME: 0 days 5 hours 50 minutes 56 seconds 540 msec
