                         Program Version 6.0.0  -   RELEASE  -
|  1> ! Engrad def2-TZVPPD wB97M-D3BJ
|  2> %pal nprocs 8 end%pal nprocs 32 end
|  3>  %tddft nroots 2 Iroot 1
|  4> sf true
|  5> end
|  6> *xyz 0 3
|  7> O   2.251542340502 -0.18387891000603 -1.18002168131144
|  8> O   -0.1941091070762 2.7337084738141 -2.29453147742992
|  9> O   0.24796054854534 -3.76718664942132 0.69603728206582
| 10> O   -2.20549207299018 -1.10836816726317 -1.32804230053315
| 11> N   0.38265267248092 -1.88056936144741 1.95032810659534
| 12> N   -1.39302658615738 -0.14705788059907 0.54555322331922
| 13> N   1.06973296517164 -1.88116230855248 -0.27201890441405
| 14> N   -0.83175875564089 0.6601305219353 -1.6179740948239
| 15> C   1.26759292141962 0.22377362139025 0.93876569990431
| 16> C   -0.23819098532356 2.5957261794639 -0.11311622394419
| 17> C   0.57902961102207 -0.47617849894428 2.06231555583594
| 18> C   -0.3574761068828 0.44971126752434 1.2985992617704
| 19> C   2.21658818771747 1.34492985122951 1.2394319706055
| 20> C   -1.42718572993569 3.32485868522748 0.36800933125046
| 21> C   1.57940176745675 -0.59499566591517 -0.26626085349566
| 22> C   -0.44187158846913 1.95815834000475 -1.37915420588566
| 23> C   0.53451775745913 -2.598402612101 0.79643140112843
| 24> C   -1.52175698119696 -0.25061497135396 -0.82064181613151
| 25> H   0.85300245674917 -0.16841314728265 3.06091842165421
| 26> H   -0.54332372095399 1.39964994094545 1.77376861765939
| 27> H   2.38803470093883 1.94558493793425 0.35528112258008
| 28> H   1.81411173171566 1.98798886086703 2.0183590951356
| 29> H   3.1645443279758 0.92981700183583 1.58189195522608
| 30> H   -2.37511861202405 2.78489015884553 0.28867165154308
| 31> H   -1.30133231026136 3.76278764198649 1.35423968882302
| 32> H   -1.48671393951647 4.1513983831241 -0.35412772432548
| 33> H   -0.03590195159855 -2.39095041530691 2.70677606352039
| 34> H   -1.88867998972253 -0.90326072012328 0.99227420403486
| 35> H   1.25455288001928 -2.43242386294585 -1.09539219833649
| 36> H   -0.90872643142395 0.44534930513422 -2.60177117202066
| 37> *
| 38>
| 39>                          ****END OF INPUT****

CARTESIAN COORDINATES (ANGSTROEM)
---------------------------------
  O      2.251542   -0.183879   -1.180022
  O     -0.194109    2.733708   -2.294531
  O      0.247961   -3.767187    0.696037
  O     -2.205492   -1.108368   -1.328042
  N      0.382653   -1.880569    1.950328
  N     -1.393027   -0.147058    0.545553
  N      1.069733   -1.881162   -0.272019
  N     -0.831759    0.660131   -1.617974
  C      1.267593    0.223774    0.938766
  C     -0.238191    2.595726   -0.113116
  C      0.579030   -0.476178    2.062316
  C     -0.357476    0.449711    1.298599
  C      2.216588    1.344930    1.239432
  C     -1.427186    3.324859    0.368009
  C      1.579402   -0.594996   -0.266261
  C     -0.441872    1.958158   -1.379154
  C      0.534518   -2.598403    0.796431
  C     -1.521757   -0.250615   -0.820642
  H      0.853002   -0.168413    3.060918
  H     -0.543324    1.399650    1.773769
  H      2.388035    1.945585    0.355281
  H      1.814112    1.987989    2.018359
  H      3.164544    0.929817    1.581892
  H     -2.375119    2.784890    0.288672
  H     -1.301332    3.762788    1.354240
  H     -1.486714    4.151398   -0.354128
  H     -0.035902   -2.390950    2.706776
  H     -1.888680   -0.903261    0.992274
  H      1.254553   -2.432424   -1.095392
  H     -0.908726    0.445349   -2.601771

 Total Charge           Charge          ....    0
 Multiplicity           Mult            ....    3
 Number of Electrons    NEL             ....  132
 Basis Dimension        Dim             ....  882

ORBITAL ENERGIES
----------------
                 SPIN UP ORBITALS
  NO   OCC          E(Eh)            E(eV)
   0   1.0000     -19.334614      -526.1216
   1   1.0000     -19.334260      -526.1120
   2   1.0000     -19.324492      -525.8462
   3   1.0000     -19.321609      -525.7677
   4   1.0000     -14.568606      -396.4319
   5   1.0000     -14.567531      -396.4027
   6   1.0000     -14.567122      -396.3915
   7   1.0000     -14.566481      -396.3741
   8   1.0000     -10.511645      -286.0364
   9   1.0000     -10.509036      -285.9654
  10   1.0000     -10.489875      -285.4440
  11   1.0000     -10.482338      -285.2389
  12   1.0000     -10.440471      -284.0997
  13   1.0000     -10.439839      -284.0824
  14   1.0000     -10.417947      -283.4867
  15   1.0000     -10.399924      -282.9963
  16   1.0000     -10.374156      -282.2951
  17   1.0000     -10.367381      -282.1108
  18   1.0000      -1.226578       -33.3769
  19   1.0000      -1.221178       -33.2300
  20   1.0000      -1.202318       -32.7167
  21   1.0000      -1.200447       -32.6658
  22   1.0000      -1.126385       -30.6505
  23   1.0000      -1.093162       -29.7464
  24   1.0000      -1.073235       -29.2042
  25   1.0000      -1.063986       -28.9525
  26   1.0000      -1.000567       -27.2268
  27   1.0000      -0.938404       -25.5353
  28   1.0000      -0.881588       -23.9892
  29   1.0000      -0.824461       -22.4347
  30   1.0000      -0.815582       -22.1931
  31   1.0000      -0.807791       -21.9811
  32   1.0000      -0.790853       -21.5202
  33   1.0000      -0.777620       -21.1601
  34   1.0000      -0.723644       -19.6914
  35   1.0000      -0.701455       -19.0875
  36   1.0000      -0.694819       -18.9070
  37   1.0000      -0.664434       -18.0802
  38   1.0000      -0.642164       -17.4742
  39   1.0000      -0.631623       -17.1873
  40   1.0000      -0.615449       -16.7472
  41   1.0000      -0.607227       -16.5235
  42   1.0000      -0.599444       -16.3117
  43   1.0000      -0.590285       -16.0625
  44   1.0000      -0.579639       -15.7728
  45   1.0000      -0.569284       -15.4910
  46   1.0000      -0.564564       -15.3626
  47   1.0000      -0.561055       -15.2671
  48   1.0000      -0.557135       -15.1604
  49   1.0000      -0.555272       -15.1097
  50   1.0000      -0.543744       -14.7960
  51   1.0000      -0.541054       -14.7228
  52   1.0000      -0.535679       -14.5766
  53   1.0000      -0.513458       -13.9719
  54   1.0000      -0.507130       -13.7997
  55   1.0000      -0.488376       -13.2894
  56   1.0000      -0.439757       -11.9664
  57   1.0000      -0.425390       -11.5754
  58   1.0000      -0.419319       -11.4103
  59   1.0000      -0.409824       -11.1519
  60   1.0000      -0.402792       -10.9605
  61   1.0000      -0.399238       -10.8638
  62   1.0000      -0.394704       -10.7404
  63   1.0000      -0.389414       -10.5965
  64   1.0000      -0.382829       -10.4173
  65   1.0000      -0.377229       -10.2649
  66   1.0000      -0.297832        -8.1044
  67   0.0000       0.009451         0.2572
  68   0.0000       0.028514         0.7759
  69   0.0000       0.032496         0.8843
  70   0.0000       0.036079         0.9818
  71   0.0000       0.043023         1.1707

                 SPIN DOWN ORBITALS
  NO   OCC          E(Eh)            E(eV)
   0   1.0000     -19.334544      -526.1197
   1   1.0000     -19.328901      -525.9661
   2   1.0000     -19.324497      -525.8463
   3   1.0000     -19.321604      -525.7676
   4   1.0000     -14.568525      -396.4297
   5   1.0000     -14.567485      -396.4014
   6   1.0000     -14.566995      -396.3881
   7   1.0000     -14.566487      -396.3743
   8   1.0000     -10.511669      -286.0370
   9   1.0000     -10.509039      -285.9655
  10   1.0000     -10.489906      -285.4449
  11   1.0000     -10.482854      -285.2530
  12   1.0000     -10.440106      -284.0897
  13   1.0000     -10.439561      -284.0749
  14   1.0000     -10.417389      -283.4716
  15   1.0000     -10.374412      -282.3021
  16   1.0000     -10.372294      -282.2445
  17   1.0000     -10.367217      -282.1063
  18   1.0000      -1.226154       -33.3654
  19   1.0000      -1.220271       -33.2053
  20   1.0000      -1.202161       -32.7125
  21   1.0000      -1.192620       -32.4528
  22   1.0000      -1.125968       -30.6391
  23   1.0000      -1.092368       -29.7248
  24   1.0000      -1.072116       -29.1737
  25   1.0000      -1.063387       -28.9362
  26   1.0000      -0.999542       -27.1989
  27   1.0000      -0.909953       -24.7611
  28   1.0000      -0.880835       -23.9687
  29   1.0000      -0.823277       -22.4025
  30   1.0000      -0.812375       -22.1058
  31   1.0000      -0.802329       -21.8325
  32   1.0000      -0.787251       -21.4222
  33   1.0000      -0.772328       -21.0161
  34   1.0000      -0.717886       -19.5347
  35   1.0000      -0.698737       -19.0136
  36   1.0000      -0.688340       -18.7307
  37   1.0000      -0.662630       -18.0311
  38   1.0000      -0.636225       -17.3126
  39   1.0000      -0.627362       -17.0714
  40   1.0000      -0.612597       -16.6696
  41   1.0000      -0.604565       -16.4511
  42   1.0000      -0.588447       -16.0125
  43   1.0000      -0.581640       -15.8272
  44   1.0000      -0.574801       -15.6411
  45   1.0000      -0.563019       -15.3205
  46   1.0000      -0.559432       -15.2229
  47   1.0000      -0.554396       -15.0859
  48   1.0000      -0.553915       -15.0728
  49   1.0000      -0.551764       -15.0143
  50   1.0000      -0.537290       -14.6204
  51   1.0000      -0.534233       -14.5372
  52   1.0000      -0.526877       -14.3371
  53   1.0000      -0.512855       -13.9555
  54   1.0000      -0.495212       -13.4754
  55   1.0000      -0.486894       -13.2491
  56   1.0000      -0.428781       -11.6677
  57   1.0000      -0.422333       -11.4923
  58   1.0000      -0.418599       -11.3907
  59   1.0000      -0.404892       -11.0177
  60   1.0000      -0.396067       -10.7775
  61   1.0000      -0.393329       -10.7030
  62   1.0000      -0.383160       -10.4263
  63   1.0000      -0.380705       -10.3595
  64   1.0000      -0.375037       -10.2053
  65   0.0000      -0.057224        -1.5572
  66   0.0000       0.008631         0.2349
  67   0.0000       0.021048         0.5728
  68   0.0000       0.032321         0.8795
  69   0.0000       0.034398         0.9360

----------------------------------------------------------------------------------------------------
          SPIN FLIP ABSORPTION SPECTRUM VIA TRANSITION ELECTRIC DIPOLE MOMENTS
----------------------------------------------------------------------------------------------------
     Transition      Energy     Energy  Wavelength fosc(D2)      D2        DX        DY        DZ
                      (eV)      (cm-1)    (nm)                 (au**2)    (au)      (au)      (au)
----------------------------------------------------------------------------------------------------
  1-3A  ->  2-3A    2.112984   17042.4   586.8   0.000380232   0.00735  -0.04071  -0.06416   0.03964

Dispersion correction             ... done (  0.0 sec)

MULLIKEN ATOMIC CHARGES AND SPIN DENSITIES
------------------------------------------
   0 O :   -0.648685   -0.000354
   1 O :   -0.635435   -0.025637
   2 O :   -0.645054   -0.000029
   3 O :   -0.654907    0.000189
   4 N :   -0.174060   -0.000345
   5 N :   -0.111256   -0.003323
   6 N :    0.013367   -0.000203
   7 N :    0.057821   -0.007278
   8 C :    1.815149   -0.047008
   9 C :   -0.008988    0.146026
  10 C :   -0.078816    0.000505
  11 C :   -0.974062   -0.149079
  12 C :   -1.565712    0.061222
  13 C :   -0.960360    0.175578
  14 C :   -0.004554    0.007348
  15 C :    0.635572   -0.171662
  16 C :    0.451586    0.000349
  17 C :    0.533402    0.008337
  18 H :    0.273374   -0.000175
  19 H :    0.458319    0.068570
  20 H :    0.316510   -0.027060
  21 H :    0.312841   -0.011905
  22 H :    0.439878   -0.010021
  23 H :    0.305858   -0.009980
  24 H :    0.300936    0.005609
  25 H :    0.361745   -0.012334
  26 H :    0.031248   -0.000310
  27 H :    0.099641   -0.000554
  28 H :    0.033408   -0.000062
  29 H :    0.021233    0.003587
Sum of atomic charges       :    0.0000000

LOEWDIN ATOMIC CHARGES AND SPIN DENSITIES
-----------------------------------------
   0 O :    0.119233   -0.000197
   1 O :    0.095830   -0.031032
   2 O :    0.096685    0.000027
   3 O :    0.097981   -0.000518
   4 N :    0.287566   -0.000020
   5 N :    0.275021    0.000163
   6 N :    0.342945   -0.000115
   7 N :    0.337706    0.000451
   8 C :   -0.164682   -0.000851
   9 C :    0.156842    0.054063
  10 C :   -0.072477    0.000151
  11 C :   -0.028481   -0.001071
  12 C :    0.178682   -0.007650
  13 C :    0.106963    0.000934
  14 C :   -0.381254   -0.000183
  15 C :   -0.512128   -0.007642
  16 C :   -0.476667    0.000003
  17 C :   -0.475126   -0.000273
  18 H :    0.056411    0.000029
  19 H :    0.008027   -0.000275
  20 H :   -0.012976   -0.003209
  21 H :    0.000923   -0.001064
  22 H :    0.009219   -0.001320
  23 H :    0.004384    0.000402
  24 H :   -0.013320   -0.000405
  25 H :    0.021916   -0.000400
  26 H :   -0.025320   -0.000004
  27 H :   -0.025625   -0.000041
  28 H :   -0.004045   -0.000007
  29 H :   -0.004232    0.000058

  Mayer bond orders larger than 0.100000
B(  0-O ,  8-C ) :  -0.1616 B(  0-O , 14-C ) :   1.6114 B(  1-O ,  9-C ) :   0.2902
B(  1-O , 15-C ) :   1.1888 B(  2-O , 16-C ) :   1.5739 B(  3-O , 17-C ) :   1.4879
B(  4-N ,  8-C ) :   0.1026 B(  4-N , 10-C ) :   0.6227 B(  4-N , 16-C ) :   1.0937
B(  4-N , 26-H ) :   1.1274 B(  5-N , 11-C ) :   0.6828 B(  5-N , 17-C ) :   0.9526
B(  5-N , 19-H ) :  -0.1360 B(  5-N , 27-H ) :   1.0449 B(  6-N , 10-C ) :   0.1142
B(  6-N , 14-C ) :   1.0716 B(  6-N , 16-C ) :   0.9375 B(  6-N , 28-H ) :   1.1104
B(  7-N , 15-C ) :   0.9270 B(  7-N , 17-C ) :   0.9698 B(  7-N , 29-H ) :   1.1199
B(  8-C , 10-C ) :   0.5861 B(  8-C , 11-C ) :   0.1815 B(  8-C , 14-C ) :   0.2172
B(  8-C , 19-H ) :  -0.1020 B(  8-C , 21-H ) :  -0.1307 B(  9-C , 12-C ) :  -0.2570
B(  9-C , 13-C ) :   0.4424 B(  9-C , 15-C ) :   0.6866 B(  9-C , 20-H ) :  -0.1215
B( 10-C , 11-C ) :   0.7868 B( 10-C , 12-C ) :  -0.1318 B( 10-C , 14-C ) :  -0.1168
B( 10-C , 16-C ) :  -0.1116 B( 10-C , 18-H ) :   1.1057 B( 11-C , 15-C ) :   0.1044
B( 11-C , 19-H ) :   1.0081 B( 12-C , 14-C ) :   0.1084 B( 12-C , 20-H ) :   1.0264
B( 12-C , 21-H ) :   1.0706 B( 12-C , 22-H ) :   0.7437 B( 13-C , 23-H ) :   0.9826
B( 13-C , 24-H ) :   1.0216 B( 13-C , 25-H ) :   0.8563 B( 15-C , 17-C ) :  -0.1036

Dispersion correction           -0.058272954
FINAL SINGLE POINT ENERGY      -908.735379350034

DIPOLE MOMENT
-------------

Method             : TDA/CIS
Type of density    : Electron Density
Level              : Relaxed density
State              :   1
Multiplicity       :   3
Irrep              :   0
Energy             :     0.0000000000000000 Eh
Relativity type    :
Basis              : AO
                                X                 Y                 Z
Electronic contribution:     -0.525971929      -9.847778286      -6.691815245
Nuclear contribution   :      0.063201266      10.717796286       9.288525771
                        -----------------------------------------
Total Dipole Moment    :     -0.462770663       0.870017999       2.596710526
                        -----------------------------------------
Magnitude (a.u.)       :      2.777407706
Magnitude (Debye)      :      7.059609351

Rotational constants in cm-1:             0.022769             0.012884             0.011646
Rotational constants in MHz :           682.594714           386.246709           349.151832

                             ****ORCA TERMINATED NORMALLY****
TOTAL RUN TIME: 0 days 0 hours 25 minutes 11 seconds 974 msec
