                         Program Version 6.0.0  -   RELEASE  -
|  1> ! opt def2-TZVPPD wB97M-D3BJ
|  2> %pal nprocs 8 end%pal nprocs 32 end
|  3> %geom Constraints
|  4> {B 9 8 2.9 C}
|  5> {A 8 9 11 88.85714285714286 C}
|  6> end
|  7> MaxIter 300
|  8> end
|  9> *xyz 0 1
| 10> O   2.98579685529314 0.88758230159078 -0.86184571092411
| 11> O   -0.03983205397054 0.68929041702508 -2.10362336723772
| 12> O   0.93431434349854 -3.13274393337945 -0.68767288184107
| 13> O   -3.75829998830163 -0.84727300865116 -0.0472717177755
| 14> N   0.21184538946282 -1.54604804365365 0.7617588924445
| 15> N   -2.13631993928911 0.03188773433438 1.27350571071531
| 16> N   2.02598672506387 -1.14318467211666 -0.64531219127023
| 17> N   -1.91814233924584 0.03137116037665 -1.04498946748291
| 18> C   1.18097737274226 0.71693507080484 0.70173889017321
| 19> C   -0.20686880480777 1.27024627933494 0.21345042231937
| 20> C   0.41441080275909 -0.34173258966541 1.52336266615173
| 21> C   -0.82922175114212 0.58960593673968 1.44434972027296
| 22> C   1.92822011286806 1.69488653817281 1.5963734975385
| 23> C   -0.37809776891576 2.77134929626422 0.04819649358288
| 24> C   2.1403947470937 0.1972384729179 -0.35038567829864
| 25> C   -0.67361678962426 0.6214190571346 -1.0793014500539
| 26> C   1.04142578622994 -2.02697492875068 -0.21027082435993
| 27> C   -2.68467002550422 -0.30396816036989 0.07167054343891
| 28> H   0.80817443950001 -0.54572267081061 2.51895215321335
| 29> H   -0.83785272399001 1.27240685039143 2.28901317073582
| 30> H   2.31167340578204 2.52284411740894 1.00913016264629
| 31> H   1.28982602448342 2.08257620823614 2.38710022492991
| 32> H   2.77390820759972 1.19140411795486 2.06045858523949
| 33> H   -1.41857211141493 3.00964947214868 -0.16882755561625
| 34> H   -0.09065531563179 3.29799318042223 0.95389844358819
| 35> H   0.23426221611057 3.12492645074476 -0.77764887675592
| 36> H   -0.46772570547622 -2.21560145172536 1.0787081584806
| 37> H   -2.71769301149571 -0.17090724573546 2.06627440900372
| 38> H   2.60065167263658 -1.49057255715425 -1.3966820077142
| 39> H   -2.27169977231386 -0.32388339999036 -1.91951041514436
| 40> *
| 41>
| 42>                          ****END OF INPUT****
 Total Charge           Charge          ....    0
 Multiplicity           Mult            ....    1
 Number of Electrons    NEL             ....  132
Dispersion correction           -0.053899430
FINAL SINGLE POINT ENERGY      -908.641804988129
Dispersion correction             ... done (  0.0 sec)
Dispersion correction           -0.054487537
FINAL SINGLE POINT ENERGY      -908.670890884499
Dispersion correction             ... done (  0.0 sec)
Dispersion correction           -0.055193105
FINAL SINGLE POINT ENERGY      -908.689211327955
Dispersion correction             ... done (  0.0 sec)
FINAL SINGLE POINT ENERGY      -908.704463518899
FINAL SINGLE POINT ENERGY      -908.729121484981
FINAL SINGLE POINT ENERGY      -908.795531881632
FINAL SINGLE POINT ENERGY      -908.830644250400
FINAL SINGLE POINT ENERGY      -908.849146843504
FINAL SINGLE POINT ENERGY      -908.872098822443
FINAL SINGLE POINT ENERGY      -908.893350036434
FINAL SINGLE POINT ENERGY      -908.927696309524
FINAL SINGLE POINT ENERGY      -908.927889145721
FINAL SINGLE POINT ENERGY      -908.928031567165
FINAL SINGLE POINT ENERGY      -908.928107467701
FINAL SINGLE POINT ENERGY      -908.928148508850
FINAL SINGLE POINT ENERGY      -908.928165114565
FINAL SINGLE POINT ENERGY      -908.928170943144
Dispersion correction             ... done (  0.0 sec)
Dispersion correction           -0.061395861
FINAL SINGLE POINT ENERGY      -908.928172890159
Dispersion correction             ... done (  0.0 sec)
Dispersion correction           -0.061384197
FINAL SINGLE POINT ENERGY      -908.928174149777
Dispersion correction             ... done (  0.0 sec)
                    ***********************HURRAY********************

CARTESIAN COORDINATES (ANGSTROEM)
---------------------------------
  O      2.700761    1.133584   -0.604097
  O     -0.489947    0.822219   -2.160301
  O      0.797946   -2.895880   -1.499067
  O     -2.662452   -1.643349    0.972820
  N      0.587073   -2.029070    0.596336
  N     -2.111184    0.512231    1.459712
  N      1.806206   -0.908876   -1.003262
  N     -1.656819   -0.354894   -0.619981
  C      1.347681    0.178840    1.094681
  C     -0.776201    1.809376   -0.019084
  C      0.718297   -0.952819    1.441643
  C     -1.446725    1.672676    1.128842
  C      1.611534    1.291862    2.057976
  C     -0.047909    3.053651   -0.416188
  C      2.012481    0.216367   -0.209668
  C     -0.932180    0.765495   -1.035090
  C      1.043414   -2.016886   -0.704686
  C     -2.184455   -0.582660    0.628327
  H      0.270232   -1.083900    2.414873
  H     -1.453046    2.439771    1.887799
  H      1.407401    2.259394    1.610514
  H      1.000940    1.177139    2.951473
  H      2.659341    1.296127    2.354677
  H     -0.492823    3.480361   -1.313004
  H     -0.085185    3.792630    0.381276
  H      0.991472    2.832780   -0.648803
  H     -0.046311   -2.776268    0.824384
  H     -2.540886    0.398120    2.359673
  H      2.142129   -0.852835   -1.952029
  H     -1.718184   -1.120187   -1.275147

 Multiplicity           Mult            ....    1
 Number of Electrons    NEL             ....  132
 Basis Dimension        Dim             ....  882

ORBITAL ENERGIES
----------------

  NO   OCC          E(Eh)            E(eV)
   0   2.0000     -19.331054      -526.0247
   1   2.0000     -19.324640      -525.8502
   2   2.0000     -19.319581      -525.7125
   3   2.0000     -19.318665      -525.6876
   4   2.0000     -14.588378      -396.9700
   5   2.0000     -14.574873      -396.6025
   6   2.0000     -14.572540      -396.5390
   7   2.0000     -14.562593      -396.2683
   8   2.0000     -10.517283      -286.1898
   9   2.0000     -10.505218      -285.8615
  10   2.0000     -10.480173      -285.1800
  11   2.0000     -10.475115      -285.0424
  12   2.0000     -10.430843      -283.8377
  13   2.0000     -10.427823      -283.7555
  14   2.0000     -10.380686      -282.4728
  15   2.0000     -10.378957      -282.4258
  16   2.0000     -10.360287      -281.9178
  17   2.0000     -10.350424      -281.6493
  18   2.0000      -1.230261       -33.4771
  19   2.0000      -1.218769       -33.1644
  20   2.0000      -1.196172       -32.5495
  21   2.0000      -1.188751       -32.3476
  22   2.0000      -1.126055       -30.6415
  23   2.0000      -1.116190       -30.3731
  24   2.0000      -1.072981       -29.1973
  25   2.0000      -1.063144       -28.9296
  26   2.0000      -0.962461       -26.1899
  27   2.0000      -0.951684       -25.8966
  28   2.0000      -0.848251       -23.0821
  29   2.0000      -0.847413       -23.0593
  30   2.0000      -0.812779       -22.1168
  31   2.0000      -0.807197       -21.9649
  32   2.0000      -0.796556       -21.6754
  33   2.0000      -0.787566       -21.4308
  34   2.0000      -0.697367       -18.9763
  35   2.0000      -0.694934       -18.9101
  36   2.0000      -0.690952       -18.8018
  37   2.0000      -0.687113       -18.6973
  38   2.0000      -0.645066       -17.5531
  39   2.0000      -0.640619       -17.4321
  40   2.0000      -0.634058       -17.2536
  41   2.0000      -0.599396       -16.3104
  42   2.0000      -0.597641       -16.2626
  43   2.0000      -0.590987       -16.0816
  44   2.0000      -0.570430       -15.5222
  45   2.0000      -0.568368       -15.4661
  46   2.0000      -0.559264       -15.2184
  47   2.0000      -0.552456       -15.0331
  48   2.0000      -0.549371       -14.9492
  49   2.0000      -0.539983       -14.6937
  50   2.0000      -0.520667       -14.1681
  51   2.0000      -0.519701       -14.1418
  52   2.0000      -0.514789       -14.0081
  53   2.0000      -0.511401       -13.9159
  54   2.0000      -0.504495       -13.7280
  55   2.0000      -0.497374       -13.5342
  56   2.0000      -0.480634       -13.0787
  57   2.0000      -0.471781       -12.8378
  58   2.0000      -0.422678       -11.5016
  59   2.0000      -0.411474       -11.1968
  60   2.0000      -0.406386       -11.0583
  61   2.0000      -0.394642       -10.7387
  62   2.0000      -0.388706       -10.5772
  63   2.0000      -0.383328       -10.4309
  64   2.0000      -0.356114        -9.6904
  65   2.0000      -0.334396        -9.0994
  66   0.0000       0.009542         0.2597
  67   0.0000       0.013575         0.3694
  68   0.0000       0.025259         0.6873
  69   0.0000       0.034263         0.9324
  70   0.0000       0.040099         1.0912

MULLIKEN ATOMIC CHARGES
-----------------------
   0 O :   -0.676543
   1 O :   -0.662734
   2 O :   -0.652841
   3 O :   -0.667100
   4 N :   -0.063125
   5 N :   -0.002474
   6 N :    0.039498
   7 N :    0.014120
   8 C :    0.996855
   9 C :    0.438208
  10 C :   -0.010075
  11 C :    0.262710
  12 C :   -1.534746
  13 C :   -1.544274
  14 C :    0.226526
  15 C :    0.585824
  16 C :    0.441722
  17 C :    0.434427
  18 H :    0.191193
  19 H :    0.173425
  20 H :    0.234131
  21 H :    0.329774
  22 H :    0.391183
  23 H :    0.373369
  24 H :    0.333729
  25 H :    0.238262
  26 H :    0.056504
  27 H :    0.019338
  28 H :    0.020500
  29 H :    0.012613
Sum of atomic charges:    0.0000000

LOEWDIN ATOMIC CHARGES
----------------------
   0 O :    0.092530
   1 O :    0.106157
   2 O :    0.087922
   3 O :    0.075464
   4 N :    0.279949
   5 N :    0.285323
   6 N :    0.345451
   7 N :    0.345488
   8 C :   -0.146121
   9 C :   -0.152028
  10 C :    0.041337
  11 C :    0.043232
  12 C :    0.181441
  13 C :    0.181399
  14 C :   -0.398916
  15 C :   -0.394398
  16 C :   -0.480429
  17 C :   -0.494373
  18 H :    0.040627
  19 H :    0.040300
  20 H :   -0.022313
  21 H :   -0.003130
  22 H :    0.006785
  23 H :    0.005012
  24 H :   -0.003461
  25 H :   -0.018832
  26 H :   -0.020264
  27 H :   -0.019020
  28 H :   -0.001538
  29 H :   -0.003597

  Mayer bond orders larger than 0.100000
B(  0-O , 14-C ) :   1.4176 B(  1-O , 15-C ) :   1.4017 B(  2-O , 16-C ) :   1.5653
B(  3-O , 17-C ) :   1.5479 B(  4-N , 10-C ) :   0.8331 B(  4-N , 16-C ) :   1.0094
B(  4-N , 26-H ) :   1.1213 B(  5-N , 11-C ) :   0.9662 B(  5-N , 17-C ) :   1.0334
B(  5-N , 27-H ) :   1.1347 B(  6-N ,  8-C ) :  -0.1107 B(  6-N , 14-C ) :   1.0668
B(  6-N , 16-C ) :   0.9248 B(  6-N , 28-H ) :   1.1063 B(  7-N , 15-C ) :   0.9863
B(  7-N , 17-C ) :   0.9368 B(  7-N , 29-H ) :   1.1250 B(  8-C , 10-C ) :   1.0367
B(  8-C , 12-C ) :   0.3360 B(  8-C , 14-C ) :   0.6075 B(  8-C , 18-H ) :  -0.1142
B(  8-C , 20-H ) :  -0.1078 B(  8-C , 21-H ) :  -0.1006 B(  9-C , 11-C ) :   1.0575
B(  9-C , 13-C ) :   0.4024 B(  9-C , 15-C ) :   0.7114 B(  9-C , 24-H ) :  -0.1166
B(  9-C , 25-H ) :  -0.1051 B( 10-C , 12-C ) :  -0.1896 B( 10-C , 18-H ) :   1.1563
B( 11-C , 13-C ) :  -0.2751 B( 11-C , 19-H ) :   1.0996 B( 12-C , 20-H ) :   1.0256
B( 12-C , 21-H ) :   1.0384 B( 12-C , 22-H ) :   0.8475 B( 13-C , 23-H ) :   0.8475
B( 13-C , 24-H ) :   1.0782 B( 13-C , 25-H ) :   0.9859 B( 14-C , 15-C ) :   0.1054

Dispersion correction           -0.061387081
FINAL SINGLE POINT ENERGY      -908.928174632048

DIPOLE MOMENT
-------------

Method             : SCF
Type of density    : Electron Density
Multiplicity       :   1
Irrep              :   0
Energy             :  -908.8667875514969410 Eh
Relativity type    :
Basis              : AO
                                X                 Y                 Z
Electronic contribution:     -2.533096090     -10.194391491      -6.010476771
Nuclear contribution   :      1.793696045      11.194623738       8.473677976
                        -----------------------------------------
Total Dipole Moment    :     -0.739400045       1.000232247       2.463201204
                        -----------------------------------------
Magnitude (a.u.)       :      2.759445080
Magnitude (Debye)      :      7.013951985

Rotational constants in cm-1:             0.017836             0.016795             0.013011
Rotational constants in MHz :           534.697819           503.510328           390.051577

                             ****ORCA TERMINATED NORMALLY****
TOTAL RUN TIME: 0 days 1 hours 13 minutes 18 seconds 705 msec
