                         Program Version 6.0.0  -   RELEASE  -
|  1> ! Engrad def2-TZVPPD wB97M-D3BJ
|  2> %pal nprocs 8 end%pal nprocs 32 end
|  3> %tddft Nroots 2 Iroot 2
|  4> sf true
|  5> end
|  6> *xyz 0 3
|  7> O   0.01403647 0.81050856 0.00212202
|  8> C   0.72276538 -0.46267412 -0.0002991
|  9> C   -0.73299994 -0.46604126 -0.00042932
| 10> H   1.23131528 -0.61676479 0.94977472
| 11> H   1.27998497 -0.61570042 -0.95187442
| 12> H   -1.26343839 -0.60568751 -0.95677734
| 13> H   -1.27203331 -0.59287062 0.92515462
| 14> *
| 15>
| 16>                          ****END OF INPUT****

CARTESIAN COORDINATES (ANGSTROEM)
---------------------------------
  O      0.014036    0.810509    0.002122
  C      0.722765   -0.462674   -0.000299
  C     -0.733000   -0.466041   -0.000429
  H      1.231315   -0.616765    0.949775
  H      1.279985   -0.615700   -0.951874
  H     -1.263438   -0.605688   -0.956777
  H     -1.272033   -0.592871    0.925155

 Total Charge           Charge          ....    0
 Multiplicity           Mult            ....    3
 Number of Electrons    NEL             ....   24
 Basis Dimension        Dim             ....  182

ORBITAL ENERGIES
----------------
                 SPIN UP ORBITALS
  NO   OCC          E(Eh)            E(eV)
   0   1.0000     -19.492258      -530.4113
   1   1.0000     -10.438273      -284.0398
   2   1.0000     -10.418875      -283.5120
   3   1.0000      -1.304959       -35.5097
   4   1.0000      -0.874945       -23.8085
   5   1.0000      -0.795890       -21.6573
   6   1.0000      -0.701271       -19.0825
   7   1.0000      -0.659049       -17.9336
   8   1.0000      -0.576921       -15.6988
   9   1.0000      -0.526494       -14.3266
  10   1.0000      -0.521128       -14.1806
  11   1.0000      -0.490478       -13.3466
  12   1.0000      -0.128435        -3.4949
  13   0.0000       0.035243         0.9590
  14   0.0000       0.054277         1.4769
  15   0.0000       0.068946         1.8761
  16   0.0000       0.087990         2.3943
  17   0.0000       0.095718         2.6046

                 SPIN DOWN ORBITALS
  NO   OCC          E(Eh)            E(eV)
   0   1.0000     -19.459216      -529.5122
   1   1.0000     -10.437148      -284.0092
   2   1.0000     -10.415275      -283.4140
   3   1.0000      -1.235729       -33.6259
   4   1.0000      -0.842293       -22.9199
   5   1.0000      -0.781795       -21.2737
   6   1.0000      -0.646234       -17.5849
   7   1.0000      -0.626114       -17.0374
   8   1.0000      -0.543383       -14.7862
   9   1.0000      -0.510893       -13.9021
  10   1.0000      -0.470313       -12.7979
  11   0.0000      -0.129017        -3.5107
  12   0.0000       0.035262         0.9595
  13   0.0000       0.050355         1.3702
  14   0.0000       0.065831         1.7913
  15   0.0000       0.072810         1.9813

----------------------------------------------------------------------------------------------------
          SPIN FLIP ABSORPTION SPECTRUM VIA TRANSITION ELECTRIC DIPOLE MOMENTS
----------------------------------------------------------------------------------------------------
     Transition      Energy     Energy  Wavelength fosc(D2)      D2        DX        DY        DZ
                      (eV)      (cm-1)    (nm)                 (au**2)    (au)      (au)      (au)
----------------------------------------------------------------------------------------------------
  1-3A  ->  2-3A    6.571662   53004.0   188.7   0.000927470   0.00576  -0.00282   0.01291   0.07474

Dispersion correction             ... done (  0.1 sec)

MULLIKEN ATOMIC CHARGES AND SPIN DENSITIES
------------------------------------------
   0 O :    0.617764    1.030366
   1 C :   -1.771564   -2.060233
   2 C :   -2.071243   -1.905990
   3 H :    0.769518    0.705760
   4 H :    0.738349    0.682779
   5 H :    0.880179    0.788241
   6 H :    0.836996    0.759077
Sum of atomic charges       :    0.0000000

LOEWDIN ATOMIC CHARGES AND SPIN DENSITIES
-----------------------------------------
   0 O :    0.337821    0.599232
   1 C :   -0.127519   -0.233815
   2 C :   -0.152117   -0.166349
   3 H :   -0.011258   -0.053705
   4 H :    0.006254   -0.057184
   5 H :   -0.019417   -0.045838
   6 H :   -0.033765   -0.042341

  Mayer bond orders larger than 0.100000
B(  0-O ,  2-C ) :  -0.2164 B(  0-O ,  3-H ) :   0.2034 B(  0-O ,  4-H ) :   0.2013
B(  0-O ,  5-H ) :   0.2370 B(  0-O ,  6-H ) :   0.2305 B(  1-C ,  2-C ) :   9.2851
B(  1-C ,  3-H ) :  -0.9323 B(  1-C ,  4-H ) :  -0.8527 B(  1-C ,  5-H ) :  -2.8861
B(  1-C ,  6-H ) :  -2.7875 B(  2-C ,  3-H ) :  -2.7799 B(  2-C ,  4-H ) :  -2.7111
B(  2-C ,  5-H ) :  -1.4966 B(  2-C ,  6-H ) :  -1.4254 B(  3-H ,  4-H ) :   0.8013
B(  3-H ,  5-H ) :   1.0242 B(  3-H ,  6-H ) :   0.8241 B(  4-H ,  5-H ) :   0.8321
B(  4-H ,  6-H ) :   0.9878 B(  5-H ,  6-H ) :   0.9645

Dispersion correction           -0.005214635
FINAL SINGLE POINT ENERGY      -153.630002364530

DIPOLE MOMENT
-------------

Method             : TDA/CIS
Type of density    : Electron Density
Level              : Relaxed density
State              :   2
Multiplicity       :   3
Irrep              :   0
Energy             :     0.0000000000000000 Eh
Relativity type    :
Basis              : AO
                                X                 Y                 Z
Electronic contribution:      0.263390523       3.089901889       0.110060076
Nuclear contribution   :     -0.029078399      -2.214183620      -0.030854369
                        -----------------------------------------
Total Dipole Moment    :      0.234312124       0.875718270       0.079205707
                        -----------------------------------------
Magnitude (a.u.)       :      0.909977035
Magnitude (Debye)      :      2.312977806

Rotational constants in cm-1:             0.812431             0.739777             0.464125
Rotational constants in MHz :         24356.070170         22177.955762         13914.112130

                             ****ORCA TERMINATED NORMALLY****
TOTAL RUN TIME: 0 days 0 hours 0 minutes 20 seconds 441 msec
