                         Program Version 6.0.0  -   RELEASE  -
|  1> ! Engrad def2-TZVPPD wB97M-D3BJ
|  2> %pal nprocs 8 end%pal nprocs 64 end
|  3>  %tddft nroots 2 Iroot 1
|  4> sf true
|  5> end
|  6> *xyz 0 3
|  7> O   2.70076134372704 1.13358378849606 -0.60409702450731
|  8> O   -0.48994667048031 0.82221898468019 -2.16030077624225
|  9> O   0.79794640984247 -2.89587968445581 -1.49906695505748
| 10> O   -2.662451801126 -1.64334889568522 0.97281975863166
| 11> N   0.58707283653142 -2.02907046522159 0.59633590507449
| 12> N   -2.11118360693753 0.5122308652071 1.45971237103457
| 13> N   1.80620608655125 -0.90887621474085 -1.00326170129021
| 14> N   -1.65681881473882 -0.35489437541228 -0.61998110379354
| 15> C   1.34768141334584 0.17883986962603 1.09468074741969
| 16> C   -0.77620140514461 1.80937622359231 -0.0190844512707
| 17> C   0.71829681076888 -0.9528191802033 1.44164300255445
| 18> C   -1.44672511223095 1.67267602032823 1.1288415772165
| 19> C   1.61153415308256 1.29186232512806 2.05797584592167
| 20> C   -0.04790917848923 3.05365095611475 -0.41618821496667
| 21> C   2.01248099035282 0.21636742720125 -0.20966838423947
| 22> C   -0.93218015907872 0.76549474187894 -1.03508987892191
| 23> C   1.04341387530807 -2.01688613050355 -0.70468568598152
| 24> C   -2.18445532627826 -0.58265961956518 0.62832703331631
| 25> H   0.27023190239987 -1.08389960383978 2.41487330942766
| 26> H   -1.45304606913847 2.43977143263316 1.88779907036374
| 27> H   1.40740086168456 2.25939438371052 1.61051416593267
| 28> H   1.00094016410896 1.17713883860395 2.95147349991623
| 29> H   2.65934060264625 1.29612716908965 2.35467691389338
| 30> H   -0.49282347648063 3.48036146800692 -1.31300380294356
| 31> H   -0.08518518354192 3.79262957841046 0.38127638337695
| 32> H   0.99147174989837 2.83277958226634 -0.64880332230487
| 33> H   -0.04631072496022 -2.77626822993657 0.82438422867024
| 34> H   -2.54088616227714 0.39812027417123 2.35967313228045
| 35> H   2.14212866173792 -0.85283481677604 -1.95202867192282
| 36> H   -1.71818417108343 -1.12018671280505 -1.27514697158836
| 37> *
| 38>
| 39>                          ****END OF INPUT****

CARTESIAN COORDINATES (ANGSTROEM)
---------------------------------
  O      2.700761    1.133584   -0.604097
  O     -0.489947    0.822219   -2.160301
  O      0.797946   -2.895880   -1.499067
  O     -2.662452   -1.643349    0.972820
  N      0.587073   -2.029070    0.596336
  N     -2.111184    0.512231    1.459712
  N      1.806206   -0.908876   -1.003262
  N     -1.656819   -0.354894   -0.619981
  C      1.347681    0.178840    1.094681
  C     -0.776201    1.809376   -0.019084
  C      0.718297   -0.952819    1.441643
  C     -1.446725    1.672676    1.128842
  C      1.611534    1.291862    2.057976
  C     -0.047909    3.053651   -0.416188
  C      2.012481    0.216367   -0.209668
  C     -0.932180    0.765495   -1.035090
  C      1.043414   -2.016886   -0.704686
  C     -2.184455   -0.582660    0.628327
  H      0.270232   -1.083900    2.414873
  H     -1.453046    2.439771    1.887799
  H      1.407401    2.259394    1.610514
  H      1.000940    1.177139    2.951473
  H      2.659341    1.296127    2.354677
  H     -0.492823    3.480361   -1.313004
  H     -0.085185    3.792630    0.381276
  H      0.991472    2.832780   -0.648803
  H     -0.046311   -2.776268    0.824384
  H     -2.540886    0.398120    2.359673
  H      2.142129   -0.852835   -1.952029
  H     -1.718184   -1.120187   -1.275147

 Total Charge           Charge          ....    0
 Multiplicity           Mult            ....    3
 Number of Electrons    NEL             ....  132
 Basis Dimension        Dim             ....  882

ORBITAL ENERGIES
----------------
                 SPIN UP ORBITALS
  NO   OCC          E(Eh)            E(eV)
   0   1.0000     -19.330854      -526.0193
   1   1.0000     -19.330409      -526.0072
   2   1.0000     -19.324586      -525.8487
   3   1.0000     -19.317241      -525.6488
   4   1.0000     -14.591805      -397.0632
   5   1.0000     -14.585068      -396.8799
   6   1.0000     -14.572472      -396.5371
   7   1.0000     -14.548005      -395.8713
   8   1.0000     -10.516549      -286.1699
   9   1.0000     -10.507956      -285.9360
  10   1.0000     -10.480735      -285.1953
  11   1.0000     -10.455906      -284.5197
  12   1.0000     -10.434498      -283.9371
  13   1.0000     -10.407399      -283.1997
  14   1.0000     -10.396794      -282.9112
  15   1.0000     -10.383955      -282.5618
  16   1.0000     -10.369900      -282.1793
  17   1.0000     -10.352193      -281.6975
  18   1.0000      -1.229835       -33.4655
  19   1.0000      -1.223886       -33.3036
  20   1.0000      -1.195873       -32.5414
  21   1.0000      -1.187998       -32.3271
  22   1.0000      -1.126058       -30.6416
  23   1.0000      -1.123734       -30.5783
  24   1.0000      -1.072770       -29.1916
  25   1.0000      -1.058976       -28.8162
  26   1.0000      -0.976571       -26.5739
  27   1.0000      -0.958795       -26.0901
  28   1.0000      -0.857200       -23.3256
  29   1.0000      -0.849423       -23.1140
  30   1.0000      -0.813861       -22.1463
  31   1.0000      -0.808809       -22.0088
  32   1.0000      -0.796413       -21.6715
  33   1.0000      -0.788014       -21.4429
  34   1.0000      -0.700649       -19.0656
  35   1.0000      -0.698292       -19.0015
  36   1.0000      -0.694654       -18.9025
  37   1.0000      -0.690005       -18.7760
  38   1.0000      -0.647500       -17.6194
  39   1.0000      -0.644006       -17.5243
  40   1.0000      -0.628852       -17.1119
  41   1.0000      -0.601550       -16.3690
  42   1.0000      -0.599561       -16.3149
  43   1.0000      -0.592264       -16.1163
  44   1.0000      -0.578888       -15.7523
  45   1.0000      -0.569719       -15.5028
  46   1.0000      -0.568066       -15.4579
  47   1.0000      -0.553757       -15.0685
  48   1.0000      -0.552182       -15.0256
  49   1.0000      -0.544945       -14.8287
  50   1.0000      -0.531015       -14.4496
  51   1.0000      -0.525260       -14.2931
  52   1.0000      -0.517619       -14.0851
  53   1.0000      -0.514604       -14.0031
  54   1.0000      -0.509668       -13.8688
  55   1.0000      -0.500431       -13.6174
  56   1.0000      -0.490928       -13.3588
  57   1.0000      -0.482335       -13.1250
  58   1.0000      -0.422255       -11.4901
  59   1.0000      -0.418044       -11.3755
  60   1.0000      -0.407710       -11.0944
  61   1.0000      -0.399760       -10.8780
  62   1.0000      -0.390993       -10.6395
  63   1.0000      -0.386436       -10.5155
  64   1.0000      -0.384345       -10.4586
  65   1.0000      -0.348761        -9.4903
  66   1.0000      -0.207143        -5.6367
  67   0.0000       0.010128         0.2756
  68   0.0000       0.018321         0.4985
  69   0.0000       0.032274         0.8782
  70   0.0000       0.037716         1.0263
  71   0.0000       0.041335         1.1248

                 SPIN DOWN ORBITALS
  NO   OCC          E(Eh)            E(eV)
   0   1.0000     -19.330373      -526.0062
   1   1.0000     -19.328915      -525.9665
   2   1.0000     -19.324752      -525.8532
   3   1.0000     -19.311116      -525.4822
   4   1.0000     -14.586571      -396.9208
   5   1.0000     -14.584527      -396.8652
   6   1.0000     -14.572483      -396.5374
   7   1.0000     -14.547124      -395.8474
   8   1.0000     -10.516561      -286.1702
   9   1.0000     -10.508364      -285.9471
  10   1.0000     -10.480674      -285.1936
  11   1.0000     -10.455520      -284.5092
  12   1.0000     -10.433529      -283.9107
  13   1.0000     -10.398011      -282.9443
  14   1.0000     -10.386605      -282.6339
  15   1.0000     -10.384161      -282.5674
  16   1.0000     -10.370371      -282.1921
  17   1.0000     -10.352148      -281.6963
  18   1.0000      -1.229333       -33.4518
  19   1.0000      -1.219797       -33.1924
  20   1.0000      -1.195934       -32.5430
  21   1.0000      -1.178967       -32.0813
  22   1.0000      -1.124933       -30.6110
  23   1.0000      -1.113152       -30.2904
  24   1.0000      -1.072479       -29.1836
  25   1.0000      -1.053507       -28.6674
  26   1.0000      -0.962685       -26.1960
  27   1.0000      -0.948669       -25.8146
  28   1.0000      -0.848727       -23.0950
  29   1.0000      -0.846505       -23.0346
  30   1.0000      -0.812627       -22.1127
  31   1.0000      -0.799418       -21.7533
  32   1.0000      -0.795005       -21.6332
  33   1.0000      -0.781263       -21.2593
  34   1.0000      -0.697576       -18.9820
  35   1.0000      -0.694621       -18.9016
  36   1.0000      -0.688796       -18.7431
  37   1.0000      -0.682041       -18.5593
  38   1.0000      -0.645103       -17.5541
  39   1.0000      -0.634585       -17.2679
  40   1.0000      -0.622330       -16.9344
  41   1.0000      -0.599397       -16.3104
  42   1.0000      -0.591080       -16.0841
  43   1.0000      -0.584106       -15.8943
  44   1.0000      -0.569951       -15.5091
  45   1.0000      -0.565475       -15.3874
  46   1.0000      -0.561860       -15.2890
  47   1.0000      -0.552627       -15.0378
  48   1.0000      -0.544407       -14.8141
  49   1.0000      -0.538654       -14.6575
  50   1.0000      -0.522787       -14.2258
  51   1.0000      -0.518915       -14.1204
  52   1.0000      -0.511807       -13.9270
  53   1.0000      -0.509119       -13.8538
  54   1.0000      -0.500842       -13.6286
  55   1.0000      -0.495606       -13.4861
  56   1.0000      -0.478689       -13.0258
  57   1.0000      -0.446400       -12.1472
  58   1.0000      -0.421893       -11.4803
  59   1.0000      -0.413360       -11.2481
  60   1.0000      -0.405002       -11.0207
  61   1.0000      -0.389339       -10.5944
  62   1.0000      -0.377335       -10.2678
  63   1.0000      -0.377186       -10.2637
  64   1.0000      -0.348036        -9.4706
  65   0.0000      -0.105893        -2.8815
  66   0.0000       0.009708         0.2642
  67   0.0000       0.020103         0.5470
  68   0.0000       0.029362         0.7990
  69   0.0000       0.034995         0.9523

----------------------------------------------------------------------------------------------------
          SPIN FLIP ABSORPTION SPECTRUM VIA TRANSITION ELECTRIC DIPOLE MOMENTS
----------------------------------------------------------------------------------------------------
     Transition      Energy     Energy  Wavelength fosc(D2)      D2        DX        DY        DZ
                      (eV)      (cm-1)    (nm)                 (au**2)    (au)      (au)      (au)
----------------------------------------------------------------------------------------------------
  1-3A  ->  2-3A    4.174845   33672.4   297.0   0.001498427   0.01465   0.05145   0.08354  -0.07087

Dispersion correction             ... done (  0.1 sec)

MULLIKEN ATOMIC CHARGES AND SPIN DENSITIES
------------------------------------------
   0 O :   -0.688195    0.035282
   1 O :   -0.662229    0.001046
   2 O :   -0.647967    0.007500
   3 O :   -0.667383    0.000793
   4 N :   -0.037883    0.053585
   5 N :   -0.000403    0.000296
   6 N :    0.037836    0.001733
   7 N :    0.013277   -0.001130
   8 C :    1.269390    0.391808
   9 C :    0.459109    0.009480
  10 C :   -0.217466   -0.344841
  11 C :    0.248861    0.015420
  12 C :   -1.526135   -0.008478
  13 C :   -1.534775    0.007414
  14 C :    0.084391   -0.189756
  15 C :    0.563351   -0.026668
  16 C :    0.462543    0.018250
  17 C :    0.433537   -0.000187
  18 H :    0.219143    0.025913
  19 H :    0.167726   -0.003911
  20 H :    0.232919   -0.002968
  21 H :    0.334329    0.007311
  22 H :    0.395877    0.006344
  23 H :    0.373208   -0.000101
  24 H :    0.334622    0.001318
  25 H :    0.236971   -0.004203
  26 H :    0.063023   -0.000409
  27 H :    0.018708   -0.001395
  28 H :    0.022071    0.002437
  29 H :    0.011544   -0.001884
Sum of atomic charges       :   -0.0000000

LOEWDIN ATOMIC CHARGES AND SPIN DENSITIES
-----------------------------------------
   0 O :    0.084055    0.029934
   1 O :    0.106407    0.000238
   2 O :    0.092013    0.006038
   3 O :    0.074484    0.000157
   4 N :    0.290583    0.025053
   5 N :    0.284582    0.001032
   6 N :    0.343236   -0.000145
   7 N :    0.344970   -0.000479
   8 C :   -0.145530   -0.038850
   9 C :   -0.152058   -0.000480
  10 C :    0.046835   -0.032099
  11 C :    0.042504    0.002426
  12 C :    0.180247   -0.003738
  13 C :    0.181810    0.000061
  14 C :   -0.411433    0.010004
  15 C :   -0.394283   -0.000235
  16 C :   -0.476119    0.000689
  17 C :   -0.495131   -0.000264
  18 H :    0.040114   -0.002043
  19 H :    0.039985    0.000452
  20 H :   -0.021818   -0.000287
  21 H :   -0.003195    0.000325
  22 H :    0.007482   -0.000534
  23 H :    0.004949    0.000004
  24 H :   -0.003594    0.000004
  25 H :   -0.018569    0.000124
  26 H :   -0.017382    0.002330
  27 H :   -0.019230    0.000083
  28 H :   -0.001929    0.000229
  29 H :   -0.003984   -0.000027

  Mayer bond orders larger than 0.100000
B(  0-O , 14-C ) :   1.3921 B(  1-O , 15-C ) :   1.4009 B(  2-O , 16-C ) :   1.5675
B(  3-O , 17-C ) :   1.5486 B(  4-N , 10-C ) :   0.8443 B(  4-N , 16-C ) :   0.9868
B(  4-N , 26-H ) :   1.1162 B(  5-N , 11-C ) :   0.9603 B(  5-N , 17-C ) :   1.0376
B(  5-N , 27-H ) :   1.1348 B(  6-N ,  8-C ) :  -0.1057 B(  6-N , 14-C ) :   1.0349
B(  6-N , 16-C ) :   0.9381 B(  6-N , 28-H ) :   1.1068 B(  7-N , 15-C ) :   0.9839
B(  7-N , 17-C ) :   0.9367 B(  7-N , 29-H ) :   1.1251 B(  8-C , 10-C ) :   1.0291
B(  8-C , 12-C ) :   0.2959 B(  8-C , 14-C ) :   0.5223 B(  8-C , 18-H ) :  -0.1218
B(  8-C , 20-H ) :  -0.1013 B(  8-C , 21-H ) :  -0.1014 B(  9-C , 11-C ) :   1.0725
B(  9-C , 13-C ) :   0.3956 B(  9-C , 15-C ) :   0.7130 B(  9-C , 24-H ) :  -0.1164
B(  9-C , 25-H ) :  -0.1078 B( 10-C , 12-C ) :  -0.1772 B( 10-C , 18-H ) :   1.1512
B( 11-C , 13-C ) :  -0.2700 B( 11-C , 19-H ) :   1.1045 B( 12-C , 20-H ) :   1.0194
B( 12-C , 21-H ) :   1.0275 B( 12-C , 22-H ) :   0.8489 B( 13-C , 23-H ) :   0.8452
B( 13-C , 24-H ) :   1.0774 B( 13-C , 25-H ) :   0.9886 B( 14-C , 15-C ) :   0.1115

Dispersion correction           -0.061387081
FINAL SINGLE POINT ENERGY      -908.921017711861

DIPOLE MOMENT
-------------

Method             : TDA/CIS
Type of density    : Electron Density
Level              : Relaxed density
State              :   1
Multiplicity       :   3
Irrep              :   0
Energy             :     0.0000000000000000 Eh
Relativity type    :
Basis              : AO
                                X                 Y                 Z
Electronic contribution:     -2.587601029     -10.321174930      -5.989502089
Nuclear contribution   :      1.793696045      11.194623738       8.473677976
                        -----------------------------------------
Total Dipole Moment    :     -0.793904985       0.873448808       2.484175887
                        -----------------------------------------
Magnitude (a.u.)       :      2.750332304
Magnitude (Debye)      :      6.990789150

Rotational constants in cm-1:             0.017836             0.016795             0.013011
Rotational constants in MHz :           534.697819           503.510328           390.051577

                             ****ORCA TERMINATED NORMALLY****
TOTAL RUN TIME: 0 days 0 hours 6 minutes 4 seconds 262 msec
