                         Program Version 6.0.0  -   RELEASE  -
|  1> ! Engrad def2-TZVPPD wB97M-D3BJ
|  2> %pal nprocs 8 end%pal nprocs 64 end
|  3>  %tddft nroots 2 Iroot 1
|  4> sf true
|  5> end
|  6> *xyz 0 3
|  7> O   3.40904653509737 0.39312561836384 -0.7195473032366
|  8> O   -0.87408828579806 1.37894920362547 -2.47092210634956
|  9> O   0.42215032130972 -2.9234507993232 -0.55483581987697
| 10> O   -3.02266648714109 -1.77253396787022 -0.11854961120777
| 11> N   0.34379357794483 -1.36951371967497 1.10093354506681
| 12> N   -2.10974566253796 -0.04025244016864 1.04404856547916
| 13> N   1.610175216558 -0.99820879758038 -0.81179326993137
| 14> N   -1.57089857440191 -0.37100627190722 -1.18743781754347
| 15> C   1.88786400884407 0.46173098171706 1.07400812236253
| 16> C   -0.93923825195094 1.67212072131676 -0.1228417191273
| 17> C   0.41746879267937 0.0110014431284 1.51013374252654
| 18> C   -0.98423153737036 0.84382489508212 1.15765589526185
| 19> C   2.70654211892318 1.2815249925331 1.97581865345792
| 20> C   -0.97124912388299 3.14168054787139 -0.11142551398665
| 21> C   2.38053401395456 -0.00592135137314 -0.19857672120071
| 22> C   -1.10469914405842 0.93207173954665 -1.36391897467251
| 23> C   0.75718333586504 -1.84426883858296 -0.12477153923209
| 24> C   -2.2918300964317 -0.81407146816287 -0.07901182142157
| 25> H   0.42774004299454 0.00292533110046 2.60282503490428
| 26> H   -1.15190049419606 1.51363220430846 1.99728425365058
| 27> H   3.69319030205082 1.44347967698113 1.55370569319701
| 28> H   2.23799910896347 2.25189240921808 2.16978552390557
| 29> H   2.79944254842564 0.79164522491139 2.95189082777605
| 30> H   -1.96621206997107 3.49110146614098 0.19541118872733
| 31> H   -0.26196046411953 3.5533762969786 0.6072312454466
| 32> H   -0.76883935314367 3.53136228580577 -1.10458799528499
| 33> H   -0.28140823076316 -2.00081537286738 1.57222265612404
| 34> H   -2.61242319209519 -0.35435643030297 1.85541373079741
| 35> H   1.98027377405434 -1.37055371766094 -1.67111123282511
| 36> H   -1.70941272980285 -0.91549186315485 -2.02443723278706
| 37> *
| 38>
| 39>                          ****END OF INPUT****

CARTESIAN COORDINATES (ANGSTROEM)
---------------------------------
  O      3.409047    0.393126   -0.719547
  O     -0.874088    1.378949   -2.470922
  O      0.422150   -2.923451   -0.554836
  O     -3.022666   -1.772534   -0.118550
  N      0.343794   -1.369514    1.100934
  N     -2.109746   -0.040252    1.044049
  N      1.610175   -0.998209   -0.811793
  N     -1.570899   -0.371006   -1.187438
  C      1.887864    0.461731    1.074008
  C     -0.939238    1.672121   -0.122842
  C      0.417469    0.011001    1.510134
  C     -0.984232    0.843825    1.157656
  C      2.706542    1.281525    1.975819
  C     -0.971249    3.141681   -0.111426
  C      2.380534   -0.005921   -0.198577
  C     -1.104699    0.932072   -1.363919
  C      0.757183   -1.844269   -0.124772
  C     -2.291830   -0.814071   -0.079012
  H      0.427740    0.002925    2.602825
  H     -1.151900    1.513632    1.997284
  H      3.693190    1.443480    1.553706
  H      2.237999    2.251892    2.169786
  H      2.799443    0.791645    2.951891
  H     -1.966212    3.491101    0.195411
  H     -0.261960    3.553376    0.607231
  H     -0.768839    3.531362   -1.104588
  H     -0.281408   -2.000815    1.572223
  H     -2.612423   -0.354356    1.855414
  H      1.980274   -1.370554   -1.671111
  H     -1.709413   -0.915492   -2.024437

 Total Charge           Charge          ....    0
 Multiplicity           Mult            ....    3
 Number of Electrons    NEL             ....  132
 Basis Dimension        Dim             ....  882

ORBITAL ENERGIES
----------------
                 SPIN UP ORBITALS
  NO   OCC          E(Eh)            E(eV)
   0   1.0000     -19.334278      -526.1124
   1   1.0000     -19.331857      -526.0466
   2   1.0000     -19.319941      -525.7223
   3   1.0000     -19.314454      -525.5730
   4   1.0000     -14.563323      -396.2882
   5   1.0000     -14.557401      -396.1270
   6   1.0000     -14.557170      -396.1207
   7   1.0000     -14.554728      -396.0543
   8   1.0000     -10.503349      -285.8107
   9   1.0000     -10.498828      -285.6876
  10   1.0000     -10.478845      -285.1439
  11   1.0000     -10.476957      -285.0925
  12   1.0000     -10.449700      -284.3508
  13   1.0000     -10.447696      -284.2963
  14   1.0000     -10.425093      -283.6812
  15   1.0000     -10.413349      -283.3616
  16   1.0000     -10.374813      -282.3130
  17   1.0000     -10.372073      -282.2385
  18   1.0000      -1.219968       -33.1970
  19   1.0000      -1.214311       -33.0431
  20   1.0000      -1.195180       -32.5225
  21   1.0000      -1.193650       -32.4809
  22   1.0000      -1.115893       -30.3650
  23   1.0000      -1.095747       -29.8168
  24   1.0000      -1.062894       -28.9228
  25   1.0000      -1.052883       -28.6504
  26   1.0000      -0.966708       -26.3055
  27   1.0000      -0.953142       -25.9363
  28   1.0000      -0.881930       -23.9985
  29   1.0000      -0.838656       -22.8210
  30   1.0000      -0.826397       -22.4874
  31   1.0000      -0.803256       -21.8577
  32   1.0000      -0.781712       -21.2715
  33   1.0000      -0.774226       -21.0678
  34   1.0000      -0.696019       -18.9396
  35   1.0000      -0.691621       -18.8200
  36   1.0000      -0.678041       -18.4504
  37   1.0000      -0.658867       -17.9287
  38   1.0000      -0.651001       -17.7146
  39   1.0000      -0.643346       -17.5063
  40   1.0000      -0.616733       -16.7821
  41   1.0000      -0.601402       -16.3650
  42   1.0000      -0.591462       -16.0945
  43   1.0000      -0.584966       -15.9177
  44   1.0000      -0.573185       -15.5972
  45   1.0000      -0.569279       -15.4909
  46   1.0000      -0.562368       -15.3028
  47   1.0000      -0.558103       -15.1868
  48   1.0000      -0.556307       -15.1379
  49   1.0000      -0.551263       -15.0006
  50   1.0000      -0.543490       -14.7891
  51   1.0000      -0.542924       -14.7737
  52   1.0000      -0.534728       -14.5507
  53   1.0000      -0.520360       -14.1597
  54   1.0000      -0.516032       -14.0419
  55   1.0000      -0.504811       -13.7366
  56   1.0000      -0.486993       -13.2518
  57   1.0000      -0.420414       -11.4400
  58   1.0000      -0.418359       -11.3841
  59   1.0000      -0.411604       -11.2003
  60   1.0000      -0.402750       -10.9594
  61   1.0000      -0.396542       -10.7905
  62   1.0000      -0.390470       -10.6252
  63   1.0000      -0.388215       -10.5639
  64   1.0000      -0.377825       -10.2811
  65   1.0000      -0.338933        -9.2228
  66   1.0000      -0.331629        -9.0241
  67   0.0000       0.005453         0.1484
  68   0.0000       0.027254         0.7416
  69   0.0000       0.031529         0.8579
  70   0.0000       0.039200         1.0667
  71   0.0000       0.055995         1.5237

                 SPIN DOWN ORBITALS
  NO   OCC          E(Eh)            E(eV)
   0   1.0000     -19.329299      -525.9770
   1   1.0000     -19.327493      -525.9278
   2   1.0000     -19.319707      -525.7160
   3   1.0000     -19.314198      -525.5660
   4   1.0000     -14.562629      -396.2693
   5   1.0000     -14.557119      -396.1193
   6   1.0000     -14.556892      -396.1132
   7   1.0000     -14.554162      -396.0389
   8   1.0000     -10.503367      -285.8112
   9   1.0000     -10.498845      -285.6881
  10   1.0000     -10.479949      -285.1739
  11   1.0000     -10.477985      -285.1205
  12   1.0000     -10.449668      -284.3499
  13   1.0000     -10.447797      -284.2990
  14   1.0000     -10.413549      -283.3671
  15   1.0000     -10.401711      -283.0449
  16   1.0000     -10.375401      -282.3290
  17   1.0000     -10.372641      -282.2539
  18   1.0000      -1.218392       -33.1541
  19   1.0000      -1.212087       -32.9826
  20   1.0000      -1.189783       -32.3756
  21   1.0000      -1.188229       -32.3334
  22   1.0000      -1.113525       -30.3006
  23   1.0000      -1.093309       -29.7504
  24   1.0000      -1.061240       -28.8778
  25   1.0000      -1.051372       -28.6093
  26   1.0000      -0.951975       -25.9046
  27   1.0000      -0.936343       -25.4792
  28   1.0000      -0.878293       -23.8996
  29   1.0000      -0.833243       -22.6737
  30   1.0000      -0.817729       -22.2515
  31   1.0000      -0.798152       -21.7188
  32   1.0000      -0.780465       -21.2375
  33   1.0000      -0.772680       -21.0257
  34   1.0000      -0.689636       -18.7659
  35   1.0000      -0.685198       -18.6452
  36   1.0000      -0.673012       -18.3136
  37   1.0000      -0.652630       -17.7590
  38   1.0000      -0.642048       -17.4710
  39   1.0000      -0.638886       -17.3850
  40   1.0000      -0.614323       -16.7166
  41   1.0000      -0.596832       -16.2406
  42   1.0000      -0.582857       -15.8603
  43   1.0000      -0.575560       -15.6618
  44   1.0000      -0.565834       -15.3971
  45   1.0000      -0.561692       -15.2844
  46   1.0000      -0.556267       -15.1368
  47   1.0000      -0.553843       -15.0708
  48   1.0000      -0.546155       -14.8616
  49   1.0000      -0.542984       -14.7753
  50   1.0000      -0.539405       -14.6779
  51   1.0000      -0.535030       -14.5589
  52   1.0000      -0.528738       -14.3877
  53   1.0000      -0.509748       -13.8710
  54   1.0000      -0.505349       -13.7512
  55   1.0000      -0.499396       -13.5893
  56   1.0000      -0.480954       -13.0874
  57   1.0000      -0.416318       -11.3286
  58   1.0000      -0.414283       -11.2732
  59   1.0000      -0.404158       -10.9977
  60   1.0000      -0.390451       -10.6247
  61   1.0000      -0.385326       -10.4853
  62   1.0000      -0.384715       -10.4686
  63   1.0000      -0.382502       -10.4084
  64   1.0000      -0.370959       -10.0943
  65   0.0000      -0.057715        -1.5705
  66   0.0000      -0.046498        -1.2653
  67   0.0000       0.005182         0.1410
  68   0.0000       0.027142         0.7386
  69   0.0000       0.031332         0.8526

----------------------------------------------------------------------------------------------------
          SPIN FLIP ABSORPTION SPECTRUM VIA TRANSITION ELECTRIC DIPOLE MOMENTS
----------------------------------------------------------------------------------------------------
     Transition      Energy     Energy  Wavelength fosc(D2)      D2        DX        DY        DZ
                      (eV)      (cm-1)    (nm)                 (au**2)    (au)      (au)      (au)
----------------------------------------------------------------------------------------------------
  1-3A  ->  2-1A    0.001970      15.9  629282.0   0.000000008   0.00016   0.00671   0.01090   0.00048

Dispersion correction             ... done (  0.1 sec)

MULLIKEN ATOMIC CHARGES AND SPIN DENSITIES
------------------------------------------
   0 O :   -0.675414   -0.131506
   1 O :   -0.675650    0.115210
   2 O :   -0.653336   -0.007455
   3 O :   -0.637104    0.003964
   4 N :   -0.286911   -0.002039
   5 N :   -0.313871    0.011296
   6 N :    0.094175   -0.006349
   7 N :    0.049724    0.017277
   8 C :    1.157238    0.413050
   9 C :    0.037246    0.397953
  10 C :   -0.349030   -0.398902
  11 C :    0.780460    0.013649
  12 C :   -1.285315    0.018753
  13 C :   -1.460979    0.005831
  14 C :   -0.186225   -0.562462
  15 C :    0.447144    0.034911
  16 C :    0.396051    0.036546
  17 C :    0.352193   -0.004914
  18 H :    0.582140   -0.014828
  19 H :    0.485162    0.014756
  20 H :    0.307522   -0.011704
  21 H :    0.302522    0.008190
  22 H :    0.335689    0.003415
  23 H :    0.331661    0.025337
  24 H :    0.294189    0.007950
  25 H :    0.345911    0.008626
  26 H :    0.073061   -0.001212
  27 H :    0.076947    0.001004
  28 H :    0.049647    0.003847
  29 H :    0.025155   -0.000195
Sum of atomic charges       :   -0.0000000

LOEWDIN ATOMIC CHARGES AND SPIN DENSITIES
-----------------------------------------
   0 O :    0.082294   -0.120960
   1 O :    0.098048    0.102488
   2 O :    0.093433   -0.007005
   3 O :    0.100855    0.003913
   4 N :    0.251912   -0.007222
   5 N :    0.265593    0.011775
   6 N :    0.325209   -0.009119
   7 N :    0.322918    0.008373
   8 C :    0.029889   -0.360309
   9 C :   -0.025565    0.379885
  10 C :   -0.039590   -0.010290
  11 C :   -0.075935    0.019936
  12 C :    0.175552   -0.060722
  13 C :    0.183502    0.059973
  14 C :   -0.418867   -0.069625
  15 C :   -0.405314    0.057727
  16 C :   -0.500188   -0.000699
  17 C :   -0.490987    0.000412
  18 H :    0.031756   -0.000126
  19 H :    0.040820   -0.000810
  20 H :   -0.002791    0.000952
  21 H :    0.008851   -0.016457
  22 H :    0.011730   -0.015293
  23 H :    0.015764    0.022036
  24 H :   -0.001998    0.009875
  25 H :   -0.002312    0.000787
  26 H :   -0.029119   -0.000840
  27 H :   -0.028093    0.001302
  28 H :   -0.010681   -0.000701
  29 H :   -0.006686    0.000745

  Mayer bond orders larger than 0.100000
B(  0-O , 14-C ) :   1.3802 B(  1-O , 15-C ) :   1.3936 B(  2-O , 16-C ) :   1.5179
B(  3-O , 17-C ) :   1.5419 B(  4-N ,  8-C ) :   0.1813 B(  4-N , 10-C ) :   0.3138
B(  4-N , 16-C ) :   1.0159 B(  4-N , 26-H ) :   1.0889 B(  5-N ,  9-C ) :   0.3491
B(  5-N , 10-C ) :   0.1181 B(  5-N , 11-C ) :   0.1066 B(  5-N , 17-C ) :   1.1302
B(  5-N , 27-H ) :   1.0463 B(  6-N , 14-C ) :   1.0351 B(  6-N , 16-C ) :   0.9920
B(  6-N , 28-H ) :   1.0657 B(  7-N , 11-C ) :   0.1175 B(  7-N , 15-C ) :   0.9746
B(  7-N , 17-C ) :   0.9786 B(  7-N , 29-H ) :   1.0831 B(  8-C , 10-C ) :   0.1998
B(  8-C , 12-C ) :   0.4552 B(  8-C , 14-C ) :   0.4740 B(  8-C , 20-H ) :  -0.1097
B(  9-C , 10-C ) :   0.4351 B(  9-C , 11-C ) :  -0.3128 B(  9-C , 13-C ) :   0.5210
B(  9-C , 15-C ) :   0.8458 B(  9-C , 19-H ) :  -0.1127 B(  9-C , 25-H ) :  -0.1176
B( 10-C , 11-C ) :   0.5078 B( 10-C , 14-C ) :   0.1415 B( 10-C , 16-C ) :  -0.1374
B( 10-C , 18-H ) :   0.6718 B( 11-C , 13-C ) :  -0.1214 B( 11-C , 15-C ) :  -0.1463
B( 11-C , 17-C ) :  -0.1980 B( 11-C , 19-H ) :   0.9143 B( 12-C , 20-H ) :   1.0094
B( 12-C , 21-H ) :   0.8863 B( 12-C , 22-H ) :   0.9122 B( 13-C , 23-H ) :   0.8941
B( 13-C , 24-H ) :   0.9550 B( 13-C , 25-H ) :   0.9469 B( 14-C , 16-C ) :  -0.1029

Dispersion correction           -0.057014173
FINAL SINGLE POINT ENERGY      -908.787428587629

DIPOLE MOMENT
-------------

Method             : TDA/CIS
Type of density    : Electron Density
Level              : Relaxed density
State              :   1
Multiplicity       :   3
Irrep              :   0
Energy             :     0.0000000000000000 Eh
Relativity type    :
Basis              : AO
                                X                 Y                 Z
Electronic contribution:     -2.484600375      -9.666245202      -7.327996353
Nuclear contribution   :      2.251319228      11.386705525      10.182509062
                        -----------------------------------------
Total Dipole Moment    :     -0.233281147       1.720460323       2.854512709
                        -----------------------------------------
Magnitude (a.u.)       :      3.341054717
Magnitude (Debye)      :      8.492286198

Rotational constants in cm-1:             0.019128             0.014143             0.011850
Rotational constants in MHz :           573.434245           423.990649           355.254555

                             ****ORCA TERMINATED NORMALLY****
TOTAL RUN TIME: 0 days 0 hours 4 minutes 27 seconds 620 msec
