                         Program Version 6.0.0  -   RELEASE  -
|  1> ! Engrad wB97M-D3BJ def2-TZVPPD
|  2> %pal nprocs 8 end%pal nprocs 16 end
|  3> %tddft nroots 2 Iroot 2
|  4>  sf true
|  5> end
|  6> *xyz 0 3
|  7> O   1.01938759387724 1.17589305844042 -0.07019459730579
|  8> C   0.88932630422145 0.03801817430623 0.30850200961814
|  9> C   -0.30965188352343 -0.71175631970393 -0.21663192713744
| 10> H   1.5964917983244 -0.44665548331832 1.00025459203701
| 11> H   0.00386149166477 -1.60854484928809 -0.75401704323402
| 12> H   -0.86552200448916 -0.0540496910661 -0.87432706680187
| 13> H   -0.94276217548356 -1.04793605889702 0.60641403282397
| 14> *
| 15>
| 16>                          ****END OF INPUT****

CARTESIAN COORDINATES (ANGSTROEM)
---------------------------------
  O      1.019388    1.175893   -0.070195
  C      0.889326    0.038018    0.308502
  C     -0.309652   -0.711756   -0.216632
  H      1.596492   -0.446655    1.000255
  H      0.003861   -1.608545   -0.754017
  H     -0.865522   -0.054050   -0.874327
  H     -0.942762   -1.047936    0.606414

 Total Charge           Charge          ....    0
 Multiplicity           Mult            ....    3
 Number of Electrons    NEL             ....   24
 Basis Dimension        Dim             ....  182

ORBITAL ENERGIES
----------------
                 SPIN UP ORBITALS
  NO   OCC          E(Eh)            E(eV)
   0   1.0000     -19.410992      -528.1999
   1   1.0000     -10.380222      -282.4602
   2   1.0000     -10.366224      -282.0793
   3   1.0000      -1.247009       -33.9328
   4   1.0000      -0.877535       -23.8789
   5   1.0000      -0.720420       -19.6036
   6   1.0000      -0.638180       -17.3658
   7   1.0000      -0.583484       -15.8774
   8   1.0000      -0.582320       -15.8457
   9   1.0000      -0.514140       -13.9905
  10   1.0000      -0.511002       -13.9051
  11   1.0000      -0.436422       -11.8756
  12   1.0000      -0.223608        -6.0847
  13   0.0000       0.042406         1.1539
  14   0.0000       0.060469         1.6454
  15   0.0000       0.079361         2.1595
  16   0.0000       0.088363         2.4045
  17   0.0000       0.108615         2.9556

                 SPIN DOWN ORBITALS
  NO   OCC          E(Eh)            E(eV)
   0   1.0000     -19.382989      -527.4379
   1   1.0000     -10.369857      -282.1782
   2   1.0000     -10.363873      -282.0153
   3   1.0000      -1.188414       -32.3384
   4   1.0000      -0.857914       -23.3450
   5   1.0000      -0.676922       -18.4200
   6   1.0000      -0.585662       -15.9367
   7   1.0000      -0.540118       -14.6974
   8   1.0000      -0.533417       -14.5150
   9   1.0000      -0.501468       -13.6456
  10   1.0000      -0.470021       -12.7899
  11   0.0000      -0.080672        -2.1952
  12   0.0000       0.042305         1.1512
  13   0.0000       0.060122         1.6360
  14   0.0000       0.079643         2.1672
  15   0.0000       0.082534         2.2459

----------------------------------------------------------------------------------------------------
          SPIN FLIP ABSORPTION SPECTRUM VIA TRANSITION ELECTRIC DIPOLE MOMENTS
----------------------------------------------------------------------------------------------------
     Transition      Energy     Energy  Wavelength fosc(D2)      D2        DX        DY        DZ
                      (eV)      (cm-1)    (nm)                 (au**2)    (au)      (au)      (au)
----------------------------------------------------------------------------------------------------
  1-3A  ->  2-3A    4.434820   35769.2   279.6   0.000005641   0.00005  -0.00393   0.00228   0.00559

Dispersion correction             ... done (  0.0 sec)

MULLIKEN ATOMIC CHARGES AND SPIN DENSITIES
------------------------------------------
   0 O :   -0.245176    0.615551
   1 C :    0.198151   -0.641119
   2 C :   -0.689311    0.123391
   3 H :    0.114783   -0.012415
   4 H :    0.191951   -0.042084
   5 H :    0.237529   -0.002358
   6 H :    0.192073   -0.040966
Sum of atomic charges       :   -0.0000000

LOEWDIN ATOMIC CHARGES AND SPIN DENSITIES
-----------------------------------------
   0 O :    0.155608    0.425975
   1 C :   -0.245957   -0.374786
   2 C :    0.141774    0.000780
   3 H :   -0.003575   -0.025819
   4 H :   -0.016908   -0.014513
   5 H :   -0.014030    0.002855
   6 H :   -0.016912   -0.014492

  Mayer bond orders larger than 0.100000
B(  0-O ,  1-C ) :   1.2582 B(  1-C ,  2-C ) :   0.6687 B(  1-C ,  3-H ) :   1.0230
B(  2-C ,  4-H ) :   0.9984 B(  2-C ,  5-H ) :   0.9487 B(  2-C ,  6-H ) :   0.9975

Dispersion correction           -0.005552052
FINAL SINGLE POINT ENERGY      -153.757938332930

DIPOLE MOMENT
-------------

Method             : TDA/CIS
Type of density    : Electron Density
Level              : Relaxed density
State              :   2
Multiplicity       :   3
Irrep              :   0
Energy             :     0.0000000000000000 Eh
Relativity type    :
Basis              : AO
                                X                 Y                 Z
Electronic contribution:      1.906594005       3.083287799       0.054771851
Nuclear contribution   :     -2.152310105      -3.589305013      -0.017829472
                        -----------------------------------------
Total Dipole Moment    :     -0.245716099      -0.506017214       0.036942378
                        -----------------------------------------
Magnitude (a.u.)       :      0.563732704
Magnitude (Debye)      :      1.432894660

Rotational constants in cm-1:             1.706872             0.362905             0.316619
Rotational constants in MHz :         51170.746038         10879.607855          9491.997581

                             ****ORCA TERMINATED NORMALLY****
TOTAL RUN TIME: 0 days 0 hours 0 minutes 16 seconds 431 msec
