                         Program Version 6.0.0  -   RELEASE  -
|  1> ! Opt wB97M-D3BJ def2-TZVPPD
|  2> %pal nprocs 8 end %pal nprocs 64 end
|  3> %geom
|  4> Constraints
|  5>     {A 2 1 0 121.01694915254237 C }
|  6> end
|  7> MaxIter 200
|  8> end
|  9> *xyz 0 1
| 10> O   1.4886421900824263 0.8225253784899585 0.0
| 11> C   0.7509 -0.4065 0.0
| 12> C   -0.7502 -0.4076 0.0
| 13> H   1.2625 -0.6786 0.9136
| 14> H   1.2625 -0.6787 -0.9136
| 15> H   -1.2614 -0.6806 -0.9136
| 16> H   -1.2614 -0.6805 0.9136
| 17> *
| 18>
| 19>                          ****END OF INPUT****
 Total Charge           Charge          ....    0
 Multiplicity           Mult            ....    1
 Number of Electrons    NEL             ....   24
Dispersion correction           -0.005386839
FINAL SINGLE POINT ENERGY      -153.694142006782
Dispersion correction             ... done (  0.1 sec)
Dispersion correction           -0.005440252
FINAL SINGLE POINT ENERGY      -153.713682219148
Dispersion correction             ... done (  0.1 sec)
Dispersion correction           -0.005507788
FINAL SINGLE POINT ENERGY      -153.726231819201
Dispersion correction             ... done (  0.1 sec)
FINAL SINGLE POINT ENERGY      -153.731613693941
FINAL SINGLE POINT ENERGY      -153.737885172719
FINAL SINGLE POINT ENERGY      -153.747564914048
FINAL SINGLE POINT ENERGY      -153.760238762644
FINAL SINGLE POINT ENERGY      -153.779565690180
FINAL SINGLE POINT ENERGY      -153.798606190383
FINAL SINGLE POINT ENERGY      -153.838247639398
FINAL SINGLE POINT ENERGY      -153.931023750363
FINAL SINGLE POINT ENERGY      -153.931053713178
FINAL SINGLE POINT ENERGY      -153.931103040336
FINAL SINGLE POINT ENERGY      -153.931180232103
FINAL SINGLE POINT ENERGY      -153.931274580853
FINAL SINGLE POINT ENERGY      -153.931362834720
FINAL SINGLE POINT ENERGY      -153.931392903721
Dispersion correction             ... done (  0.1 sec)
Dispersion correction           -0.005544187
FINAL SINGLE POINT ENERGY      -153.931395390706
Dispersion correction             ... done (  0.1 sec)
Dispersion correction           -0.005543998
FINAL SINGLE POINT ENERGY      -153.931395769704
Dispersion correction             ... done (  0.1 sec)
                    ***********************HURRAY********************

CARTESIAN COORDINATES (ANGSTROEM)
---------------------------------
  O      1.212750    1.103821   -0.125955
  C      0.921241    0.006396    0.273097
  C     -0.322796   -0.686501   -0.206145
  H      1.556457   -0.526163    1.003134
  H     -0.062604   -1.638467   -0.671279
  H     -0.844319   -0.052072   -0.914849
  H     -0.969187   -0.916988    0.641997

 Multiplicity           Mult            ....    1
 Number of Electrons    NEL             ....   24
 Basis Dimension        Dim             ....  182

ORBITAL ENERGIES
----------------

  NO   OCC          E(Eh)            E(eV)
   0   2.0000     -19.338384      -526.2242
   1   2.0000     -10.442907      -284.1659
   2   2.0000     -10.355010      -281.7741
   3   2.0000      -1.187492       -32.3133
   4   2.0000      -0.879953       -23.9447
   5   2.0000      -0.704924       -19.1820
   6   2.0000      -0.598598       -16.2887
   7   2.0000      -0.558919       -15.2090
   8   2.0000      -0.551193       -14.9987
   9   2.0000      -0.507713       -13.8156
  10   2.0000      -0.474462       -12.9108
  11   2.0000      -0.368518       -10.0279
  12   0.0000       0.038311         1.0425
  13   0.0000       0.053331         1.4512
  14   0.0000       0.059129         1.6090
  15   0.0000       0.083902         2.2831
  16   0.0000       0.086598         2.3565

MULLIKEN ATOMIC CHARGES
-----------------------
   0 O :   -0.474552
   1 C :    0.238151
   2 C :   -0.694742
   3 H :    0.243606
   4 H :    0.223098
   5 H :    0.241601
   6 H :    0.222838
Sum of atomic charges:   -0.0000000

LOEWDIN ATOMIC CHARGES
----------------------
   0 O :    0.062962
   1 C :   -0.218689
   2 C :    0.166938
   3 H :    0.023369
   4 H :   -0.012492
   5 H :   -0.009617
   6 H :   -0.012472

  Mayer bond orders larger than 0.100000
B(  0-O ,  1-C ) :   1.7707 B(  1-C ,  2-C ) :   0.7661 B(  1-C ,  3-H ) :   0.9830
B(  2-C ,  4-H ) :   0.9938 B(  2-C ,  5-H ) :   0.9575 B(  2-C ,  6-H ) :   0.9935

Dispersion correction           -0.005543898
FINAL SINGLE POINT ENERGY      -153.931395854657

DIPOLE MOMENT
-------------

Method             : SCF
Type of density    : Electron Density
Multiplicity       :   1
Irrep              :   0
Energy             :  -153.9258519570338422 Eh
Relativity type    :
Basis              : AO
                                X                 Y                 Z
Electronic contribution:      2.109180801       2.467329497       0.104669944
Nuclear contribution   :     -2.528485824      -3.465200393       0.151972254
                        -----------------------------------------
Total Dipole Moment    :     -0.419305024      -0.997870896       0.256642197
                        -----------------------------------------
Magnitude (a.u.)       :      1.112397521
Magnitude (Debye)      :      2.827489795

Rotational constants in cm-1:             1.820905             0.350116             0.310369
Rotational constants in MHz :         54589.366110         10496.217600          9304.618946

                             ****ORCA TERMINATED NORMALLY****
TOTAL RUN TIME: 0 days 0 hours 7 minutes 37 seconds 64 msec
