                         Program Version 6.0.0  -   RELEASE  -
|  1> ! Engrad def2-TZVPPD wB97M-D3BJ
|  2> %pal nprocs 8 end%pal nprocs 32 end
|  3>  %tddft nroots 2 Iroot 2
|  4> sf true
|  5> end
|  6> *xyz 0 3
|  7> O   2.91417952063377 1.23711928038937 -0.48425139664431
|  8> O   -0.51197768774359 0.44975321646092 -1.91726055688053
|  9> O   1.36142627197052 -2.85029293368488 -1.7254393944913
| 10> O   -3.13631940608446 -1.3793153671522 1.29355281731658
| 11> N   0.68011078440998 -1.97466943101602 0.26311111973498
| 12> N   -2.27380273811229 0.70163139494038 1.6418496523143
| 13> N   2.15301008091271 -0.81162566895907 -1.0665627990429
| 14> N   -1.92384220054776 -0.37360019864882 -0.35713421004684
| 15> C   1.35211554357738 0.19973282050311 0.97215784198105
| 16> C   -0.81297099963153 1.72534340720879 0.06391082895534
| 17> C   0.69432105639427 -0.95007914784247 1.17691282613887
| 18> C   -1.50611645671521 1.7628105342485 1.20581349401579
| 19> C   1.51597175526428 1.2440179761082 2.03079251983091
| 20> C   -0.01925382783038 2.88160367810457 -0.45698421479529
| 21> C   2.19534110502393 0.29383643306297 -0.22599916643369
| 22> C   -1.03184627533714 0.58857110024267 -0.83185723221999
| 23> C   1.39235005674489 -1.95034981014146 -0.9199925890322
| 24> C   -2.49921346075827 -0.42965831883078 0.8917477722147
| 25> H   0.1196860184037 -1.13071157961259 2.07339940626965
| 26> H   -1.45914691313838 2.60347456059444 1.88062130461371
| 27> H   1.3754390402556 2.2431982807091 1.63125907741268
| 28> H   0.80891097558465 1.0814060848249 2.84133632954847
| 29> H   2.52487396850623 1.20668946973011 2.43922133184956
| 30> H   -0.43560291795498 3.22195449539015 -1.40326946843632
| 31> H   -0.04022424389926 3.70769204341134 0.25056645468242
| 32> H   1.01548293488189 2.60814426873098 -0.64374667247163
| 33> H   0.12967535646674 -2.79943677529411 0.42184541802722
| 34> H   -2.73414179539517 0.72614165588822 2.53353589593702
| 35> H   2.67043891791244 -0.73950692003881 -1.92810323613694
| 36> H   -2.06627446379458 -1.17887454932755 -0.94643315421132
| 37> *
| 38>
| 39>                          ****END OF INPUT****

CARTESIAN COORDINATES (ANGSTROEM)
---------------------------------
  O      2.914180    1.237119   -0.484251
  O     -0.511978    0.449753   -1.917261
  O      1.361426   -2.850293   -1.725439
  O     -3.136319   -1.379315    1.293553
  N      0.680111   -1.974669    0.263111
  N     -2.273803    0.701631    1.641850
  N      2.153010   -0.811626   -1.066563
  N     -1.923842   -0.373600   -0.357134
  C      1.352116    0.199733    0.972158
  C     -0.812971    1.725343    0.063911
  C      0.694321   -0.950079    1.176913
  C     -1.506116    1.762811    1.205813
  C      1.515972    1.244018    2.030793
  C     -0.019254    2.881604   -0.456984
  C      2.195341    0.293836   -0.225999
  C     -1.031846    0.588571   -0.831857
  C      1.392350   -1.950350   -0.919993
  C     -2.499213   -0.429658    0.891748
  H      0.119686   -1.130712    2.073399
  H     -1.459147    2.603475    1.880621
  H      1.375439    2.243198    1.631259
  H      0.808911    1.081406    2.841336
  H      2.524874    1.206689    2.439221
  H     -0.435603    3.221954   -1.403269
  H     -0.040224    3.707692    0.250566
  H      1.015483    2.608144   -0.643747
  H      0.129675   -2.799437    0.421845
  H     -2.734142    0.726142    2.533536
  H      2.670439   -0.739507   -1.928103
  H     -2.066274   -1.178875   -0.946433

 Total Charge           Charge          ....    0
 Multiplicity           Mult            ....    3
 Number of Electrons    NEL             ....  132
 Basis Dimension        Dim             ....  882

ORBITAL ENERGIES
----------------
                 SPIN UP ORBITALS
  NO   OCC          E(Eh)            E(eV)
   0   1.0000     -19.330310      -526.0045
   1   1.0000     -19.327747      -525.9347
   2   1.0000     -19.327005      -525.9145
   3   1.0000     -19.316699      -525.6341
   4   1.0000     -14.590892      -397.0384
   5   1.0000     -14.587760      -396.9531
   6   1.0000     -14.572661      -396.5423
   7   1.0000     -14.546426      -395.8284
   8   1.0000     -10.516570      -286.1704
   9   1.0000     -10.505580      -285.8714
  10   1.0000     -10.482556      -285.2448
  11   1.0000     -10.456472      -284.5351
  12   1.0000     -10.436867      -284.0016
  13   1.0000     -10.405538      -283.1491
  14   1.0000     -10.395081      -282.8645
  15   1.0000     -10.385275      -282.5977
  16   1.0000     -10.368251      -282.1344
  17   1.0000     -10.352514      -281.7062
  18   1.0000      -1.229806       -33.4647
  19   1.0000      -1.221958       -33.2512
  20   1.0000      -1.197688       -32.5908
  21   1.0000      -1.187125       -32.3033
  22   1.0000      -1.126706       -30.6592
  23   1.0000      -1.122311       -30.5396
  24   1.0000      -1.073347       -29.2073
  25   1.0000      -1.057535       -28.7770
  26   1.0000      -0.976567       -26.5737
  27   1.0000      -0.959375       -26.1059
  28   1.0000      -0.856241       -23.2995
  29   1.0000      -0.850335       -23.1388
  30   1.0000      -0.814712       -22.1695
  31   1.0000      -0.807911       -21.9844
  32   1.0000      -0.797541       -21.7022
  33   1.0000      -0.787117       -21.4185
  34   1.0000      -0.700539       -19.0626
  35   1.0000      -0.699560       -19.0360
  36   1.0000      -0.695732       -18.9318
  37   1.0000      -0.689103       -18.7514
  38   1.0000      -0.646311       -17.5870
  39   1.0000      -0.641710       -17.4618
  40   1.0000      -0.629374       -17.1261
  41   1.0000      -0.605457       -16.4753
  42   1.0000      -0.601279       -16.3616
  43   1.0000      -0.591399       -16.0928
  44   1.0000      -0.577082       -15.7032
  45   1.0000      -0.569586       -15.4992
  46   1.0000      -0.566292       -15.4096
  47   1.0000      -0.554777       -15.0963
  48   1.0000      -0.550556       -14.9814
  49   1.0000      -0.539920       -14.6920
  50   1.0000      -0.530310       -14.4305
  51   1.0000      -0.527650       -14.3581
  52   1.0000      -0.520755       -14.1705
  53   1.0000      -0.515185       -14.0189
  54   1.0000      -0.508727       -13.8432
  55   1.0000      -0.501007       -13.6331
  56   1.0000      -0.488741       -13.2993
  57   1.0000      -0.481019       -13.0892
  58   1.0000      -0.422644       -11.5007
  59   1.0000      -0.415504       -11.3064
  60   1.0000      -0.409305       -11.1378
  61   1.0000      -0.395543       -10.7633
  62   1.0000      -0.392413       -10.6781
  63   1.0000      -0.387961       -10.5570
  64   1.0000      -0.383212       -10.4277
  65   1.0000      -0.347185        -9.4474
  66   1.0000      -0.207329        -5.6417
  67   0.0000       0.009878         0.2688
  68   0.0000       0.017675         0.4810
  69   0.0000       0.028607         0.7784
  70   0.0000       0.037478         1.0198
  71   0.0000       0.041065         1.1174

                 SPIN DOWN ORBITALS
  NO   OCC          E(Eh)            E(eV)
   0   1.0000     -19.330184      -526.0011
   1   1.0000     -19.327150      -525.9185
   2   1.0000     -19.325758      -525.8806
   3   1.0000     -19.310966      -525.4781
   4   1.0000     -14.587359      -396.9422
   5   1.0000     -14.585807      -396.9000
   6   1.0000     -14.572660      -396.5422
   7   1.0000     -14.545596      -395.8058
   8   1.0000     -10.516564      -286.1702
   9   1.0000     -10.505997      -285.8827
  10   1.0000     -10.482484      -285.2429
  11   1.0000     -10.456144      -284.5261
  12   1.0000     -10.435820      -283.9731
  13   1.0000     -10.396010      -282.8898
  14   1.0000     -10.385486      -282.6034
  15   1.0000     -10.384796      -282.5847
  16   1.0000     -10.368730      -282.1475
  17   1.0000     -10.352474      -281.7051
  18   1.0000      -1.229483       -33.4559
  19   1.0000      -1.217623       -33.1332
  20   1.0000      -1.197746       -32.5923
  21   1.0000      -1.178579       -32.0708
  22   1.0000      -1.125875       -30.6366
  23   1.0000      -1.111536       -30.2464
  24   1.0000      -1.073058       -29.1994
  25   1.0000      -1.052298       -28.6345
  26   1.0000      -0.965131       -26.2625
  27   1.0000      -0.946656       -25.7598
  28   1.0000      -0.849761       -23.1232
  29   1.0000      -0.845330       -23.0026
  30   1.0000      -0.813950       -22.1487
  31   1.0000      -0.798714       -21.7341
  32   1.0000      -0.795712       -21.6524
  33   1.0000      -0.780457       -21.2373
  34   1.0000      -0.698835       -19.0163
  35   1.0000      -0.696322       -18.9479
  36   1.0000      -0.688159       -18.7258
  37   1.0000      -0.680983       -18.5305
  38   1.0000      -0.645476       -17.5643
  39   1.0000      -0.631513       -17.1843
  40   1.0000      -0.621969       -16.9246
  41   1.0000      -0.601184       -16.3590
  42   1.0000      -0.594296       -16.1716
  43   1.0000      -0.583133       -15.8679
  44   1.0000      -0.570003       -15.5106
  45   1.0000      -0.564103       -15.3500
  46   1.0000      -0.560345       -15.2478
  47   1.0000      -0.553579       -15.0636
  48   1.0000      -0.543886       -14.7999
  49   1.0000      -0.536091       -14.5878
  50   1.0000      -0.522090       -14.2068
  51   1.0000      -0.519645       -14.1402
  52   1.0000      -0.514625       -14.0036
  53   1.0000      -0.507335       -13.8053
  54   1.0000      -0.500958       -13.6318
  55   1.0000      -0.496537       -13.5115
  56   1.0000      -0.477554       -12.9949
  57   1.0000      -0.446227       -12.1425
  58   1.0000      -0.422232       -11.4895
  59   1.0000      -0.411261       -11.1910
  60   1.0000      -0.404242       -11.0000
  61   1.0000      -0.390987       -10.6393
  62   1.0000      -0.376748       -10.2518
  63   1.0000      -0.375201       -10.2097
  64   1.0000      -0.349601        -9.5131
  65   0.0000      -0.104646        -2.8476
  66   0.0000       0.009556         0.2600
  67   0.0000       0.021502         0.5851
  68   0.0000       0.026763         0.7283
  69   0.0000       0.034247         0.9319

----------------------------------------------------------------------------------------------------
          SPIN FLIP ABSORPTION SPECTRUM VIA TRANSITION ELECTRIC DIPOLE MOMENTS
----------------------------------------------------------------------------------------------------
     Transition      Energy     Energy  Wavelength fosc(D2)      D2        DX        DY        DZ
                      (eV)      (cm-1)    (nm)                 (au**2)    (au)      (au)      (au)
----------------------------------------------------------------------------------------------------
  1-3A  ->  2-3A    4.120608   33235.0   300.9   0.001360244   0.01347   0.04473   0.08804  -0.06101

Dispersion correction             ... done (  0.1 sec)

MULLIKEN ATOMIC CHARGES AND SPIN DENSITIES
------------------------------------------
   0 O :   -0.706042    0.006418
   1 O :   -0.652936   -0.002893
   2 O :   -0.629869    0.005076
   3 O :   -0.664800    0.000634
   4 N :    0.077627    0.042213
   5 N :    0.001901   -0.002972
   6 N :   -0.021843   -0.008141
   7 N :   -0.007642   -0.002010
   8 C :    1.226702    0.027125
   9 C :    0.368336    0.012508
  10 C :   -0.586353    0.018145
  11 C :    0.278014   -0.001569
  12 C :   -1.465411   -0.007712
  13 C :   -1.479138    0.007551
  14 C :    0.236042   -0.093485
  15 C :    0.509360   -0.014400
  16 C :    0.532183    0.003520
  17 C :    0.479865   -0.000479
  18 H :    0.250005    0.007947
  19 H :    0.203819   -0.002221
  20 H :    0.246878    0.003053
  21 H :    0.326261   -0.001972
  22 H :    0.424093    0.011921
  23 H :    0.380909    0.000018
  24 H :    0.335977   -0.000118
  25 H :    0.214728   -0.001468
  26 H :    0.037806   -0.004410
  27 H :    0.019775   -0.001159
  28 H :    0.021730    0.000741
  29 H :    0.042022   -0.001865
Sum of atomic charges       :    0.0000000

LOEWDIN ATOMIC CHARGES AND SPIN DENSITIES
-----------------------------------------
   0 O :    0.068457    0.006033
   1 O :    0.108706   -0.001909
   2 O :    0.112647    0.004013
   3 O :    0.080390    0.000473
   4 N :    0.317967    0.022197
   5 N :    0.283395   -0.001223
   6 N :    0.321100   -0.006561
   7 N :    0.333675   -0.000680
   8 C :   -0.117101    0.005797
   9 C :   -0.152987    0.000493
  10 C :   -0.006285   -0.014960
  11 C :    0.054486    0.000582
  12 C :    0.201191    0.000845
  13 C :    0.187592   -0.000170
  14 C :   -0.430262   -0.007413
  15 C :   -0.398955   -0.000465
  16 C :   -0.464289   -0.002462
  17 C :   -0.489965   -0.000180
  18 H :    0.007131   -0.006514
  19 H :    0.041013   -0.000143
  20 H :   -0.011395    0.000741
  21 H :   -0.004197   -0.000497
  22 H :    0.016640    0.000826
  23 H :    0.007905    0.000007
  24 H :   -0.001981   -0.000072
  25 H :   -0.024394   -0.000092
  26 H :   -0.006079    0.002258
  27 H :   -0.020005   -0.000084
  28 H :   -0.009111   -0.000812
  29 H :   -0.005290   -0.000029

  Mayer bond orders larger than 0.100000
B(  0-O , 14-C ) :   1.2496 B(  1-O , 15-C ) :   1.4227 B(  2-O , 16-C ) :   1.5639
B(  3-O , 17-C ) :   1.5498 B(  4-N , 10-C ) :   0.8765 B(  4-N , 16-C ) :   0.9643
B(  4-N , 26-H ) :   1.1200 B(  5-N , 11-C ) :   0.9949 B(  5-N , 17-C ) :   1.0368
B(  5-N , 27-H ) :   1.1367 B(  6-N , 14-C ) :   0.9688 B(  6-N , 16-C ) :   0.9893
B(  6-N , 28-H ) :   1.1064 B(  7-N , 15-C ) :   1.0421 B(  7-N , 17-C ) :   0.9612
B(  7-N , 29-H ) :   1.0905 B(  8-C , 10-C ) :   0.3012 B(  8-C , 12-C ) :   0.2569
B(  8-C , 14-C ) :   0.7638 B(  8-C , 18-H ) :  -0.1662 B(  8-C , 20-H ) :  -0.1172
B(  8-C , 21-H ) :  -0.1072 B(  9-C , 11-C ) :   0.8826 B(  9-C , 13-C ) :   0.5257
B(  9-C , 15-C ) :   0.7375 B(  9-C , 24-H ) :  -0.1193 B(  9-C , 25-H ) :  -0.1052
B( 10-C , 12-C ) :  -0.1366 B( 10-C , 18-H ) :   1.1722 B( 11-C , 13-C ) :  -0.3045
B( 11-C , 19-H ) :   1.0793 B( 12-C , 20-H ) :   1.0551 B( 12-C , 21-H ) :   1.0401
B( 12-C , 22-H ) :   0.7844 B( 13-C , 23-H ) :   0.8358 B( 13-C , 24-H ) :   1.0728
B( 13-C , 25-H ) :   0.9819

Dispersion correction           -0.060297274
FINAL SINGLE POINT ENERGY      -908.765232919058

DIPOLE MOMENT
-------------

Method             : TDA/CIS
Type of density    : Electron Density
Level              : Relaxed density
State              :   2
Multiplicity       :   3
Irrep              :   0
Energy             :     0.0000000000000000 Eh
Relativity type    :
Basis              : AO
                                X                 Y                 Z
Electronic contribution:     -2.421341088      -9.686242338      -5.621514324
Nuclear contribution   :      1.422849742      10.741015443       7.756119932
                        -----------------------------------------
Total Dipole Moment    :     -0.998491346       1.054773105       2.134605608
                        -----------------------------------------
Magnitude (a.u.)       :      2.581873810
Magnitude (Debye)      :      6.562601687

Rotational constants in cm-1:             0.019834             0.014461             0.011444
Rotational constants in MHz :           594.618940           433.543567           343.070920

                             ****ORCA TERMINATED NORMALLY****
TOTAL RUN TIME: 0 days 0 hours 7 minutes 16 seconds 154 msec
