                         Program Version 6.0.0  -   RELEASE  -
|  1> ! Engrad def2-TZVPPD wB97M-D3BJ
|  2> %pal nprocs 8 end%pal nprocs 64 end
|  3> %tddft
|  4>  Iroot 1 Nroots 3
|  5> sf true
|  6> end
|  7> *xyz 0 3
|  8> O   2.97278859 -0.83191044 -2.09992726
|  9> O   -2.26527809 1.23005018 -1.66500886
| 10> O   -1.23239737 -2.36480706 -1.17437712
| 11> O   -2.76796334 0.7574319 2.7981075
| 12> N   0.21681809 -1.75469495 0.50991985
| 13> N   -0.60797906 1.0000602 2.03020506
| 14> N   0.86973673 -1.51308736 -1.63706382
| 15> N   -2.45813734 0.92282329 0.59884464
| 16> C   2.27806615 -0.6369631 0.19435554
| 17> C   -0.32714472 1.29811445 -0.27764808
| 18> C   1.04102897 -0.6163995 0.97408039
| 19> C   0.35901218 0.84913838 1.01106911
| 20> C   3.48950268 0.04039169 0.67560064
| 21> C   0.4620824 1.75812337 -1.45142718
| 22> C   2.08092085 -1.0112419 -1.2484933
| 23> C   -1.7279655 1.11570092 -0.59654437
| 24> C   -0.18036422 -1.88361543 -0.82078736
| 25> C   -1.95428878 0.85416214 1.90966331
| 26> H   1.28138283 -0.8866939 2.03508664
| 27> H   1.21019329 1.4401577 1.13916119
| 28> H   3.52406949 1.12538673 0.29335483
| 29> H   3.47595408 0.09527946 1.78948237
| 30> H   4.42286733 -0.47892986 0.34113508
| 31> H   0.17766897 1.27007029 -2.4160262
| 32> H   0.18922855 2.82187442 -1.44927833
| 33> H   1.53962511 1.64771029 -1.27071386
| 34> H   -0.57821262 -2.01745984 1.04677705
| 35> H   -0.33464647 1.01464404 3.03318761
| 36> H   0.719365 -1.52640852 -2.62777848
| 37> H   -3.48201796 0.89356433 0.46946665
| 38> *
| 39>
| 40>                          ****END OF INPUT****

CARTESIAN COORDINATES (ANGSTROEM)
---------------------------------
  O      2.972789   -0.831910   -2.099927
  O     -2.265278    1.230050   -1.665009
  O     -1.232397   -2.364807   -1.174377
  O     -2.767963    0.757432    2.798107
  N      0.216818   -1.754695    0.509920
  N     -0.607979    1.000060    2.030205
  N      0.869737   -1.513087   -1.637064
  N     -2.458137    0.922823    0.598845
  C      2.278066   -0.636963    0.194356
  C     -0.327145    1.298114   -0.277648
  C      1.041029   -0.616399    0.974080
  C      0.359012    0.849138    1.011069
  C      3.489503    0.040392    0.675601
  C      0.462082    1.758123   -1.451427
  C      2.080921   -1.011242   -1.248493
  C     -1.727965    1.115701   -0.596544
  C     -0.180364   -1.883615   -0.820787
  C     -1.954289    0.854162    1.909663
  H      1.281383   -0.886694    2.035087
  H      1.210193    1.440158    1.139161
  H      3.524069    1.125387    0.293355
  H      3.475954    0.095279    1.789482
  H      4.422867   -0.478930    0.341135
  H      0.177669    1.270070   -2.416026
  H      0.189229    2.821874   -1.449278
  H      1.539625    1.647710   -1.270714
  H     -0.578213   -2.017460    1.046777
  H     -0.334646    1.014644    3.033188
  H      0.719365   -1.526409   -2.627778
  H     -3.482018    0.893564    0.469467

 Total Charge           Charge          ....    0
 Multiplicity           Mult            ....    3
 Number of Electrons    NEL             ....  132
 Basis Dimension        Dim             ....  882

ORBITAL ENERGIES
----------------
                 SPIN UP ORBITALS
  NO   OCC          E(Eh)            E(eV)
   0   1.0000     -19.337310      -526.1950
   1   1.0000     -19.334529      -526.1193
   2   1.0000     -19.332168      -526.0550
   3   1.0000     -19.320723      -525.7436
   4   1.0000     -14.572618      -396.5411
   5   1.0000     -14.570306      -396.4782
   6   1.0000     -14.554640      -396.0519
   7   1.0000     -14.554619      -396.0513
   8   1.0000     -10.509053      -285.9659
   9   1.0000     -10.508446      -285.9494
  10   1.0000     -10.491479      -285.4876
  11   1.0000     -10.477270      -285.1010
  12   1.0000     -10.453214      -284.4464
  13   1.0000     -10.448757      -284.3251
  14   1.0000     -10.423875      -283.6480
  15   1.0000     -10.417529      -283.4754
  16   1.0000     -10.394356      -282.8448
  17   1.0000     -10.373226      -282.2698
  18   1.0000      -1.223131       -33.2831
  19   1.0000      -1.219797       -33.1924
  20   1.0000      -1.201791       -32.7024
  21   1.0000      -1.191041       -32.4099
  22   1.0000      -1.121959       -30.5300
  23   1.0000      -1.106968       -30.1221
  24   1.0000      -1.063131       -28.9293
  25   1.0000      -1.052393       -28.6371
  26   1.0000      -0.984328       -26.7849
  27   1.0000      -0.958814       -26.0907
  28   1.0000      -0.889780       -24.2121
  29   1.0000      -0.848739       -23.0954
  30   1.0000      -0.818636       -22.2762
  31   1.0000      -0.804107       -21.8809
  32   1.0000      -0.791802       -21.5460
  33   1.0000      -0.777872       -21.1670
  34   1.0000      -0.699188       -19.0259
  35   1.0000      -0.695975       -18.9384
  36   1.0000      -0.683298       -18.5935
  37   1.0000      -0.671027       -18.2596
  38   1.0000      -0.656719       -17.8702
  39   1.0000      -0.639382       -17.3985
  40   1.0000      -0.625123       -17.0105
  41   1.0000      -0.597651       -16.2629
  42   1.0000      -0.594663       -16.1816
  43   1.0000      -0.591646       -16.0995
  44   1.0000      -0.578170       -15.7328
  45   1.0000      -0.570258       -15.5175
  46   1.0000      -0.568686       -15.4747
  47   1.0000      -0.566030       -15.4025
  48   1.0000      -0.561180       -15.2705
  49   1.0000      -0.557998       -15.1839
  50   1.0000      -0.548895       -14.9362
  51   1.0000      -0.540777       -14.7153
  52   1.0000      -0.528586       -14.3836
  53   1.0000      -0.516506       -14.0548
  54   1.0000      -0.510526       -13.8921
  55   1.0000      -0.505071       -13.7437
  56   1.0000      -0.496847       -13.5199
  57   1.0000      -0.432230       -11.7616
  58   1.0000      -0.422405       -11.4942
  59   1.0000      -0.411698       -11.2029
  60   1.0000      -0.410196       -11.1620
  61   1.0000      -0.401361       -10.9216
  62   1.0000      -0.400087       -10.8869
  63   1.0000      -0.388697       -10.5770
  64   1.0000      -0.382518       -10.4089
  65   1.0000      -0.352519        -9.5925
  66   1.0000      -0.323739        -8.8094
  67   0.0000       0.007747         0.2108
  68   0.0000       0.029592         0.8052
  69   0.0000       0.033102         0.9008
  70   0.0000       0.034642         0.9427
  71   0.0000       0.049742         1.3535

                 SPIN DOWN ORBITALS
  NO   OCC          E(Eh)            E(eV)
   0   1.0000     -19.333291      -526.0856
   1   1.0000     -19.331947      -526.0490
   2   1.0000     -19.331281      -526.0309
   3   1.0000     -19.320410      -525.7351
   4   1.0000     -14.572358      -396.5340
   5   1.0000     -14.569931      -396.4680
   6   1.0000     -14.554500      -396.0481
   7   1.0000     -14.553743      -396.0275
   8   1.0000     -10.509114      -285.9675
   9   1.0000     -10.508506      -285.9510
  10   1.0000     -10.492488      -285.5151
  11   1.0000     -10.478102      -285.1236
  12   1.0000     -10.452770      -284.4343
  13   1.0000     -10.448440      -284.3165
  14   1.0000     -10.412323      -283.3337
  15   1.0000     -10.405890      -283.1587
  16   1.0000     -10.395027      -282.8631
  17   1.0000     -10.373606      -282.2802
  18   1.0000      -1.221990       -33.2521
  19   1.0000      -1.218160       -33.1478
  20   1.0000      -1.197822       -32.5944
  21   1.0000      -1.186325       -32.2815
  22   1.0000      -1.119420       -30.4610
  23   1.0000      -1.104773       -30.0624
  24   1.0000      -1.061205       -28.8769
  25   1.0000      -1.050385       -28.5824
  26   1.0000      -0.971856       -26.4456
  27   1.0000      -0.941586       -25.6219
  28   1.0000      -0.883939       -24.0532
  29   1.0000      -0.844258       -22.9734
  30   1.0000      -0.809963       -22.0402
  31   1.0000      -0.798362       -21.7245
  32   1.0000      -0.790260       -21.5041
  33   1.0000      -0.776191       -21.1212
  34   1.0000      -0.694878       -18.9086
  35   1.0000      -0.688685       -18.7401
  36   1.0000      -0.678927       -18.4745
  37   1.0000      -0.664451       -18.0806
  38   1.0000      -0.642411       -17.4809
  39   1.0000      -0.635251       -17.2861
  40   1.0000      -0.621130       -16.9018
  41   1.0000      -0.592080       -16.1113
  42   1.0000      -0.589419       -16.0389
  43   1.0000      -0.587610       -15.9897
  44   1.0000      -0.570658       -15.5284
  45   1.0000      -0.562604       -15.3092
  46   1.0000      -0.561800       -15.2874
  47   1.0000      -0.556638       -15.1469
  48   1.0000      -0.554205       -15.0807
  49   1.0000      -0.552109       -15.0237
  50   1.0000      -0.542228       -14.7548
  51   1.0000      -0.534927       -14.5561
  52   1.0000      -0.520035       -14.1509
  53   1.0000      -0.507661       -13.8142
  54   1.0000      -0.504289       -13.7224
  55   1.0000      -0.498458       -13.5637
  56   1.0000      -0.490549       -13.3485
  57   1.0000      -0.428854       -11.6697
  58   1.0000      -0.419668       -11.4197
  59   1.0000      -0.407845       -11.0980
  60   1.0000      -0.397884       -10.8270
  61   1.0000      -0.393606       -10.7106
  62   1.0000      -0.387630       -10.5479
  63   1.0000      -0.384474       -10.4621
  64   1.0000      -0.374938       -10.2026
  65   0.0000      -0.069812        -1.8997
  66   0.0000      -0.045502        -1.2382
  67   0.0000       0.007107         0.1934
  68   0.0000       0.029309         0.7975
  69   0.0000       0.033004         0.8981

----------------------------------------------------------------------------------------------------
          SPIN FLIP ABSORPTION SPECTRUM VIA TRANSITION ELECTRIC DIPOLE MOMENTS
----------------------------------------------------------------------------------------------------
     Transition      Energy     Energy  Wavelength fosc(D2)      D2        DX        DY        DZ
                      (eV)      (cm-1)    (nm)                 (au**2)    (au)      (au)      (au)
----------------------------------------------------------------------------------------------------
  1-3A  ->  2-3A    0.153614    1239.0  8071.1   0.000049484   0.01315  -0.08901   0.05041   0.05181
  1-3A  ->  3-3A    2.309857   18630.3   536.8   0.002128000   0.03760   0.15031  -0.02998  -0.11880

Dispersion correction             ... done (  0.1 sec)

MULLIKEN ATOMIC CHARGES AND SPIN DENSITIES
------------------------------------------
   0 O :   -0.700226    0.008666
   1 O :   -0.645302   -0.007214
   2 O :   -0.619804   -0.001408
   3 O :   -0.653110   -0.000513
   4 N :   -0.295200   -0.009089
   5 N :   -0.294374    0.000870
   6 N :    0.050457   -0.000484
   7 N :   -0.064000   -0.005657
   8 C :    0.244213    0.288038
   9 C :    0.492656    0.413071
  10 C :    0.531131   -0.140640
  11 C :   -0.092350   -0.258775
  12 C :   -1.329273   -0.016840
  13 C :   -1.502537   -0.021255
  14 C :    0.235991   -0.099769
  15 C :    0.276118   -0.202223
  16 C :    0.353481    0.000938
  17 C :    0.432099    0.013232
  18 H :    0.542183   -0.000618
  19 H :    0.800255   -0.004295
  20 H :    0.266421    0.011736
  21 H :    0.330743    0.005161
  22 H :    0.336680   -0.000056
  23 H :    0.281736    0.006926
  24 H :    0.463264    0.015197
  25 H :    0.290857    0.002280
  26 H :    0.062181   -0.000782
  27 H :    0.113219    0.000876
  28 H :    0.025857    0.000145
  29 H :    0.066632    0.002477
Sum of atomic charges       :    0.0000000

LOEWDIN ATOMIC CHARGES AND SPIN DENSITIES
-----------------------------------------
   0 O :    0.051363    0.006472
   1 O :    0.108854   -0.005300
   2 O :    0.108496   -0.001303
   3 O :    0.081247   -0.000549
   4 N :    0.284936   -0.000199
   5 N :    0.256472   -0.000819
   6 N :    0.329806   -0.001168
   7 N :    0.311624   -0.004671
   8 C :   -0.065249    0.036464
   9 C :    0.000164   -0.015335
  10 C :   -0.100044   -0.002509
  11 C :   -0.082392   -0.005149
  12 C :    0.148867    0.004855
  13 C :    0.187356   -0.002994
  14 C :   -0.382071    0.000026
  15 C :   -0.438097   -0.007354
  16 C :   -0.474555   -0.000777
  17 C :   -0.489168   -0.000707
  18 H :    0.075037   -0.000372
  19 H :    0.008042   -0.000823
  20 H :    0.042621    0.002615
  21 H :    0.010519    0.000207
  22 H :    0.025011    0.000761
  23 H :    0.030490   -0.000108
  24 H :    0.020856   -0.000868
  25 H :   -0.008922   -0.000026
  26 H :   -0.057784    0.000047
  27 H :    0.015059   -0.000023
  28 H :   -0.008737   -0.000076
  29 H :    0.010200   -0.000317

  Mayer bond orders larger than 0.100000
B(  0-O ,  8-C ) :  -0.1182 B(  0-O , 14-C ) :   1.4311 B(  1-O , 15-C ) :   1.3690
B(  2-O , 16-C ) :   1.5233 B(  3-O , 17-C ) :   1.5943 B(  4-N ,  8-C ) :   0.4303
B(  4-N , 10-C ) :  -0.1051 B(  4-N , 11-C ) :   0.1210 B(  4-N , 16-C ) :   1.0379
B(  4-N , 26-H ) :   0.9926 B(  5-N ,  9-C ) :   0.2373 B(  5-N , 10-C ) :   0.1034
B(  5-N , 11-C ) :   0.1929 B(  5-N , 17-C ) :   1.1826 B(  5-N , 19-H ) :  -0.1934
B(  5-N , 27-H ) :   1.0797 B(  6-N ,  8-C ) :  -0.1253 B(  6-N , 10-C ) :   0.1236
B(  6-N , 14-C ) :   1.0510 B(  6-N , 16-C ) :   0.8805 B(  6-N , 28-H ) :   1.1313
B(  7-N ,  9-C ) :  -0.1293 B(  7-N , 11-C ) :   0.1341 B(  7-N , 15-C ) :   1.0451
B(  7-N , 17-C ) :   0.9569 B(  7-N , 29-H ) :   1.0969 B(  8-C ,  9-C ) :   0.1486
B(  8-C , 10-C ) :   0.1424 B(  8-C , 11-C ) :   0.3417 B(  8-C , 12-C ) :   0.4423
B(  8-C , 14-C ) :   0.8323 B(  8-C , 18-H ) :  -0.1840 B(  8-C , 21-H ) :  -0.1487
B(  9-C , 10-C ) :   0.1248 B(  9-C , 11-C ) :   0.6689 B(  9-C , 13-C ) :   0.3416
B(  9-C , 15-C ) :   0.5348 B(  9-C , 19-H ) :  -0.2096 B(  9-C , 25-H ) :  -0.1464
B( 10-C , 11-C ) :   0.3650 B( 10-C , 14-C ) :  -0.1371 B( 10-C , 18-H ) :   0.8536
B( 11-C , 12-C ) :   0.1020 B( 11-C , 13-C ) :  -0.1159 B( 11-C , 17-C ) :  -0.2134
B( 11-C , 18-H ) :  -0.1113 B( 11-C , 19-H ) :   0.4818 B( 12-C , 20-H ) :   0.8853
B( 12-C , 21-H ) :   1.0321 B( 12-C , 22-H ) :   0.9633 B( 13-C , 23-H ) :   0.9754
B( 13-C , 24-H ) :   0.7521 B( 13-C , 25-H ) :   1.1039

Dispersion correction           -0.058277922
FINAL SINGLE POINT ENERGY      -908.779342815986

DIPOLE MOMENT
-------------

Method             : TDA/CIS
Type of density    : Electron Density
Level              : Relaxed density
State              :   1
Multiplicity       :   3
Irrep              :   0
Energy             :     0.0000000000000000 Eh
Relativity type    :
Basis              : AO
                                X                 Y                 Z
Electronic contribution:     -9.477620473      -4.671832470      -0.975460088
Nuclear contribution   :     11.418460263       5.557724215       2.499654663
                        -----------------------------------------
Total Dipole Moment    :      1.940839790       0.885891745       1.524194575
                        -----------------------------------------
Magnitude (a.u.)       :      2.621990156
Magnitude (Debye)      :      6.664569334

Rotational constants in cm-1:             0.022294             0.012080             0.010996
Rotational constants in MHz :           668.371687           362.153201           329.666592

                             ****ORCA TERMINATED NORMALLY****
TOTAL RUN TIME: 0 days 0 hours 5 minutes 16 seconds 316 msec
