                         Program Version 6.0.0  -   RELEASE  -
|  1> ! Engrad wB97M-D3BJ def2-TZVPPD
|  2> %pal nprocs 8 end%pal nprocs 16 end
|  3> %tddft nroots 2 Iroot 2
|  4>  sf true
|  5> end
|  6> *xyz 0 3
|  7> O   0.25917297124685 0.8932575138975 -0.00017198224606
|  8> C   0.7277182027667 -0.38035758775092 2.451134099e-05
|  9> C   -0.68301513920383 -0.51500549066581 -0.00018846006024
| 10> H   1.26692516881361 -0.68843501671705 0.89798394492271
| 11> H   1.26699830081887 -0.6887662769655 -0.89781581054629
| 12> H   -1.22530752512163 -0.58734225656438 -0.92754643462964
| 13> H   -1.22456328946472 -0.5863836762374 0.92771423121853
| 14> *
| 15>
| 16>                          ****END OF INPUT****

CARTESIAN COORDINATES (ANGSTROEM)
---------------------------------
  O      0.259173    0.893258   -0.000172
  C      0.727718   -0.380358    0.000025
  C     -0.683015   -0.515005   -0.000188
  H      1.266925   -0.688435    0.897984
  H      1.266998   -0.688766   -0.897816
  H     -1.225308   -0.587342   -0.927546
  H     -1.224563   -0.586384    0.927714

 Total Charge           Charge          ....    0
 Multiplicity           Mult            ....    3
 Number of Electrons    NEL             ....   24
 Basis Dimension        Dim             ....  182

ORBITAL ENERGIES
----------------
                 SPIN UP ORBITALS
  NO   OCC          E(Eh)            E(eV)
   0   1.0000     -19.436147      -528.8844
   1   1.0000     -10.411617      -283.3145
   2   1.0000     -10.337247      -281.2908
   3   1.0000      -1.253606       -34.1124
   4   1.0000      -0.859239       -23.3811
   5   1.0000      -0.755894       -20.5689
   6   1.0000      -0.664461       -18.0809
   7   1.0000      -0.628434       -17.1006
   8   1.0000      -0.553149       -15.0520
   9   1.0000      -0.498588       -13.5673
  10   1.0000      -0.476401       -12.9635
  11   1.0000      -0.458386       -12.4733
  12   1.0000      -0.201247        -5.4762
  13   0.0000       0.039267         1.0685
  14   0.0000       0.063124         1.7177
  15   0.0000       0.071644         1.9495
  16   0.0000       0.085978         2.3396
  17   0.0000       0.113078         3.0770

                 SPIN DOWN ORBITALS
  NO   OCC          E(Eh)            E(eV)
   0   1.0000     -19.404118      -528.0129
   1   1.0000     -10.412366      -283.3349
   2   1.0000     -10.325824      -280.9800
   3   1.0000      -1.187688       -32.3186
   4   1.0000      -0.824577       -22.4379
   5   1.0000      -0.736351       -20.0371
   6   1.0000      -0.614573       -16.7234
   7   1.0000      -0.592827       -16.1317
   8   1.0000      -0.520745       -14.1702
   9   1.0000      -0.471748       -12.8369
  10   1.0000      -0.412953       -11.2370
  11   0.0000      -0.094039        -2.5589
  12   0.0000       0.035576         0.9681
  13   0.0000       0.055966         1.5229
  14   0.0000       0.060539         1.6474
  15   0.0000       0.067609         1.8397

----------------------------------------------------------------------------------------------------
          SPIN FLIP ABSORPTION SPECTRUM VIA TRANSITION ELECTRIC DIPOLE MOMENTS
----------------------------------------------------------------------------------------------------
     Transition      Energy     Energy  Wavelength fosc(D2)      D2        DX        DY        DZ
                      (eV)      (cm-1)    (nm)                 (au**2)    (au)      (au)      (au)
----------------------------------------------------------------------------------------------------
  1-3A  ->  2-3A    4.804759   38753.0   258.0   0.003614593   0.03071   0.00017   0.00005  -0.17523

Dispersion correction             ... done (  0.0 sec)

MULLIKEN ATOMIC CHARGES AND SPIN DENSITIES
------------------------------------------
   0 O :   -0.292620    0.537179
   1 C :    0.148160    0.279393
   2 C :   -0.211017   -0.373245
   3 H :    0.202875    0.021710
   4 H :    0.202774    0.021594
   5 H :   -0.025140   -0.243336
   6 H :   -0.025032   -0.243297
Sum of atomic charges       :    0.0000000

LOEWDIN ATOMIC CHARGES AND SPIN DENSITIES
-----------------------------------------
   0 O :    0.105730    0.581198
   1 C :   -0.132514    0.044721
   2 C :    0.107886   -0.463432
   3 H :    0.032129    0.016662
   4 H :    0.032150    0.016680
   5 H :   -0.072711   -0.097955
   6 H :   -0.072670   -0.097873

  Mayer bond orders larger than 0.100000
B(  0-O ,  1-C ) :   0.7915 B(  0-O ,  2-C ) :   0.5533 B(  1-C ,  2-C ) :   0.6005
B(  1-C ,  3-H ) :   0.9890 B(  1-C ,  4-H ) :   0.9889 B(  2-C ,  5-H ) :   1.1507
B(  2-C ,  6-H ) :   1.1507 B(  5-H ,  6-H ) :   0.1866

Dispersion correction           -0.005258440
FINAL SINGLE POINT ENERGY      -153.670208458723

DIPOLE MOMENT
-------------

Method             : TDA/CIS
Type of density    : Electron Density
Level              : Relaxed density
State              :   2
Multiplicity       :   3
Irrep              :   0
Energy             :     0.0000000000000000 Eh
Relativity type    :
Basis              : AO
                                X                 Y                 Z
Electronic contribution:      0.931576831       2.405935307      -0.000673194
Nuclear contribution   :     -0.325092923      -2.462596418       0.000687386
                        -----------------------------------------
Total Dipole Moment    :      0.606483908      -0.056661111       0.000014192
                        -----------------------------------------
Magnitude (a.u.)       :      0.609124956
Magnitude (Debye)      :      1.548272595

Rotational constants in cm-1:             0.925620             0.633516             0.442438
Rotational constants in MHz :         27749.400086         18992.325180         13263.957541

                             ****ORCA TERMINATED NORMALLY****
TOTAL RUN TIME: 0 days 0 hours 0 minutes 17 seconds 291 msec
