                         Program Version 6.0.0  -   RELEASE  -
|  1> ! Engrad def2-TZVPPD wB97M-D3BJ
|  2> %pal nprocs 8 end%pal nprocs 32 end
|  3>  %tddft nroots 2 Iroot 1
|  4> sf true
|  5> end
|  6> *xyz 0 3
|  7> O   4.05963441879086 0.13965121070777 0.34304807325018
|  8> O   -1.71485150588565 1.52144052663339 -2.38216363146146
|  9> O   1.14313983819435 -3.01562714925954 -1.08496419584927
| 10> O   -3.62917934474847 -1.35088967540953 0.50766851685516
| 11> N   0.2978795757181 -1.27024872881976 0.09636060429949
| 12> N   -1.98520657184272 -0.00868053887028 1.31505404180488
| 13> N   2.58992543662275 -1.48463693978563 -0.24431579486433
| 14> N   -2.42069171388814 -0.11246939980744 -0.96887231596893
| 15> C   1.81831081041637 0.40567292785697 1.01717332221407
| 16> C   -0.91933734279951 1.57171116857694 -0.15995766524655
| 17> C   0.46454982168682 -0.26796706832603 1.12865324366273
| 18> C   -0.72816339524013 0.70357191017153 1.10077944814444
| 19> C   2.10036970417407 1.65524943695618 1.72415699866695
| 20> C   -0.64034742142197 3.0073363686342 -0.09805737170182
| 21> C   2.91913504442019 -0.28663535799479 0.36030743318468
| 22> C   -1.67689297948767 1.0247133047604 -1.27387192409007
| 23> C   1.31514287561412 -2.00237434585913 -0.4480663588253
| 24> C   -2.74333985821116 -0.54981158765202 0.31027212148906
| 25> H   0.44378006145207 -0.7718303596408 2.11814598628037
| 26> H   -0.60669380285919 1.38992315790452 1.93931585332559
| 27> H   3.16568299362762 1.75201931620338 1.91239133551885
| 28> H   1.80676500494928 2.53367908562908 1.12026907989681
| 29> H   1.53302363493788 1.73704410028967 2.65377434116799
| 30> H   -1.20426049308233 3.47892649330321 0.71620685216813
| 31> H   0.41593114740443 3.20407510385025 0.15052784508542
| 32> H   -0.88682702919285 3.49288891513643 -1.03631534630765
| 33> H   -0.57252354051638 -1.77389219332076 0.08095457691956
| 34> H   -2.22088589344374 -0.35619751676956 2.22803959908133
| 35> H   3.3326428412217 -1.97438625670627 -0.71704074167504
| 36> H   -3.00411231661075 -0.47725590839241 -1.70487392702528
| 37> *
| 38>
| 39>                          ****END OF INPUT****

CARTESIAN COORDINATES (ANGSTROEM)
---------------------------------
  O      4.059634    0.139651    0.343048
  O     -1.714852    1.521441   -2.382164
  O      1.143140   -3.015627   -1.084964
  O     -3.629179   -1.350890    0.507669
  N      0.297880   -1.270249    0.096361
  N     -1.985207   -0.008681    1.315054
  N      2.589925   -1.484637   -0.244316
  N     -2.420692   -0.112469   -0.968872
  C      1.818311    0.405673    1.017173
  C     -0.919337    1.571711   -0.159958
  C      0.464550   -0.267967    1.128653
  C     -0.728163    0.703572    1.100779
  C      2.100370    1.655249    1.724157
  C     -0.640347    3.007336   -0.098057
  C      2.919135   -0.286635    0.360307
  C     -1.676893    1.024713   -1.273872
  C      1.315143   -2.002374   -0.448066
  C     -2.743340   -0.549812    0.310272
  H      0.443780   -0.771830    2.118146
  H     -0.606694    1.389923    1.939316
  H      3.165683    1.752019    1.912391
  H      1.806765    2.533679    1.120269
  H      1.533024    1.737044    2.653774
  H     -1.204260    3.478926    0.716207
  H      0.415931    3.204075    0.150528
  H     -0.886827    3.492889   -1.036315
  H     -0.572524   -1.773892    0.080955
  H     -2.220886   -0.356198    2.228040
  H      3.332643   -1.974386   -0.717041
  H     -3.004112   -0.477256   -1.704874

 Total Charge           Charge          ....    0
 Multiplicity           Mult            ....    3
 Number of Electrons    NEL             ....  132
 Basis Dimension        Dim             ....  882

ORBITAL ENERGIES
----------------
                 SPIN UP ORBITALS
  NO   OCC          E(Eh)            E(eV)
   0   1.0000     -19.338889      -526.2379
   1   1.0000     -19.334556      -526.1200
   2   1.0000     -19.325648      -525.8776
   3   1.0000     -19.317998      -525.6694
   4   1.0000     -14.568590      -396.4315
   5   1.0000     -14.565794      -396.3554
   6   1.0000     -14.563508      -396.2932
   7   1.0000     -14.558226      -396.1495
   8   1.0000     -10.511195      -286.0242
   9   1.0000     -10.504375      -285.8386
  10   1.0000     -10.485350      -285.3209
  11   1.0000     -10.483105      -285.2598
  12   1.0000     -10.452850      -284.4365
  13   1.0000     -10.449781      -284.3530
  14   1.0000     -10.423943      -283.6499
  15   1.0000     -10.422472      -283.6099
  16   1.0000     -10.378512      -282.4137
  17   1.0000     -10.378026      -282.4004
  18   1.0000      -1.225589       -33.3500
  19   1.0000      -1.219709       -33.1900
  20   1.0000      -1.202404       -32.7191
  21   1.0000      -1.197873       -32.5958
  22   1.0000      -1.122531       -30.5456
  23   1.0000      -1.100361       -29.9424
  24   1.0000      -1.070699       -29.1352
  25   1.0000      -1.059753       -28.8374
  26   1.0000      -0.984932       -26.8014
  27   1.0000      -0.960829       -26.1455
  28   1.0000      -0.899522       -24.4772
  29   1.0000      -0.845004       -22.9937
  30   1.0000      -0.833602       -22.6835
  31   1.0000      -0.801637       -21.8136
  32   1.0000      -0.789032       -21.4707
  33   1.0000      -0.785507       -21.3747
  34   1.0000      -0.704871       -19.1805
  35   1.0000      -0.701951       -19.1011
  36   1.0000      -0.691902       -18.8276
  37   1.0000      -0.681763       -18.5517
  38   1.0000      -0.648461       -17.6455
  39   1.0000      -0.643599       -17.5132
  40   1.0000      -0.627778       -17.0827
  41   1.0000      -0.607778       -16.5385
  42   1.0000      -0.600542       -16.3416
  43   1.0000      -0.588791       -16.0218
  44   1.0000      -0.581306       -15.8181
  45   1.0000      -0.578907       -15.7529
  46   1.0000      -0.571582       -15.5535
  47   1.0000      -0.565289       -15.3823
  48   1.0000      -0.562148       -15.2968
  49   1.0000      -0.560813       -15.2605
  50   1.0000      -0.554396       -15.0859
  51   1.0000      -0.547463       -14.8972
  52   1.0000      -0.537651       -14.6302
  53   1.0000      -0.526796       -14.3348
  54   1.0000      -0.516256       -14.0480
  55   1.0000      -0.511780       -13.9262
  56   1.0000      -0.494084       -13.4447
  57   1.0000      -0.425256       -11.5718
  58   1.0000      -0.423715       -11.5299
  59   1.0000      -0.413806       -11.2602
  60   1.0000      -0.407169       -11.0796
  61   1.0000      -0.401211       -10.9175
  62   1.0000      -0.396592       -10.7918
  63   1.0000      -0.391221       -10.6457
  64   1.0000      -0.384691       -10.4680
  65   1.0000      -0.348010        -9.4698
  66   1.0000      -0.339229        -9.2309
  67   0.0000       0.007361         0.2003
  68   0.0000       0.028514         0.7759
  69   0.0000       0.031507         0.8574
  70   0.0000       0.033513         0.9119
  71   0.0000       0.053431         1.4539

                 SPIN DOWN ORBITALS
  NO   OCC          E(Eh)            E(eV)
   0   1.0000     -19.334641      -526.1223
   1   1.0000     -19.330518      -526.0101
   2   1.0000     -19.325454      -525.8723
   3   1.0000     -19.317968      -525.6686
   4   1.0000     -14.568120      -396.4187
   5   1.0000     -14.565492      -396.3472
   6   1.0000     -14.562845      -396.2752
   7   1.0000     -14.558133      -396.1470
   8   1.0000     -10.511212      -286.0246
   9   1.0000     -10.504418      -285.8397
  10   1.0000     -10.486433      -285.3503
  11   1.0000     -10.484108      -285.2871
  12   1.0000     -10.452984      -284.4402
  13   1.0000     -10.449881      -284.3557
  14   1.0000     -10.412107      -283.3278
  15   1.0000     -10.411020      -283.2983
  16   1.0000     -10.379123      -282.4303
  17   1.0000     -10.378617      -282.4165
  18   1.0000      -1.224007       -33.3069
  19   1.0000      -1.217917       -33.1412
  20   1.0000      -1.197344       -32.5814
  21   1.0000      -1.193494       -32.4766
  22   1.0000      -1.120323       -30.4855
  23   1.0000      -1.098345       -29.8875
  24   1.0000      -1.068990       -29.0887
  25   1.0000      -1.058364       -28.7995
  26   1.0000      -0.972372       -26.4596
  27   1.0000      -0.943394       -25.6711
  28   1.0000      -0.894530       -24.3414
  29   1.0000      -0.839558       -22.8455
  30   1.0000      -0.824314       -22.4307
  31   1.0000      -0.797437       -21.6994
  32   1.0000      -0.787222       -21.4214
  33   1.0000      -0.783946       -21.3323
  34   1.0000      -0.700865       -19.0715
  35   1.0000      -0.695226       -18.9181
  36   1.0000      -0.685016       -18.6402
  37   1.0000      -0.674475       -18.3534
  38   1.0000      -0.641700       -17.4616
  39   1.0000      -0.633837       -17.2476
  40   1.0000      -0.625227       -17.0133
  41   1.0000      -0.602516       -16.3953
  42   1.0000      -0.594264       -16.1708
  43   1.0000      -0.583028       -15.8650
  44   1.0000      -0.573876       -15.6160
  45   1.0000      -0.570892       -15.5348
  46   1.0000      -0.566218       -15.4076
  47   1.0000      -0.562079       -15.2949
  48   1.0000      -0.557199       -15.1622
  49   1.0000      -0.552346       -15.0301
  50   1.0000      -0.543650       -14.7935
  51   1.0000      -0.539083       -14.6692
  52   1.0000      -0.529592       -14.4109
  53   1.0000      -0.517153       -14.0725
  54   1.0000      -0.509772       -13.8716
  55   1.0000      -0.504404       -13.7255
  56   1.0000      -0.488879       -13.3031
  57   1.0000      -0.422336       -11.4923
  58   1.0000      -0.419191       -11.4068
  59   1.0000      -0.406286       -11.0556
  60   1.0000      -0.395373       -10.7586
  61   1.0000      -0.393540       -10.7088
  62   1.0000      -0.391904       -10.6643
  63   1.0000      -0.387065       -10.5326
  64   1.0000      -0.380560       -10.3556
  65   0.0000      -0.064129        -1.7450
  66   0.0000      -0.051812        -1.4099
  67   0.0000       0.007084         0.1928
  68   0.0000       0.028178         0.7668
  69   0.0000       0.030980         0.8430

----------------------------------------------------------------------------------------------------
          SPIN FLIP ABSORPTION SPECTRUM VIA TRANSITION ELECTRIC DIPOLE MOMENTS
----------------------------------------------------------------------------------------------------
     Transition      Energy     Energy  Wavelength fosc(D2)      D2        DX        DY        DZ
                      (eV)      (cm-1)    (nm)                 (au**2)    (au)      (au)      (au)
----------------------------------------------------------------------------------------------------
  1-3A  ->  2-3A    0.055776     449.9  22228.9   0.000000241   0.00018  -0.01162  -0.00600  -0.00230

Dispersion correction             ... done (  0.1 sec)

MULLIKEN ATOMIC CHARGES AND SPIN DENSITIES
------------------------------------------
   0 O :   -0.669156   -0.147144
   1 O :   -0.641701    0.146165
   2 O :   -0.659028   -0.002558
   3 O :   -0.643030    0.005728
   4 N :   -0.170901   -0.022080
   5 N :   -0.294305    0.024190
   6 N :   -0.035909   -0.024237
   7 N :    0.026792    0.014825
   8 C :    1.294315    0.228927
   9 C :    0.087608    0.479873
  10 C :    0.001231   -0.309089
  11 C :    0.600415   -0.075841
  12 C :   -1.551866    0.110015
  13 C :   -1.388147    0.048512
  14 C :   -0.095218   -0.588302
  15 C :    0.409356    0.139921
  16 C :    0.411209    0.024526
  17 C :    0.401750   -0.000911
  18 H :    0.440617   -0.063409
  19 H :    0.581403   -0.001715
  20 H :    0.325676   -0.012386
  21 H :    0.254759   -0.030242
  22 H :    0.345897    0.006241
  23 H :    0.311044    0.021586
  24 H :    0.130575   -0.002039
  25 H :    0.359382    0.011391
  26 H :    0.024322    0.011919
  27 H :    0.047502   -0.000574
  28 H :    0.055712    0.007713
  29 H :    0.039697   -0.001009
Sum of atomic charges       :    0.0000000

LOEWDIN ATOMIC CHARGES AND SPIN DENSITIES
-----------------------------------------
   0 O :    0.077189   -0.128559
   1 O :    0.104459    0.132079
   2 O :    0.093531   -0.001905
   3 O :    0.089225    0.005646
   4 N :    0.286712   -0.000476
   5 N :    0.278700    0.014920
   6 N :    0.325343   -0.027121
   7 N :    0.320395    0.012185
   8 C :    0.025410   -0.473921
   9 C :    0.002797    0.508464
  10 C :   -0.120664   -0.049867
  11 C :   -0.104670    0.035237
  12 C :    0.181681   -0.078118
  13 C :    0.186847    0.082069
  14 C :   -0.417723   -0.087456
  15 C :   -0.395239    0.076785
  16 C :   -0.470218   -0.000902
  17 C :   -0.502075    0.001187
  18 H :    0.074523   -0.024292
  19 H :    0.040489    0.000663
  20 H :    0.003875   -0.003577
  21 H :   -0.003816   -0.026885
  22 H :    0.009682   -0.010204
  23 H :    0.018618    0.025427
  24 H :   -0.017851    0.019655
  25 H :    0.000890   -0.001153
  26 H :   -0.039799    0.000184
  27 H :   -0.027837    0.001157
  28 H :   -0.010465   -0.002300
  29 H :   -0.010006    0.001078

  Mayer bond orders larger than 0.100000
B(  0-O ,  8-C ) :   0.1407 B(  0-O , 14-C ) :   1.2775 B(  1-O , 15-C ) :   1.4219
B(  2-O , 16-C ) :   1.5685 B(  3-O , 17-C ) :   1.5956 B(  4-N , 10-C ) :   0.4845
B(  4-N , 11-C ) :   0.1432 B(  4-N , 16-C ) :   1.1461 B(  4-N , 26-H ) :   1.0911
B(  5-N ,  9-C ) :   0.2219 B(  5-N , 10-C ) :   0.1833 B(  5-N , 17-C ) :   1.1462
B(  5-N , 27-H ) :   1.1044 B(  6-N , 14-C ) :   0.9511 B(  6-N , 16-C ) :   0.9302
B(  6-N , 28-H ) :   1.1207 B(  7-N , 15-C ) :   1.0649 B(  7-N , 17-C ) :   0.9457
B(  7-N , 29-H ) :   1.0839 B(  8-C ,  9-C ) :   0.1301 B(  8-C , 10-C ) :   0.6161
B(  8-C , 14-C ) :   0.3123 B(  8-C , 20-H ) :  -0.1116 B(  8-C , 22-H ) :  -0.1670
B(  9-C , 10-C ) :   0.1832 B(  9-C , 11-C ) :  -0.1901 B(  9-C , 13-C ) :   0.4788
B(  9-C , 15-C ) :   0.7489 B(  9-C , 19-H ) :  -0.1637 B( 10-C , 11-C ) :   0.5881
B( 10-C , 14-C ) :   0.3932 B( 10-C , 18-H ) :   0.7391 B( 11-C , 13-C ) :  -0.2377
B( 11-C , 17-C ) :  -0.1858 B( 11-C , 19-H ) :   0.8001 B( 12-C , 14-C ) :  -0.1478
B( 12-C , 20-H ) :   1.0701 B( 12-C , 21-H ) :   0.8229 B( 12-C , 22-H ) :   1.0499
B( 13-C , 15-C ) :  -0.1117 B( 13-C , 23-H ) :   0.9106 B( 13-C , 24-H ) :   1.0944
B( 13-C , 25-H ) :   0.9387

Dispersion correction           -0.056578479
FINAL SINGLE POINT ENERGY      -908.802740047483

DIPOLE MOMENT
-------------

Method             : TDA/CIS
Type of density    : Electron Density
Level              : Relaxed density
State              :   1
Multiplicity       :   3
Irrep              :   0
Energy             :     0.0000000000000000 Eh
Relativity type    :
Basis              : AO
                                X                 Y                 Z
Electronic contribution:     -2.128165500     -10.189370381      -5.975191761
Nuclear contribution   :      1.982610529      11.784198783       8.190108624
                        -----------------------------------------
Total Dipole Moment    :     -0.145554971       1.594828402       2.214916863
                        -----------------------------------------
Magnitude (a.u.)       :      2.733225309
Magnitude (Debye)      :      6.947306624

Rotational constants in cm-1:             0.020470             0.011407             0.009499
Rotational constants in MHz :           613.680650           341.961140           284.758535

                             ****ORCA TERMINATED NORMALLY****
TOTAL RUN TIME: 0 days 0 hours 22 minutes 57 seconds 499 msec
