                         Program Version 6.0.0  -   RELEASE  -
|  1> ! Engrad def2-TZVPPD wB97M-D3BJ
|  2> %pal nprocs 8 end%pal nprocs 64 end
|  3> %tddft
|  4>  Iroot 1 Nroots 3
|  5> sf true
|  6> end
|  7> *xyz 0 3
|  8> O   3.62600826 -0.82693564 -0.38440558
|  9> O   -1.2180394 1.33381726 -2.64834497
| 10> O   -0.47116689 -2.85281012 -0.51678904
| 11> O   -3.46362689 -0.66836308 0.87046944
| 12> N   0.03884366 -1.36164967 1.07467178
| 13> N   -1.75123908 0.79362961 1.22492569
| 14> N   1.45747255 -1.57429678 -0.74613365
| 15> N   -2.1537753 0.08089123 -0.9545723
| 16> C   1.90088781 0.04410834 0.95478906
| 17> C   -0.34966555 1.55087318 -0.52084483
| 18> C   0.5460525 -0.08572777 1.40902321
| 19> C   -0.47001642 1.21141976 0.89527881
| 20> C   2.81164544 1.07834112 1.52048581
| 21> C   0.6334238 2.6195046 -1.10644066
| 22> C   2.39977967 -0.80701946 -0.10275364
| 23> C   -1.25405099 0.9316396 -1.51284269
| 24> C   0.24320847 -1.97450155 -0.08724213
| 25> C   -2.5000376 -0.01288214 0.41690555
| 26> H   0.56555948 0.06860316 2.53143111
| 27> H   -0.14563044 1.99277013 1.59891943
| 28> H   3.80809796 0.92227493 1.15475762
| 29> H   2.56728401 2.10665785 1.17567521
| 30> H   2.75062751 1.16175955 2.62290407
| 31> H   0.63860003 2.46419886 -2.20949428
| 32> H   0.13099736 3.61287658 -0.87932845
| 33> H   1.65452286 2.56418791 -0.69942384
| 34> H   -0.90457068 -1.36561302 1.49030388
| 35> H   -1.84985536 0.65980364 2.22090676
| 36> H   1.77470369 -2.24894593 -1.48158118
| 37> H   -2.60224835 -0.63068513 -1.5031026
| 38> *
| 39>
| 40>                          ****END OF INPUT****

CARTESIAN COORDINATES (ANGSTROEM)
---------------------------------
  O      3.626008   -0.826936   -0.384406
  O     -1.218039    1.333817   -2.648345
  O     -0.471167   -2.852810   -0.516789
  O     -3.463627   -0.668363    0.870469
  N      0.038844   -1.361650    1.074672
  N     -1.751239    0.793630    1.224926
  N      1.457473   -1.574297   -0.746134
  N     -2.153775    0.080891   -0.954572
  C      1.900888    0.044108    0.954789
  C     -0.349666    1.550873   -0.520845
  C      0.546053   -0.085728    1.409023
  C     -0.470016    1.211420    0.895279
  C      2.811645    1.078341    1.520486
  C      0.633424    2.619505   -1.106441
  C      2.399780   -0.807019   -0.102754
  C     -1.254051    0.931640   -1.512843
  C      0.243208   -1.974502   -0.087242
  C     -2.500038   -0.012882    0.416906
  H      0.565559    0.068603    2.531431
  H     -0.145630    1.992770    1.598919
  H      3.808098    0.922275    1.154758
  H      2.567284    2.106658    1.175675
  H      2.750628    1.161760    2.622904
  H      0.638600    2.464199   -2.209494
  H      0.130997    3.612877   -0.879328
  H      1.654523    2.564188   -0.699424
  H     -0.904571   -1.365613    1.490304
  H     -1.849855    0.659804    2.220907
  H      1.774704   -2.248946   -1.481581
  H     -2.602248   -0.630685   -1.503103

 Total Charge           Charge          ....    0
 Multiplicity           Mult            ....    3
 Number of Electrons    NEL             ....  132
 Basis Dimension        Dim             ....  882

ORBITAL ENERGIES
----------------
                 SPIN UP ORBITALS
  NO   OCC          E(Eh)            E(eV)
   0   1.0000     -19.338422      -526.2252
   1   1.0000     -19.335239      -526.1386
   2   1.0000     -19.332573      -526.0660
   3   1.0000     -19.328635      -525.9589
   4   1.0000     -14.577258      -396.6674
   5   1.0000     -14.576413      -396.6444
   6   1.0000     -14.572174      -396.5290
   7   1.0000     -14.571717      -396.5166
   8   1.0000     -10.527258      -286.4613
   9   1.0000     -10.514378      -286.1108
  10   1.0000     -10.486117      -285.3418
  11   1.0000     -10.481960      -285.2286
  12   1.0000     -10.450585      -284.3749
  13   1.0000     -10.446807      -284.2721
  14   1.0000     -10.418435      -283.5000
  15   1.0000     -10.413271      -283.3595
  16   1.0000     -10.379522      -282.4411
  17   1.0000     -10.373973      -282.2902
  18   1.0000      -1.227945       -33.4141
  19   1.0000      -1.222076       -33.2544
  20   1.0000      -1.202389       -32.7187
  21   1.0000      -1.181048       -32.1380
  22   1.0000      -1.135877       -30.9088
  23   1.0000      -1.115739       -30.3608
  24   1.0000      -1.084515       -29.5111
  25   1.0000      -1.063715       -28.9452
  26   1.0000      -0.978977       -26.6393
  27   1.0000      -0.948903       -25.8210
  28   1.0000      -0.880333       -23.9551
  29   1.0000      -0.846551       -23.0358
  30   1.0000      -0.826544       -22.4914
  31   1.0000      -0.812222       -22.1017
  32   1.0000      -0.803207       -21.8564
  33   1.0000      -0.785621       -21.3778
  34   1.0000      -0.706524       -19.2255
  35   1.0000      -0.699473       -19.0336
  36   1.0000      -0.690047       -18.7771
  37   1.0000      -0.681987       -18.5578
  38   1.0000      -0.664417       -18.0797
  39   1.0000      -0.651107       -17.7175
  40   1.0000      -0.627269       -17.0689
  41   1.0000      -0.604149       -16.4397
  42   1.0000      -0.600434       -16.3386
  43   1.0000      -0.586259       -15.9529
  44   1.0000      -0.575735       -15.6666
  45   1.0000      -0.571228       -15.5439
  46   1.0000      -0.567719       -15.4484
  47   1.0000      -0.562555       -15.3079
  48   1.0000      -0.560012       -15.2387
  49   1.0000      -0.554905       -15.0997
  50   1.0000      -0.547296       -14.8927
  51   1.0000      -0.531156       -14.4535
  52   1.0000      -0.524197       -14.2641
  53   1.0000      -0.520962       -14.1761
  54   1.0000      -0.513369       -13.9695
  55   1.0000      -0.504644       -13.7321
  56   1.0000      -0.489644       -13.3239
  57   1.0000      -0.432194       -11.7606
  58   1.0000      -0.421457       -11.4684
  59   1.0000      -0.418550       -11.3893
  60   1.0000      -0.416546       -11.3348
  61   1.0000      -0.407748       -11.0954
  62   1.0000      -0.400357       -10.8943
  63   1.0000      -0.395547       -10.7634
  64   1.0000      -0.390623       -10.6294
  65   1.0000      -0.346475        -9.4281
  66   1.0000      -0.312219        -8.4959
  67   0.0000       0.004178         0.1137
  68   0.0000       0.028799         0.7837
  69   0.0000       0.033636         0.9153
  70   0.0000       0.034444         0.9373
  71   0.0000       0.050243         1.3672

                 SPIN DOWN ORBITALS
  NO   OCC          E(Eh)            E(eV)
   0   1.0000     -19.335049      -526.1334
   1   1.0000     -19.334541      -526.1196
   2   1.0000     -19.328474      -525.9545
   3   1.0000     -19.327445      -525.9265
   4   1.0000     -14.576773      -396.6542
   5   1.0000     -14.575800      -396.6277
   6   1.0000     -14.571545      -396.5119
   7   1.0000     -14.571499      -396.5107
   8   1.0000     -10.527314      -286.4628
   9   1.0000     -10.514441      -286.1125
  10   1.0000     -10.487146      -285.3698
  11   1.0000     -10.483056      -285.2584
  12   1.0000     -10.449870      -284.3554
  13   1.0000     -10.445855      -284.2462
  14   1.0000     -10.407108      -283.1918
  15   1.0000     -10.402640      -283.0702
  16   1.0000     -10.380030      -282.4550
  17   1.0000     -10.374605      -282.3073
  18   1.0000      -1.226406       -33.3722
  19   1.0000      -1.219861       -33.1941
  20   1.0000      -1.198916       -32.6242
  21   1.0000      -1.174438       -31.9581
  22   1.0000      -1.133639       -30.8479
  23   1.0000      -1.113570       -30.3018
  24   1.0000      -1.082604       -29.4591
  25   1.0000      -1.061330       -28.8803
  26   1.0000      -0.965068       -26.2608
  27   1.0000      -0.931745       -25.3541
  28   1.0000      -0.874760       -23.8034
  29   1.0000      -0.843309       -22.9476
  30   1.0000      -0.819734       -22.3061
  31   1.0000      -0.807209       -21.9653
  32   1.0000      -0.801349       -21.8058
  33   1.0000      -0.783294       -21.3145
  34   1.0000      -0.701745       -19.0955
  35   1.0000      -0.693341       -18.8668
  36   1.0000      -0.683847       -18.6084
  37   1.0000      -0.675580       -18.3835
  38   1.0000      -0.654481       -17.8093
  39   1.0000      -0.647483       -17.6189
  40   1.0000      -0.621983       -16.9250
  41   1.0000      -0.598789       -16.2939
  42   1.0000      -0.592947       -16.1349
  43   1.0000      -0.581922       -15.8349
  44   1.0000      -0.571338       -15.5469
  45   1.0000      -0.563525       -15.3343
  46   1.0000      -0.558843       -15.2069
  47   1.0000      -0.558557       -15.1991
  48   1.0000      -0.553392       -15.0586
  49   1.0000      -0.548442       -14.9239
  50   1.0000      -0.532769       -14.4974
  51   1.0000      -0.524757       -14.2794
  52   1.0000      -0.513558       -13.9746
  53   1.0000      -0.512219       -13.9382
  54   1.0000      -0.503921       -13.7124
  55   1.0000      -0.500796       -13.6274
  56   1.0000      -0.485043       -13.1987
  57   1.0000      -0.427939       -11.6448
  58   1.0000      -0.417451       -11.3594
  59   1.0000      -0.412796       -11.2327
  60   1.0000      -0.403166       -10.9707
  61   1.0000      -0.394470       -10.7341
  62   1.0000      -0.391746       -10.6600
  63   1.0000      -0.387295       -10.5388
  64   1.0000      -0.376884       -10.2555
  65   0.0000      -0.068783        -1.8717
  66   0.0000      -0.046808        -1.2737
  67   0.0000       0.003846         0.1047
  68   0.0000       0.028627         0.7790
  69   0.0000       0.033644         0.9155

----------------------------------------------------------------------------------------------------
          SPIN FLIP ABSORPTION SPECTRUM VIA TRANSITION ELECTRIC DIPOLE MOMENTS
----------------------------------------------------------------------------------------------------
     Transition      Energy     Energy  Wavelength fosc(D2)      D2        DX        DY        DZ
                      (eV)      (cm-1)    (nm)                 (au**2)    (au)      (au)      (au)
----------------------------------------------------------------------------------------------------
  1-3A  ->  2-3A    0.179853    1450.6  6893.6   0.000118126   0.02681  -0.14198   0.06336  -0.05134
  1-3A  ->  3-3A    2.227228   17963.8   556.7   0.026272106   0.48147   0.62964  -0.18675   0.22395

Dispersion correction             ... done (  0.1 sec)

MULLIKEN ATOMIC CHARGES AND SPIN DENSITIES
------------------------------------------
   0 O :   -0.707058   -0.028152
   1 O :   -0.638276    0.025823
   2 O :   -0.641741   -0.000458
   3 O :   -0.646399   -0.002023
   4 N :   -0.216110   -0.012427
   5 N :   -0.335492   -0.002904
   6 N :    0.011776   -0.003886
   7 N :    0.077560    0.001670
   8 C :    0.369000    0.343335
   9 C :   -0.057640    0.376201
  10 C :    0.129263   -0.238701
  11 C :    0.631301   -0.206918
  12 C :   -1.285176   -0.004370
  13 C :   -1.334366    0.007949
  14 C :    0.207953   -0.199455
  15 C :    0.451980   -0.085131
  16 C :    0.338862    0.011236
  17 C :    0.299322    0.004551
  18 H :    0.594839   -0.013629
  19 H :    0.440086   -0.008869
  20 H :    0.325658   -0.003878
  21 H :    0.274391    0.006023
  22 H :    0.339006    0.008510
  23 H :    0.287949    0.000357
  24 H :    0.319484    0.015121
  25 H :    0.296400    0.005066
  26 H :    0.173234   -0.000012
  27 H :    0.116121    0.001002
  28 H :    0.143245    0.002579
  29 H :    0.034827    0.001387
Sum of atomic charges       :   -0.0000000

LOEWDIN ATOMIC CHARGES AND SPIN DENSITIES
-----------------------------------------
   0 O :    0.035839   -0.025412
   1 O :    0.097110    0.023961
   2 O :    0.095288   -0.000536
   3 O :    0.058743   -0.002035
   4 N :    0.270661   -0.001450
   5 N :    0.239830   -0.004000
   6 N :    0.323644   -0.003893
   7 N :    0.344102    0.002438
   8 C :   -0.068132   -0.069453
   9 C :   -0.002579    0.101094
  10 C :   -0.103276   -0.008382
  11 C :   -0.102027   -0.006131
  12 C :    0.188138   -0.009993
  13 C :    0.213498    0.010442
  14 C :   -0.387686   -0.015244
  15 C :   -0.430589    0.011718
  16 C :   -0.478627   -0.000441
  17 C :   -0.428274   -0.001479
  18 H :    0.087520   -0.002257
  19 H :    0.065909   -0.000280
  20 H :   -0.020245   -0.000054
  21 H :   -0.000530   -0.003120
  22 H :    0.014604   -0.001456
  23 H :   -0.005676    0.000129
  24 H :    0.031508    0.005123
  25 H :   -0.025157    0.001463
  26 H :   -0.017868   -0.000151
  27 H :   -0.015096   -0.000463
  28 H :    0.029275   -0.000285
  29 H :   -0.009907    0.000150

  Mayer bond orders larger than 0.100000
B(  0-O , 14-C ) :   1.3084 B(  1-O , 15-C ) :   1.3474 B(  2-O , 16-C ) :   1.5727
B(  3-O , 17-C ) :   1.5914 B(  4-N ,  8-C ) :   0.2072 B(  4-N , 10-C ) :   0.3078
B(  4-N , 16-C ) :   1.0179 B(  4-N , 26-H ) :   0.9519 B(  5-N ,  9-C ) :   0.1904
B(  5-N , 10-C ) :   0.1187 B(  5-N , 17-C ) :   1.1203 B(  5-N , 27-H ) :   1.0654
B(  6-N , 10-C ) :   0.1149 B(  6-N , 14-C ) :   1.0827 B(  6-N , 16-C ) :   0.9518
B(  6-N , 28-H ) :   1.0007 B(  7-N , 11-C ) :   0.1376 B(  7-N , 15-C ) :   0.8895
B(  7-N , 17-C ) :   0.9240 B(  7-N , 29-H ) :   1.1163 B(  8-C ,  9-C ) :   0.1989
B(  8-C , 10-C ) :   0.7001 B(  8-C , 11-C ) :   0.2516 B(  8-C , 12-C ) :   0.4221
B(  8-C , 14-C ) :   0.8712 B(  8-C , 16-C ) :   0.1077 B(  8-C , 18-H ) :  -0.1677
B(  9-C , 10-C ) :   0.2050 B(  9-C , 11-C ) :   0.1207 B(  9-C , 13-C ) :   0.6907
B(  9-C , 15-C ) :   0.8804 B(  9-C , 19-H ) :  -0.1631 B(  9-C , 23-H ) :  -0.1042
B( 10-C , 11-C ) :   0.2640 B( 10-C , 16-C ) :  -0.1817 B( 10-C , 18-H ) :   0.7640
B( 11-C , 13-C ) :  -0.1723 B( 11-C , 17-C ) :  -0.2137 B( 11-C , 19-H ) :   0.9666
B( 12-C , 20-H ) :   0.9923 B( 12-C , 21-H ) :   0.8725 B( 12-C , 22-H ) :   0.9535
B( 13-C , 15-C ) :  -0.1383 B( 13-C , 23-H ) :   1.0532 B( 13-C , 24-H ) :   0.8872
B( 13-C , 25-H ) :   0.9575 B( 14-C , 16-C ) :  -0.1063

Dispersion correction           -0.058660423
FINAL SINGLE POINT ENERGY      -908.769078325164

DIPOLE MOMENT
-------------

Method             : TDA/CIS
Type of density    : Electron Density
Level              : Relaxed density
State              :   1
Multiplicity       :   3
Irrep              :   0
Energy             :     0.0000000000000000 Eh
Relativity type    :
Basis              : AO
                                X                 Y                 Z
Electronic contribution:     -7.450729089      -9.394179659      -3.969609121
Nuclear contribution   :      7.929545130      11.046595213       5.882487921
                        -----------------------------------------
Total Dipole Moment    :      0.478816042       1.652415553       1.912878800
                        -----------------------------------------
Magnitude (a.u.)       :      2.572712045
Magnitude (Debye)      :      6.539314330

Rotational constants in cm-1:             0.020300             0.013292             0.011660
Rotational constants in MHz :           608.580839           398.478723           349.572270

                             ****ORCA TERMINATED NORMALLY****
TOTAL RUN TIME: 0 days 0 hours 5 minutes 13 seconds 540 msec
