                         Program Version 6.0.0  -   RELEASE  -
|  1> ! Engrad wB97M-D3BJ def2-TZVPPD
|  2> %pal nprocs 8 end%pal nprocs 16 end
|  3> %tddft nroots 2 Iroot 2
|  4>  sf true
|  5> end
|  6> *xyz 0 3
|  7> O   1.212750126029 1.10382136328021 -0.12595507991396
|  8> C   0.92124084499945 0.00639586151927 0.27309707299743
|  9> C   -0.32279623150825 -0.68650096455463 -0.20614487095027
| 10> H   1.55645695470277 -0.52616327415594 1.00313438796346
| 11> H   -0.06260411927685 -1.63846738717818 -0.67127938365226
| 12> H   -0.84431856691523 -0.05207234785222 -0.91484931225555
| 13> H   -0.96918681794848 -0.91698787256855 0.64199718581116
| 14> *
| 15>
| 16>                          ****END OF INPUT****

CARTESIAN COORDINATES (ANGSTROEM)
---------------------------------
  O      1.212750    1.103821   -0.125955
  C      0.921241    0.006396    0.273097
  C     -0.322796   -0.686501   -0.206145
  H      1.556457   -0.526163    1.003134
  H     -0.062604   -1.638467   -0.671279
  H     -0.844319   -0.052072   -0.914849
  H     -0.969187   -0.916988    0.641997

 Total Charge           Charge          ....    0
 Multiplicity           Mult            ....    3
 Number of Electrons    NEL             ....   24
 Basis Dimension        Dim             ....  182

ORBITAL ENERGIES
----------------
                 SPIN UP ORBITALS
  NO   OCC          E(Eh)            E(eV)
   0   1.0000     -19.410430      -528.1847
   1   1.0000     -10.379582      -282.4428
   2   1.0000     -10.366419      -282.0846
   3   1.0000      -1.246760       -33.9261
   4   1.0000      -0.880206       -23.9516
   5   1.0000      -0.719136       -19.5687
   6   1.0000      -0.636681       -17.3250
   7   1.0000      -0.585560       -15.9339
   8   1.0000      -0.582254       -15.8439
   9   1.0000      -0.514462       -13.9992
  10   1.0000      -0.512484       -13.9454
  11   1.0000      -0.435429       -11.8486
  12   1.0000      -0.221862        -6.0372
  13   0.0000       0.041704         1.1348
  14   0.0000       0.060378         1.6430
  15   0.0000       0.078909         2.1472
  16   0.0000       0.088140         2.3984
  17   0.0000       0.108200         2.9443

                 SPIN DOWN ORBITALS
  NO   OCC          E(Eh)            E(eV)
   0   1.0000     -19.382608      -527.4276
   1   1.0000     -10.369275      -282.1623
   2   1.0000     -10.364172      -282.0235
   3   1.0000      -1.188568       -32.3426
   4   1.0000      -0.860816       -23.4240
   5   1.0000      -0.674997       -18.3676
   6   1.0000      -0.585964       -15.9449
   7   1.0000      -0.540516       -14.7082
   8   1.0000      -0.534616       -14.5477
   9   1.0000      -0.500310       -13.6141
  10   1.0000      -0.470811       -12.8114
  11   0.0000      -0.082365        -2.2413
  12   0.0000       0.041846         1.1387
  13   0.0000       0.060039         1.6338
  14   0.0000       0.078965         2.1488
  15   0.0000       0.083457         2.2710

----------------------------------------------------------------------------------------------------
          SPIN FLIP ABSORPTION SPECTRUM VIA TRANSITION ELECTRIC DIPOLE MOMENTS
----------------------------------------------------------------------------------------------------
     Transition      Energy     Energy  Wavelength fosc(D2)      D2        DX        DY        DZ
                      (eV)      (cm-1)    (nm)                 (au**2)    (au)      (au)      (au)
----------------------------------------------------------------------------------------------------
  1-3A  ->  2-3A    4.525019   36496.7   274.0   0.000038962   0.00035   0.00963  -0.00772  -0.01411

Dispersion correction             ... done (  0.0 sec)

MULLIKEN ATOMIC CHARGES AND SPIN DENSITIES
------------------------------------------
   0 O :   -0.250509    0.604191
   1 C :    0.208293   -0.630409
   2 C :   -0.702099    0.120697
   3 H :    0.109189   -0.004746
   4 H :    0.195400   -0.043780
   5 H :    0.243775   -0.003088
   6 H :    0.195950   -0.042864
Sum of atomic charges       :   -0.0000000

LOEWDIN ATOMIC CHARGES AND SPIN DENSITIES
-----------------------------------------
   0 O :    0.158934    0.414233
   1 C :   -0.252549   -0.361520
   2 C :    0.138600   -0.006414
   3 H :    0.002183   -0.015553
   4 H :   -0.017796   -0.017159
   5 H :   -0.011542    0.003675
   6 H :   -0.017829   -0.017261

  Mayer bond orders larger than 0.100000
B(  0-O ,  1-C ) :   1.2666 B(  1-C ,  2-C ) :   0.6552 B(  1-C ,  3-H ) :   1.0169
B(  2-C ,  4-H ) :   1.0047 B(  2-C ,  5-H ) :   0.9413 B(  2-C ,  6-H ) :   1.0033

Dispersion correction           -0.005543898
FINAL SINGLE POINT ENERGY      -153.757524251569

DIPOLE MOMENT
-------------

Method             : TDA/CIS
Type of density    : Electron Density
Level              : Relaxed density
State              :   2
Multiplicity       :   3
Irrep              :   0
Energy             :     0.0000000000000000 Eh
Relativity type    :
Basis              : AO
                                X                 Y                 Z
Electronic contribution:      2.220249099       2.970138855      -0.093512384
Nuclear contribution   :     -2.528485824      -3.465200393       0.151972254
                        -----------------------------------------
Total Dipole Moment    :     -0.308236725      -0.495061538       0.058459870
                        -----------------------------------------
Magnitude (a.u.)       :      0.586100129
Magnitude (Debye)      :      1.489748135

Rotational constants in cm-1:             1.820905             0.350116             0.310369
Rotational constants in MHz :         54589.366110         10496.217600          9304.618946

                             ****ORCA TERMINATED NORMALLY****
TOTAL RUN TIME: 0 days 0 hours 0 minutes 16 seconds 243 msec
