                         Program Version 6.0.0  -   RELEASE  -
|  1> ! opt def2-TZVPPD wB97M-D3BJ
|  2> %pal nprocs 8 end%pal nprocs 32 end
|  3> %geom Constraints
|  4> {B 9 8 3.2 C}
|  5> {A 8 9 11 61.42857142857143 C}
|  6> end
|  7> MaxIter 300
|  8> end
|  9> *xyz 0 1
| 10> O   2.98579685529314 0.88758230159078 -0.86184571092411
| 11> O   -0.03983205397054 0.68929041702508 -2.10362336723772
| 12> O   0.93431434349854 -3.13274393337945 -0.68767288184107
| 13> O   -3.75829998830163 -0.84727300865116 -0.0472717177755
| 14> N   0.21184538946282 -1.54604804365365 0.7617588924445
| 15> N   -2.13631993928911 0.03188773433438 1.27350571071531
| 16> N   2.02598672506387 -1.14318467211666 -0.64531219127023
| 17> N   -1.91814233924584 0.03137116037665 -1.04498946748291
| 18> C   1.18097737274226 0.71693507080484 0.70173889017321
| 19> C   -0.20686880480777 1.27024627933494 0.21345042231937
| 20> C   0.41441080275909 -0.34173258966541 1.52336266615173
| 21> C   -0.82922175114212 0.58960593673968 1.44434972027296
| 22> C   1.92822011286806 1.69488653817281 1.5963734975385
| 23> C   -0.37809776891576 2.77134929626422 0.04819649358288
| 24> C   2.1403947470937 0.1972384729179 -0.35038567829864
| 25> C   -0.67361678962426 0.6214190571346 -1.0793014500539
| 26> C   1.04142578622994 -2.02697492875068 -0.21027082435993
| 27> C   -2.68467002550422 -0.30396816036989 0.07167054343891
| 28> H   0.80817443950001 -0.54572267081061 2.51895215321335
| 29> H   -0.83785272399001 1.27240685039143 2.28901317073582
| 30> H   2.31167340578204 2.52284411740894 1.00913016264629
| 31> H   1.28982602448342 2.08257620823614 2.38710022492991
| 32> H   2.77390820759972 1.19140411795486 2.06045858523949
| 33> H   -1.41857211141493 3.00964947214868 -0.16882755561625
| 34> H   -0.09065531563179 3.29799318042223 0.95389844358819
| 35> H   0.23426221611057 3.12492645074476 -0.77764887675592
| 36> H   -0.46772570547622 -2.21560145172536 1.0787081584806
| 37> H   -2.71769301149571 -0.17090724573546 2.06627440900372
| 38> H   2.60065167263658 -1.49057255715425 -1.3966820077142
| 39> H   -2.27169977231386 -0.32388339999036 -1.91951041514436
| 40> *
| 41>
| 42>                          ****END OF INPUT****
 Total Charge           Charge          ....    0
 Multiplicity           Mult            ....    1
 Number of Electrons    NEL             ....  132
Dispersion correction           -0.051613567
FINAL SINGLE POINT ENERGY      -908.656283688512
Dispersion correction             ... done (  0.0 sec)
Dispersion correction           -0.052425340
FINAL SINGLE POINT ENERGY      -908.689158469582
Dispersion correction             ... done (  0.0 sec)
Dispersion correction           -0.053312695
FINAL SINGLE POINT ENERGY      -908.712009413094
Dispersion correction             ... done (  0.0 sec)
FINAL SINGLE POINT ENERGY      -908.733442249605
FINAL SINGLE POINT ENERGY      -908.745721963828
FINAL SINGLE POINT ENERGY      -908.749755209507
FINAL SINGLE POINT ENERGY      -908.752613037539
FINAL SINGLE POINT ENERGY      -908.754508327928
FINAL SINGLE POINT ENERGY      -908.755880983839
FINAL SINGLE POINT ENERGY      -908.756636830864
FINAL SINGLE POINT ENERGY      -908.761278397506
FINAL SINGLE POINT ENERGY      -908.761358410430
FINAL SINGLE POINT ENERGY      -908.761397433167
FINAL SINGLE POINT ENERGY      -908.761419413326
FINAL SINGLE POINT ENERGY      -908.761434169918
FINAL SINGLE POINT ENERGY      -908.761444762646
FINAL SINGLE POINT ENERGY      -908.761453326694
Dispersion correction             ... done (  0.0 sec)
Dispersion correction           -0.057408029
FINAL SINGLE POINT ENERGY      -908.761458269455
Dispersion correction             ... done (  0.0 sec)
Dispersion correction           -0.057407913
FINAL SINGLE POINT ENERGY      -908.761461208535
Dispersion correction             ... done (  0.0 sec)
                    ***********************HURRAY********************

CARTESIAN COORDINATES (ANGSTROEM)
---------------------------------
  O      3.384966    0.407000   -0.706026
  O     -0.817108    1.369897   -2.457050
  O      0.419551   -2.948939   -0.587654
  O     -3.051840   -1.729231   -0.113117
  N      0.323572   -1.409352    1.079313
  N     -2.104543   -0.016520    1.051822
  N      1.629752   -1.034875   -0.805149
  N     -1.566527   -0.362768   -1.179987
  C      1.841534    0.455373    1.069297
  C     -0.880200    1.658166   -0.107757
  C      0.410305   -0.035348    1.516537
  C     -0.942762    0.822316    1.173658
  C      2.623382    1.343672    1.940248
  C     -0.911046    3.127500   -0.083937
  C      2.363391   -0.018330   -0.193693
  C     -1.062007    0.926121   -1.352528
  C      0.754611   -1.876624   -0.139902
  C     -2.299511   -0.787514   -0.072244
  H      0.429969   -0.067304    2.609304
  H     -1.095208    1.498846    2.011464
  H      3.591631    1.555468    1.498474
  H      2.099501    2.288242    2.120470
  H      2.760992    0.882515    2.924735
  H     -1.895798    3.475776    0.254675
  H     -0.180742    3.531758    0.618780
  H     -0.733524    3.525735   -1.078410
  H     -0.321337   -2.035098    1.530527
  H     -2.614517   -0.325333    1.860965
  H      2.012174   -1.402090   -1.661094
  H     -1.716059   -0.904058   -2.017122

 Multiplicity           Mult            ....    1
 Number of Electrons    NEL             ....  132
 Basis Dimension        Dim             ....  882

ORBITAL ENERGIES
----------------

  NO   OCC          E(Eh)            E(eV)
   0   2.0000     -19.333432      -526.0894
   1   2.0000     -19.327185      -525.9194
   2   2.0000     -19.321116      -525.7543
   3   2.0000     -19.314446      -525.5728
   4   2.0000     -14.567637      -396.4056
   5   2.0000     -14.563620      -396.2963
   6   2.0000     -14.556143      -396.0928
   7   2.0000     -14.551466      -395.9655
   8   2.0000     -10.509173      -285.9691
   9   2.0000     -10.498127      -285.6685
  10   2.0000     -10.483388      -285.2675
  11   2.0000     -10.473645      -285.0024
  12   2.0000     -10.445670      -284.2411
  13   2.0000     -10.445332      -284.2319
  14   2.0000     -10.434613      -283.9403
  15   2.0000     -10.426019      -283.7064
  16   2.0000     -10.380055      -282.4557
  17   2.0000     -10.374594      -282.3070
  18   2.0000      -1.224172       -33.3114
  19   2.0000      -1.211317       -32.9616
  20   2.0000      -1.197079       -32.5742
  21   2.0000      -1.184872       -32.2420
  22   2.0000      -1.118288       -30.4302
  23   2.0000      -1.094116       -29.7724
  24   2.0000      -1.064816       -28.9751
  25   2.0000      -1.050984       -28.5987
  26   2.0000      -0.966705       -26.3054
  27   2.0000      -0.946659       -25.7599
  28   2.0000      -0.883750       -24.0481
  29   2.0000      -0.837935       -22.8014
  30   2.0000      -0.824166       -22.4267
  31   2.0000      -0.800999       -21.7963
  32   2.0000      -0.785427       -21.3726
  33   2.0000      -0.772084       -21.0095
  34   2.0000      -0.697913       -18.9912
  35   2.0000      -0.687466       -18.7069
  36   2.0000      -0.679054       -18.4780
  37   2.0000      -0.658773       -17.9261
  38   2.0000      -0.648808       -17.6550
  39   2.0000      -0.641281       -17.4501
  40   2.0000      -0.617168       -16.7940
  41   2.0000      -0.599666       -16.3177
  42   2.0000      -0.584692       -15.9103
  43   2.0000      -0.580276       -15.7901
  44   2.0000      -0.571326       -15.5466
  45   2.0000      -0.566203       -15.4072
  46   2.0000      -0.565388       -15.3850
  47   2.0000      -0.555779       -15.1235
  48   2.0000      -0.552717       -15.0402
  49   2.0000      -0.547990       -14.9116
  50   2.0000      -0.546322       -14.8662
  51   2.0000      -0.541907       -14.7460
  52   2.0000      -0.529790       -14.4163
  53   2.0000      -0.517101       -14.0710
  54   2.0000      -0.509349       -13.8601
  55   2.0000      -0.504856       -13.7378
  56   2.0000      -0.484816       -13.1925
  57   2.0000      -0.422742       -11.5034
  58   2.0000      -0.413969       -11.2647
  59   2.0000      -0.407460       -11.0875
  60   2.0000      -0.398446       -10.8423
  61   2.0000      -0.391559       -10.6549
  62   2.0000      -0.387820       -10.5531
  63   2.0000      -0.381871       -10.3912
  64   2.0000      -0.374805       -10.1990
  65   2.0000      -0.276652        -7.5281
  66   0.0000      -0.119384        -3.2486
  67   0.0000       0.005028         0.1368
  68   0.0000       0.027088         0.7371
  69   0.0000       0.031424         0.8551
  70   0.0000       0.039069         1.0631

MULLIKEN ATOMIC CHARGES
-----------------------
   0 O :   -0.674949
   1 O :   -0.666675
   2 O :   -0.652767
   3 O :   -0.626527
   4 N :   -0.303566
   5 N :   -0.326195
   6 N :    0.084511
   7 N :    0.055219
   8 C :    0.181640
   9 C :    0.190079
  10 C :    0.069486
  11 C :    0.790242
  12 C :   -1.338517
  13 C :   -1.467830
  14 C :    0.414629
  15 C :    0.329067
  16 C :    0.379388
  17 C :    0.347876
  18 H :    0.645602
  19 H :    0.477988
  20 H :    0.313324
  21 H :    0.263415
  22 H :    0.315041
  23 H :    0.346976
  24 H :    0.276712
  25 H :    0.351683
  26 H :    0.073105
  27 H :    0.083699
  28 H :    0.039424
  29 H :    0.027921
Sum of atomic charges:    0.0000000

LOEWDIN ATOMIC CHARGES
----------------------
   0 O :    0.086005
   1 O :    0.102942
   2 O :    0.093016
   3 O :    0.106872
   4 N :    0.264595
   5 N :    0.271644
   6 N :    0.320178
   7 N :    0.328637
   8 C :    0.014979
   9 C :    0.011324
  10 C :   -0.076910
  11 C :   -0.097591
  12 C :    0.175661
  13 C :    0.184367
  14 C :   -0.418649
  15 C :   -0.407583
  16 C :   -0.499491
  17 C :   -0.487522
  18 H :    0.030835
  19 H :    0.041514
  20 H :   -0.004542
  21 H :    0.004151
  22 H :    0.009810
  23 H :    0.018708
  24 H :    0.000137
  25 H :    0.000847
  26 H :   -0.029404
  27 H :   -0.027494
  28 H :   -0.012140
  29 H :   -0.004893

  Mayer bond orders larger than 0.100000
B(  0-O , 14-C ) :   1.3435 B(  1-O , 15-C ) :   1.3840 B(  2-O , 16-C ) :   1.5256
B(  3-O , 17-C ) :   1.5492 B(  4-N ,  8-C ) :   0.3077 B(  4-N , 10-C ) :   0.2468
B(  4-N , 16-C ) :   1.0196 B(  4-N , 26-H ) :   1.0934 B(  5-N ,  9-C ) :   0.3728
B(  5-N , 10-C ) :   0.1166 B(  5-N , 17-C ) :   1.1279 B(  5-N , 27-H ) :   1.0378
B(  6-N ,  8-C ) :  -0.1210 B(  6-N , 14-C ) :   1.0827 B(  6-N , 16-C ) :   0.9742
B(  6-N , 28-H ) :   1.0754 B(  7-N , 11-C ) :   0.1205 B(  7-N , 15-C ) :   0.9808
B(  7-N , 17-C ) :   0.9743 B(  7-N , 29-H ) :   1.0812 B(  8-C ,  9-C ) :   0.4588
B(  8-C , 12-C ) :   0.5215 B(  8-C , 14-C ) :   0.7731 B(  8-C , 16-C ) :   0.1311
B(  8-C , 18-H ) :  -0.1676 B(  8-C , 20-H ) :  -0.1198 B(  9-C , 10-C ) :   0.3625
B(  9-C , 11-C ) :  -0.2381 B(  9-C , 13-C ) :   0.4754 B(  9-C , 14-C ) :   0.1468
B(  9-C , 15-C ) :   0.8631 B(  9-C , 25-H ) :  -0.1155 B( 10-C , 11-C ) :   0.5594
B( 10-C , 16-C ) :  -0.1556 B( 10-C , 18-H ) :   0.6667 B( 11-C , 13-C ) :  -0.1310
B( 11-C , 15-C ) :  -0.2223 B( 11-C , 17-C ) :  -0.1972 B( 11-C , 19-H ) :   0.9133
B( 12-C , 20-H ) :   1.0069 B( 12-C , 21-H ) :   0.9389 B( 12-C , 22-H ) :   0.9031
B( 13-C , 23-H ) :   0.8767 B( 13-C , 24-H ) :   0.9803 B( 13-C , 25-H ) :   0.9401

Dispersion correction           -0.057407629
FINAL SINGLE POINT ENERGY      -908.761461925235

DIPOLE MOMENT
-------------

Method             : SCF
Type of density    : Electron Density
Multiplicity       :   1
Irrep              :   0
Energy             :  -908.7040542961167375 Eh
Relativity type    :
Basis              : AO
                                X                 Y                 Z
Electronic contribution:     -2.676728472      -9.814152314      -7.427914156
Nuclear contribution   :      2.179589846      11.510325352      10.135395798
                        -----------------------------------------
Total Dipole Moment    :     -0.497138626       1.696173038       2.707481642
                        -----------------------------------------
Magnitude (a.u.)       :      3.233358413
Magnitude (Debye)      :      8.218543948

Rotational constants in cm-1:             0.019108             0.014369             0.011975
Rotational constants in MHz :           572.838020           430.757714           359.003460

                             ****ORCA TERMINATED NORMALLY****
TOTAL RUN TIME: 0 days 1 hours 32 minutes 49 seconds 391 msec
