                         Program Version 6.0.0  -   RELEASE  -
|  1> ! Engrad def2-TZVPPD wB97M-D3BJ
|  2> %pal nprocs 8 end%pal nprocs 64 end
|  3> %tddft
|  4>  Iroot 1 Nroots 3
|  5> sf true
|  6> end
|  7> *xyz 0 3
|  8> O   2.62554483 -0.53997615 -2.28627567
|  9> O   -2.16204429 1.03419486 -1.67641679
| 10> O   -0.97880532 -2.80546504 -0.83702082
| 11> O   -2.52472803 0.39675561 2.90221594
| 12> N   0.14290011 -1.52074229 0.66204589
| 13> N   -0.66123724 1.21871292 2.01097682
| 14> N   0.77124638 -1.53150044 -1.55926145
| 15> N   -2.334746 0.52363256 0.58093204
| 16> C   2.0954924 -0.39195788 0.01134963
| 17> C   -0.24570136 1.31478591 -0.3785701
| 18> C   0.99529846 -0.45330822 1.00992235
| 19> C   0.30622308 0.98355482 0.98625279
| 20> C   3.34822178 0.36139689 0.18996143
| 21> C   0.57458028 1.97235405 -1.37816307
| 22> C   1.85858989 -0.83013367 -1.35432165
| 23> C   -1.64226817 0.9515258 -0.5302476
| 24> C   -0.10182077 -1.99553979 -0.55927688
| 25> C   -1.91343895 0.66952887 1.92875706
| 26> H   1.40312481 -0.67088698 2.04735427
| 27> H   1.17690772 1.59010083 1.28093693
| 28> H   4.05444112 -0.04430497 -0.57846259
| 29> H   3.3798651 1.38258063 -0.01945948
| 30> H   3.72774485 0.31864535 1.25525422
| 31> H   -0.01474868 2.12177582 -2.27804418
| 32> H   0.97040624 2.93276219 -0.99926146
| 33> H   1.41245043 1.30733412 -1.72138799
| 34> H   -0.53565158 -1.90263322 1.28854383
| 35> H   -0.29444892 1.14764201 2.95097361
| 36> H   0.51089875 -1.79069089 -2.51664281
| 37> H   -3.25155729 0.15587103 0.54927951
| 38> *
| 39>
| 40>                          ****END OF INPUT****

CARTESIAN COORDINATES (ANGSTROEM)
---------------------------------
  O      2.625545   -0.539976   -2.286276
  O     -2.162044    1.034195   -1.676417
  O     -0.978805   -2.805465   -0.837021
  O     -2.524728    0.396756    2.902216
  N      0.142900   -1.520742    0.662046
  N     -0.661237    1.218713    2.010977
  N      0.771246   -1.531500   -1.559261
  N     -2.334746    0.523633    0.580932
  C      2.095492   -0.391958    0.011350
  C     -0.245701    1.314786   -0.378570
  C      0.995298   -0.453308    1.009922
  C      0.306223    0.983555    0.986253
  C      3.348222    0.361397    0.189961
  C      0.574580    1.972354   -1.378163
  C      1.858590   -0.830134   -1.354322
  C     -1.642268    0.951526   -0.530248
  C     -0.101821   -1.995540   -0.559277
  C     -1.913439    0.669529    1.928757
  H      1.403125   -0.670887    2.047354
  H      1.176908    1.590101    1.280937
  H      4.054441   -0.044305   -0.578463
  H      3.379865    1.382581   -0.019459
  H      3.727745    0.318645    1.255254
  H     -0.014749    2.121776   -2.278044
  H      0.970406    2.932762   -0.999261
  H      1.412450    1.307334   -1.721388
  H     -0.535652   -1.902633    1.288544
  H     -0.294449    1.147642    2.950974
  H      0.510899   -1.790691   -2.516643
  H     -3.251557    0.155871    0.549280

 Total Charge           Charge          ....    0
 Multiplicity           Mult            ....    3
 Number of Electrons    NEL             ....  132
 Basis Dimension        Dim             ....  882

ORBITAL ENERGIES
----------------
                 SPIN UP ORBITALS
  NO   OCC          E(Eh)            E(eV)
   0   1.0000     -19.337120      -526.1898
   1   1.0000     -19.333154      -526.0819
   2   1.0000     -19.326456      -525.8996
   3   1.0000     -19.322437      -525.7902
   4   1.0000     -14.570540      -396.4845
   5   1.0000     -14.570391      -396.4805
   6   1.0000     -14.567770      -396.4092
   7   1.0000     -14.560849      -396.2208
   8   1.0000     -10.511313      -286.0274
   9   1.0000     -10.510126      -285.9951
  10   1.0000     -10.485581      -285.3272
  11   1.0000     -10.477421      -285.1051
  12   1.0000     -10.452825      -284.4358
  13   1.0000     -10.441252      -284.1209
  14   1.0000     -10.418397      -283.4990
  15   1.0000     -10.418351      -283.4978
  16   1.0000     -10.372946      -282.2622
  17   1.0000     -10.367437      -282.1123
  18   1.0000      -1.239722       -33.7345
  19   1.0000      -1.225608       -33.3505
  20   1.0000      -1.190414       -32.3928
  21   1.0000      -1.182985       -32.1907
  22   1.0000      -1.129683       -30.7402
  23   1.0000      -1.111827       -30.2544
  24   1.0000      -1.079442       -29.3731
  25   1.0000      -1.067867       -29.0581
  26   1.0000      -0.988063       -26.8866
  27   1.0000      -0.955633       -26.0041
  28   1.0000      -0.893397       -24.3106
  29   1.0000      -0.847925       -23.0732
  30   1.0000      -0.830120       -22.5887
  31   1.0000      -0.812199       -22.1011
  32   1.0000      -0.798478       -21.7277
  33   1.0000      -0.784711       -21.3531
  34   1.0000      -0.708407       -19.2767
  35   1.0000      -0.704139       -19.1606
  36   1.0000      -0.699415       -19.0321
  37   1.0000      -0.682943       -18.5838
  38   1.0000      -0.661476       -17.9997
  39   1.0000      -0.646761       -17.5993
  40   1.0000      -0.624901       -17.0044
  41   1.0000      -0.604950       -16.4615
  42   1.0000      -0.601500       -16.3677
  43   1.0000      -0.590107       -16.0576
  44   1.0000      -0.578596       -15.7444
  45   1.0000      -0.578087       -15.7306
  46   1.0000      -0.568568       -15.4715
  47   1.0000      -0.565414       -15.3857
  48   1.0000      -0.558505       -15.1977
  49   1.0000      -0.554361       -15.0849
  50   1.0000      -0.546688       -14.8761
  51   1.0000      -0.544018       -14.8035
  52   1.0000      -0.531609       -14.4658
  53   1.0000      -0.522648       -14.2220
  54   1.0000      -0.505254       -13.7487
  55   1.0000      -0.501586       -13.6489
  56   1.0000      -0.481343       -13.0980
  57   1.0000      -0.435343       -11.8463
  58   1.0000      -0.423269       -11.5177
  59   1.0000      -0.416483       -11.3331
  60   1.0000      -0.411951       -11.2097
  61   1.0000      -0.407886       -11.0991
  62   1.0000      -0.395284       -10.7562
  63   1.0000      -0.392712       -10.6862
  64   1.0000      -0.380727       -10.3601
  65   1.0000      -0.345674        -9.4063
  66   1.0000      -0.327142        -8.9020
  67   0.0000       0.008290         0.2256
  68   0.0000       0.028354         0.7715
  69   0.0000       0.034592         0.9413
  70   0.0000       0.036045         0.9808
  71   0.0000       0.054790         1.4909

                 SPIN DOWN ORBITALS
  NO   OCC          E(Eh)            E(eV)
   0   1.0000     -19.336966      -526.1856
   1   1.0000     -19.327354      -525.9240
   2   1.0000     -19.323067      -525.8074
   3   1.0000     -19.322338      -525.7876
   4   1.0000     -14.570282      -396.4775
   5   1.0000     -14.569338      -396.4518
   6   1.0000     -14.567757      -396.4088
   7   1.0000     -14.560377      -396.2080
   8   1.0000     -10.511350      -286.0284
   9   1.0000     -10.510185      -285.9967
  10   1.0000     -10.486863      -285.3620
  11   1.0000     -10.478220      -285.1269
  12   1.0000     -10.452598      -284.4296
  13   1.0000     -10.440811      -284.1089
  14   1.0000     -10.407382      -283.1993
  15   1.0000     -10.406985      -283.1885
  16   1.0000     -10.373550      -282.2786
  17   1.0000     -10.367949      -282.1262
  18   1.0000      -1.239260       -33.7220
  19   1.0000      -1.224064       -33.3085
  20   1.0000      -1.186683       -32.2913
  21   1.0000      -1.175748       -31.9937
  22   1.0000      -1.127026       -30.6679
  23   1.0000      -1.109487       -30.1907
  24   1.0000      -1.076899       -29.3039
  25   1.0000      -1.065851       -29.0033
  26   1.0000      -0.974888       -26.5281
  27   1.0000      -0.938141       -25.5281
  28   1.0000      -0.887734       -24.1565
  29   1.0000      -0.843638       -22.9566
  30   1.0000      -0.822482       -22.3809
  31   1.0000      -0.807627       -21.9767
  32   1.0000      -0.796876       -21.6841
  33   1.0000      -0.783025       -21.3072
  34   1.0000      -0.703162       -19.1340
  35   1.0000      -0.697323       -18.9751
  36   1.0000      -0.692295       -18.8383
  37   1.0000      -0.674751       -18.3609
  38   1.0000      -0.650645       -17.7049
  39   1.0000      -0.643530       -17.5113
  40   1.0000      -0.621405       -16.9093
  41   1.0000      -0.599116       -16.3028
  42   1.0000      -0.596454       -16.2304
  43   1.0000      -0.586235       -15.9523
  44   1.0000      -0.572871       -15.5886
  45   1.0000      -0.568337       -15.4652
  46   1.0000      -0.563833       -15.3427
  47   1.0000      -0.559501       -15.2248
  48   1.0000      -0.553551       -15.0629
  49   1.0000      -0.543408       -14.7869
  50   1.0000      -0.539880       -14.6909
  51   1.0000      -0.533193       -14.5089
  52   1.0000      -0.524446       -14.2709
  53   1.0000      -0.513066       -13.9612
  54   1.0000      -0.498835       -13.5740
  55   1.0000      -0.493758       -13.4358
  56   1.0000      -0.476238       -12.9591
  57   1.0000      -0.431166       -11.7326
  58   1.0000      -0.419258       -11.4086
  59   1.0000      -0.411192       -11.1891
  60   1.0000      -0.399387       -10.8679
  61   1.0000      -0.390385       -10.6229
  62   1.0000      -0.388295       -10.5660
  63   1.0000      -0.387288       -10.5386
  64   1.0000      -0.370751       -10.0887
  65   0.0000      -0.064465        -1.7542
  66   0.0000      -0.052933        -1.4404
  67   0.0000       0.007795         0.2121
  68   0.0000       0.027917         0.7597
  69   0.0000       0.034378         0.9355

----------------------------------------------------------------------------------------------------
          SPIN FLIP ABSORPTION SPECTRUM VIA TRANSITION ELECTRIC DIPOLE MOMENTS
----------------------------------------------------------------------------------------------------
     Transition      Energy     Energy  Wavelength fosc(D2)      D2        DX        DY        DZ
                      (eV)      (cm-1)    (nm)                 (au**2)    (au)      (au)      (au)
----------------------------------------------------------------------------------------------------
  1-3A  ->  2-3A    0.036908     297.7  33593.1   0.000008471   0.00937   0.08464  -0.03953  -0.02533
  1-3A  ->  3-3A    1.968471   15876.8   629.9   0.000370197   0.00768   0.04682  -0.01029   0.07333

Dispersion correction             ... done (  0.1 sec)

MULLIKEN ATOMIC CHARGES AND SPIN DENSITIES
------------------------------------------
   0 O :   -0.753385   -0.050901
   1 O :   -0.700166    0.094228
   2 O :   -0.682765   -0.002402
   3 O :   -0.591331   -0.000519
   4 N :   -0.150225   -0.013531
   5 N :   -0.336600    0.004227
   6 N :    0.026421   -0.017947
   7 N :    0.084391    0.005419
   8 C :    0.603632    0.230833
   9 C :   -0.079008    0.324797
  10 C :    0.348692   -0.192257
  11 C :    0.578357   -0.075890
  12 C :   -1.434415   -0.042852
  13 C :   -1.133346    0.023906
  14 C :    0.149475   -0.292824
  15 C :    0.214965   -0.052301
  16 C :    0.446500    0.020368
  17 C :    0.383342    0.002692
  18 H :    0.479731   -0.020954
  19 H :    0.561357    0.011944
  20 H :    0.365544   -0.007471
  21 H :    0.278322    0.003990
  22 H :    0.369536    0.007507
  23 H :    0.324798    0.001875
  24 H :    0.319187    0.009088
  25 H :    0.151590    0.021023
  26 H :    0.008787    0.001803
  27 H :    0.103913    0.000405
  28 H :    0.057415    0.005130
  29 H :    0.005287    0.000617
Sum of atomic charges       :   -0.0000000

LOEWDIN ATOMIC CHARGES AND SPIN DENSITIES
-----------------------------------------
   0 O :    0.042788   -0.042213
   1 O :    0.052703    0.084094
   2 O :    0.082252   -0.002337
   3 O :    0.127278   -0.000535
   4 N :    0.282821   -0.000757
   5 N :    0.269299   -0.000491
   6 N :    0.340641   -0.012135
   7 N :    0.348419    0.002728
   8 C :   -0.035870   -0.209510
   9 C :   -0.027462    0.213279
  10 C :   -0.109122   -0.017197
  11 C :   -0.116288    0.006196
  12 C :    0.178730   -0.035622
  13 C :    0.204083    0.031904
  14 C :   -0.482428   -0.040274
  15 C :   -0.365712    0.027266
  16 C :   -0.457527   -0.000076
  17 C :   -0.492052   -0.000737
  18 H :    0.096189   -0.003942
  19 H :    0.055455    0.001443
  20 H :    0.024782   -0.004129
  21 H :   -0.038374   -0.010053
  22 H :    0.036473   -0.003592
  23 H :    0.002956   -0.000775
  24 H :    0.029711    0.009284
  25 H :    0.000387    0.009032
  26 H :   -0.022113   -0.000026
  27 H :   -0.024221   -0.000168
  28 H :    0.030350   -0.000978
  29 H :   -0.034147    0.000322

  Mayer bond orders larger than 0.100000
B(  0-O , 14-C ) :   1.2813 B(  1-O , 15-C ) :   1.2722 B(  2-O , 16-C ) :   1.4888
B(  3-O , 17-C ) :   1.6142 B(  4-N ,  8-C ) :   0.1685 B(  4-N ,  9-C ) :   0.1617
B(  4-N , 10-C ) :   0.3232 B(  4-N , 16-C ) :   1.0549 B(  4-N , 26-H ) :   1.1206
B(  5-N ,  9-C ) :   0.2805 B(  5-N , 11-C ) :  -0.2126 B(  5-N , 17-C ) :   1.1657
B(  5-N , 27-H ) :   1.0152 B(  6-N ,  8-C ) :  -0.1567 B(  6-N , 10-C ) :   0.1243
B(  6-N , 14-C ) :   1.1439 B(  6-N , 16-C ) :   0.9427 B(  6-N , 28-H ) :   1.1026
B(  7-N , 11-C ) :   0.1223 B(  7-N , 15-C ) :   1.0873 B(  7-N , 17-C ) :   0.9322
B(  7-N , 29-H ) :   1.1321 B(  8-C ,  9-C ) :   0.1311 B(  8-C , 10-C ) :   0.5239
B(  8-C , 11-C ) :   0.2913 B(  8-C , 12-C ) :   0.4932 B(  8-C , 14-C ) :   0.7487
B(  8-C , 18-H ) :  -0.1946 B(  8-C , 22-H ) :  -0.1085 B(  9-C , 10-C ) :   0.2424
B(  9-C , 13-C ) :   0.3925 B(  9-C , 15-C ) :   1.0039 B(  9-C , 19-H ) :  -0.1884
B(  9-C , 23-H ) :  -0.1141 B( 10-C , 11-C ) :   0.4940 B( 10-C , 12-C ) :  -0.1014
B( 10-C , 18-H ) :   0.9177 B( 11-C , 13-C ) :  -0.1166 B( 11-C , 15-C ) :  -0.2681
B( 11-C , 17-C ) :  -0.1429 B( 11-C , 18-H ) :  -0.1500 B( 11-C , 19-H ) :   0.8508
B( 12-C , 20-H ) :   0.8654 B( 12-C , 21-H ) :   0.9282 B( 12-C , 22-H ) :   0.9616
B( 13-C , 23-H ) :   1.0038 B( 13-C , 24-H ) :   0.9737 B( 13-C , 25-H ) :   0.8940

Dispersion correction           -0.060415749
FINAL SINGLE POINT ENERGY      -908.778888828595

DIPOLE MOMENT
-------------

Method             : TDA/CIS
Type of density    : Electron Density
Level              : Relaxed density
State              :   1
Multiplicity       :   3
Irrep              :   0
Energy             :     0.0000000000000000 Eh
Relativity type    :
Basis              : AO
                                X                 Y                 Z
Electronic contribution:    -10.122041172      -5.685609686       0.278658921
Nuclear contribution   :     11.788601725       6.618637156       1.443226990
                        -----------------------------------------
Total Dipole Moment    :      1.666560552       0.933027470       1.721885911
                        -----------------------------------------
Magnitude (a.u.)       :      2.571547282
Magnitude (Debye)      :      6.536353739

Rotational constants in cm-1:             0.021986             0.012801             0.012172
Rotational constants in MHz :           659.116919           383.762730           364.897118

                             ****ORCA TERMINATED NORMALLY****
TOTAL RUN TIME: 0 days 0 hours 5 minutes 28 seconds 329 msec
