                         Program Version 6.0.0  -   RELEASE  -
|  1> ! opt def2-TZVPPD wB97M-D3BJ
|  2> %pal nprocs 24 end%geom Constraints
|  3> {B 9 8 3.0 C}
|  4> {A 8 9 11 43.14285714285714 C}
|  5>  end
|  6>  end
|  7> *xyz 0 1
|  8> O   2.98579685529314 0.88758230159078 -0.86184571092411
|  9> O   -0.03983205397054 0.68929041702508 -2.10362336723772
| 10> O   0.93431434349854 -3.13274393337945 -0.68767288184107
| 11> O   -3.75829998830163 -0.84727300865116 -0.0472717177755
| 12> N   0.21184538946282 -1.54604804365365 0.7617588924445
| 13> N   -2.13631993928911 0.03188773433438 1.27350571071531
| 14> N   2.02598672506387 -1.14318467211666 -0.64531219127023
| 15> N   -1.91814233924584 0.03137116037665 -1.04498946748291
| 16> C   1.18097737274226 0.71693507080484 0.70173889017321
| 17> C   -0.20686880480777 1.27024627933494 0.21345042231937
| 18> C   0.41441080275909 -0.34173258966541 1.52336266615173
| 19> C   -0.82922175114212 0.58960593673968 1.44434972027296
| 20> C   1.92822011286806 1.69488653817281 1.5963734975385
| 21> C   -0.37809776891576 2.77134929626422 0.04819649358288
| 22> C   2.1403947470937 0.1972384729179 -0.35038567829864
| 23> C   -0.67361678962426 0.6214190571346 -1.0793014500539
| 24> C   1.04142578622994 -2.02697492875068 -0.21027082435993
| 25> C   -2.68467002550422 -0.30396816036989 0.07167054343891
| 26> H   0.80817443950001 -0.54572267081061 2.51895215321335
| 27> H   -0.83785272399001 1.27240685039143 2.28901317073582
| 28> H   2.31167340578204 2.52284411740894 1.00913016264629
| 29> H   1.28982602448342 2.08257620823614 2.38710022492991
| 30> H   2.77390820759972 1.19140411795486 2.06045858523949
| 31> H   -1.41857211141493 3.00964947214868 -0.16882755561625
| 32> H   -0.09065531563179 3.29799318042223 0.95389844358819
| 33> H   0.23426221611057 3.12492645074476 -0.77764887675592
| 34> H   -0.46772570547622 -2.21560145172536 1.0787081584806
| 35> H   -2.71769301149571 -0.17090724573546 2.06627440900372
| 36> H   2.60065167263658 -1.49057255715425 -1.3966820077142
| 37> H   -2.27169977231386 -0.32388339999036 -1.91951041514436
| 38> *
| 39>
| 40>                          ****END OF INPUT****
 Total Charge           Charge          ....    0
 Multiplicity           Mult            ....    1
 Number of Electrons    NEL             ....  132
Dispersion correction           -0.053301359
FINAL SINGLE POINT ENERGY      -908.575562990313
Dispersion correction             ... done (  0.1 sec)
Dispersion correction           -0.053723123
FINAL SINGLE POINT ENERGY      -908.618892427219
Dispersion correction             ... done (  0.0 sec)
Dispersion correction           -0.054222659
FINAL SINGLE POINT ENERGY      -908.649334045700
Dispersion correction             ... done (  0.0 sec)
FINAL SINGLE POINT ENERGY      -908.682614721603
FINAL SINGLE POINT ENERGY      -908.714828031396
FINAL SINGLE POINT ENERGY      -908.730806061747
FINAL SINGLE POINT ENERGY      -908.739999408793
FINAL SINGLE POINT ENERGY      -908.744660431363
FINAL SINGLE POINT ENERGY      -908.746448221106
FINAL SINGLE POINT ENERGY      -908.747415943641
FINAL SINGLE POINT ENERGY      -908.750068571835
FINAL SINGLE POINT ENERGY      -908.750183731826
FINAL SINGLE POINT ENERGY      -908.750254497626
FINAL SINGLE POINT ENERGY      -908.750283305478
FINAL SINGLE POINT ENERGY      -908.750297047584
FINAL SINGLE POINT ENERGY      -908.750306746970
FINAL SINGLE POINT ENERGY      -908.750312526047
Dispersion correction             ... done (  0.0 sec)
Dispersion correction           -0.057679006
FINAL SINGLE POINT ENERGY      -908.750317130940
Dispersion correction             ... done (  0.1 sec)
Dispersion correction           -0.057675779
FINAL SINGLE POINT ENERGY      -908.750319359302
Dispersion correction             ... done (  0.1 sec)
                    ***********************HURRAY********************

CARTESIAN COORDINATES (ANGSTROEM)
---------------------------------
  O      3.729785    0.639096    0.312463
  O     -1.423176    0.680112   -2.548595
  O      1.135266   -2.571496   -1.573097
  O     -3.786204   -0.644997    1.012278
  N      0.294189   -1.436544    0.197793
  N     -1.907061    0.594668    1.398171
  N      2.446197   -1.013131   -0.566876
  N     -2.325243   -0.309990   -0.703728
  C      1.610304    0.292209    1.278365
  C     -0.630521    1.351852   -0.411564
  C      0.351706   -0.437817    1.224525
  C     -0.469986    0.794206    0.985963
  C      1.954108    1.186198    2.406755
  C     -0.480729    2.797891   -0.676687
  C      2.678394    0.023423    0.321553
  C     -1.438120    0.560200   -1.343958
  C      1.270842   -1.735470   -0.710484
  C     -2.750737   -0.153887    0.623483
  H      0.099561   -0.874120    2.197811
  H     -0.137963    1.605194    1.618975
  H      2.009168    2.230481    2.086264
  H      1.240561    1.107470    3.223750
  H      2.953801    0.941560    2.764152
  H     -1.386008    3.346334   -0.385379
  H      0.357426    3.224027   -0.129873
  H     -0.347283    2.958783   -1.744544
  H     -0.567250   -1.928939    0.046459
  H     -2.206958    0.676935    2.355765
  H      3.157871   -1.196454   -1.254899
  H     -2.979345   -0.792794   -1.300240

 Multiplicity           Mult            ....    1
 Number of Electrons    NEL             ....  132
 Basis Dimension        Dim             ....  882

ORBITAL ENERGIES
----------------

  NO   OCC          E(Eh)            E(eV)
   0   2.0000     -19.337380      -526.1969
   1   2.0000     -19.328208      -525.9473
   2   2.0000     -19.327425      -525.9260
   3   2.0000     -19.314984      -525.5874
   4   2.0000     -14.564854      -396.3298
   5   2.0000     -14.561447      -396.2371
   6   2.0000     -14.560555      -396.2128
   7   2.0000     -14.554854      -396.0577
   8   2.0000     -10.508166      -285.9417
   9   2.0000     -10.503598      -285.8174
  10   2.0000     -10.486603      -285.3550
  11   2.0000     -10.482654      -285.2475
  12   2.0000     -10.447599      -284.2936
  13   2.0000     -10.440914      -284.1117
  14   2.0000     -10.433943      -283.9220
  15   2.0000     -10.428048      -283.7616
  16   2.0000     -10.387589      -282.6607
  17   2.0000     -10.376520      -282.3595
  18   2.0000      -1.223235       -33.2859
  19   2.0000      -1.216787       -33.1104
  20   2.0000      -1.200288       -32.6615
  21   2.0000      -1.192660       -32.4539
  22   2.0000      -1.120927       -30.5020
  23   2.0000      -1.098011       -29.8784
  24   2.0000      -1.065752       -29.0006
  25   2.0000      -1.056628       -28.7523
  26   2.0000      -0.995756       -27.0959
  27   2.0000      -0.954005       -25.9598
  28   2.0000      -0.896428       -24.3930
  29   2.0000      -0.845420       -23.0050
  30   2.0000      -0.826080       -22.4788
  31   2.0000      -0.802964       -21.8498
  32   2.0000      -0.786145       -21.3921
  33   2.0000      -0.781416       -21.2634
  34   2.0000      -0.706823       -19.2336
  35   2.0000      -0.696510       -18.9530
  36   2.0000      -0.692394       -18.8410
  37   2.0000      -0.677725       -18.4418
  38   2.0000      -0.651493       -17.7280
  39   2.0000      -0.631301       -17.1786
  40   2.0000      -0.625904       -17.0317
  41   2.0000      -0.601139       -16.3578
  42   2.0000      -0.594916       -16.1885
  43   2.0000      -0.588225       -16.0064
  44   2.0000      -0.579605       -15.7719
  45   2.0000      -0.572984       -15.5917
  46   2.0000      -0.566722       -15.4213
  47   2.0000      -0.563601       -15.3364
  48   2.0000      -0.556641       -15.1470
  49   2.0000      -0.553682       -15.0665
  50   2.0000      -0.546905       -14.8821
  51   2.0000      -0.539684       -14.6855
  52   2.0000      -0.535295       -14.5661
  53   2.0000      -0.519202       -14.1282
  54   2.0000      -0.516621       -14.0580
  55   2.0000      -0.510269       -13.8851
  56   2.0000      -0.498509       -13.5651
  57   2.0000      -0.425864       -11.5883
  58   2.0000      -0.419598       -11.4178
  59   2.0000      -0.406362       -11.0577
  60   2.0000      -0.397176       -10.8077
  61   2.0000      -0.396839       -10.7985
  62   2.0000      -0.392110       -10.6698
  63   2.0000      -0.387978       -10.5574
  64   2.0000      -0.379090       -10.3156
  65   2.0000      -0.280911        -7.6440
  66   0.0000      -0.116343        -3.1658
  67   0.0000       0.008616         0.2344
  68   0.0000       0.028464         0.7745
  69   0.0000       0.032548         0.8857
  70   0.0000       0.032662         0.8888

MULLIKEN ATOMIC CHARGES
-----------------------
   0 O :   -0.680787
   1 O :   -0.635534
   2 O :   -0.657889
   3 O :   -0.646604
   4 N :   -0.173233
   5 N :   -0.316201
   6 N :   -0.046015
   7 N :   -0.019231
   8 C :    0.042460
   9 C :    0.279965
  10 C :    0.809200
  11 C :    0.343542
  12 C :   -1.747878
  13 C :   -1.514426
  14 C :    0.530390
  15 C :    0.170895
  16 C :    0.483339
  17 C :    0.356881
  18 H :    0.408060
  19 H :    0.648930
  20 H :    0.324251
  21 H :    0.351038
  22 H :    0.419420
  23 H :    0.360452
  24 H :    0.309096
  25 H :    0.355807
  26 H :    0.085369
  27 H :    0.065059
  28 H :    0.032084
  29 H :    0.061559
Sum of atomic charges:   -0.0000000

LOEWDIN ATOMIC CHARGES
----------------------
   0 O :    0.086915
   1 O :    0.114505
   2 O :    0.093022
   3 O :    0.089921
   4 N :    0.303236
   5 N :    0.294212
   6 N :    0.330105
   7 N :    0.311353
   8 C :   -0.025996
   9 C :    0.016275
  10 C :   -0.150973
  11 C :   -0.144230
  12 C :    0.187319
  13 C :    0.188415
  14 C :   -0.393417
  15 C :   -0.402604
  16 C :   -0.472821
  17 C :   -0.490348
  18 H :    0.075056
  19 H :    0.019581
  20 H :    0.018928
  21 H :    0.006079
  22 H :    0.016157
  23 H :    0.018173
  24 H :   -0.003098
  25 H :    0.005105
  26 H :   -0.032762
  27 H :   -0.035534
  28 H :   -0.010201
  29 H :   -0.012372

  Mayer bond orders larger than 0.100000
B(  0-O , 12-C ) :   0.1268 B(  0-O , 14-C ) :   1.2273 B(  1-O ,  9-C ) :  -0.1012
B(  1-O , 15-C ) :   1.4937 B(  2-O , 16-C ) :   1.5718 B(  3-O , 17-C ) :   1.5773
B(  4-N ,  8-C ) :   0.2109 B(  4-N , 10-C ) :   0.4884 B(  4-N , 16-C ) :   1.0402
B(  4-N , 26-H ) :   1.1066 B(  5-N ,  9-C ) :   0.3252 B(  5-N , 10-C ) :   0.1602
B(  5-N , 17-C ) :   1.2566 B(  5-N , 27-H ) :   1.0537 B(  6-N , 14-C ) :   0.9985
B(  6-N , 16-C ) :   0.9346 B(  6-N , 28-H ) :   1.1122 B(  7-N , 15-C ) :   0.9847
B(  7-N , 17-C ) :   0.9665 B(  7-N , 29-H ) :   1.0650 B(  8-C ,  9-C ) :   0.5018
B(  8-C , 10-C ) :  -0.2463 B(  8-C , 11-C ) :   0.6250 B(  8-C , 12-C ) :   0.1246
B(  8-C , 14-C ) :   0.9526 B(  8-C , 16-C ) :   0.1059 B(  8-C , 18-H ) :  -0.2537
B(  8-C , 21-H ) :  -0.1714 B(  9-C , 10-C ) :   0.3426 B(  9-C , 11-C ) :   0.1007
B(  9-C , 13-C ) :   0.2337 B(  9-C , 15-C ) :   0.7981 B(  9-C , 25-H ) :  -0.1032
B( 10-C , 11-C ) :   0.2666 B( 10-C , 12-C ) :  -0.2954 B( 10-C , 16-C ) :  -0.1387
B( 10-C , 18-H ) :   1.1118 B( 11-C , 12-C ) :   0.1571 B( 11-C , 15-C ) :  -0.2627
B( 11-C , 17-C ) :  -0.1937 B( 11-C , 19-H ) :   0.7104 B( 12-C , 19-H ) :  -0.1071
B( 12-C , 20-H ) :   0.9235 B( 12-C , 21-H ) :   1.0856 B( 12-C , 22-H ) :   0.8200
B( 13-C , 15-C ) :  -0.1095 B( 13-C , 23-H ) :   0.8558 B( 13-C , 24-H ) :   1.0065
B( 13-C , 25-H ) :   0.9745

Dispersion correction           -0.057671261
FINAL SINGLE POINT ENERGY      -908.750320332603

DIPOLE MOMENT
-------------

Method             : SCF
Type of density    : Electron Density
Multiplicity       :   1
Irrep              :   0
Energy             :  -908.6926490719106368 Eh
Relativity type    :
Basis              : AO
                                X                 Y                 Z
Electronic contribution:     -1.944809646      -8.986613411      -6.018291058
Nuclear contribution   :      2.001001881      10.249506390       8.233232899
                        -----------------------------------------
Total Dipole Moment    :      0.056192235       1.262892979       2.214941841
                        -----------------------------------------
Magnitude (a.u.)       :      2.550298728
Magnitude (Debye)      :      6.482344207

Rotational constants in cm-1:             0.021054             0.012055             0.010841
Rotational constants in MHz :           631.175245           361.409163           324.994832

                             ****ORCA TERMINATED NORMALLY****
TOTAL RUN TIME: 0 days 2 hours 8 minutes 44 seconds 854 msec
