                         Program Version 6.0.0  -   RELEASE  -
|  1> ! Engrad def2-TZVPPD wB97M-D3BJ
|  2> %pal nprocs 8 end%pal nprocs 64 end
|  3> %tddft Nroots 2 Iroot 2
|  4> sf true
|  5> end
|  6> *xyz 0 3
|  7> O   2.81832041 1.12481032 -0.69186757
|  8> O   -0.36226313 0.79568724 -2.03960272
|  9> O   0.6238298 -2.81225943 -1.49454265
| 10> O   -2.6420615 -1.68583535 0.97516249
| 11> N   0.67414727 -2.03378866 0.65647911
| 12> N   -2.42654123 0.5395158 1.33638862
| 13> N   1.85191716 -0.92832158 -1.02516106
| 14> N   -1.60767918 -0.40492902 -0.57396981
| 15> C   1.62366257 0.09070834 1.10514727
| 16> C   -1.02192882 1.86175629 -0.05949386
| 17> C   0.84514554 -0.97881918 1.51542872
| 18> C   -1.75411881 1.70756807 1.0537624
| 19> C   2.00446447 1.21973273 2.01477504
| 20> C   -0.29423168 3.10999376 -0.3489464
| 21> C   2.15704117 0.19017469 -0.26633823
| 22> C   -0.93007058 0.74600628 -0.96321117
| 23> C   1.04845552 -2.01471488 -0.68154557
| 24> C   -2.26992053 -0.59693465 0.58639273
| 25> H   0.55228156 -1.20892297 2.49643626
| 26> H   -1.8281398 2.4716782 1.80317593
| 27> H   1.48372853 2.1904952 1.83542148
| 28> H   1.79470004 0.91703668 3.06451214
| 29> H   3.06785189 1.37602103 1.95262987
| 30> H   -0.55187308 3.53099835 -1.30295367
| 31> H   -0.53114534 3.83793719 0.42694675
| 32> H   0.77059611 2.95068997 -0.35078619
| 33> H   -0.08240312 -2.7136047 0.77728258
| 34> H   -2.89846717 0.39850061 2.23547498
| 35> H   2.12918938 -0.93495909 -1.99353889
| 36> H   -1.53290059 -1.24242593 -1.14163313
| 37> *
| 38>
| 39>                          ****END OF INPUT****

CARTESIAN COORDINATES (ANGSTROEM)
---------------------------------
  O      2.818320    1.124810   -0.691868
  O     -0.362263    0.795687   -2.039603
  O      0.623830   -2.812259   -1.494543
  O     -2.642062   -1.685835    0.975162
  N      0.674147   -2.033789    0.656479
  N     -2.426541    0.539516    1.336389
  N      1.851917   -0.928322   -1.025161
  N     -1.607679   -0.404929   -0.573970
  C      1.623663    0.090708    1.105147
  C     -1.021929    1.861756   -0.059494
  C      0.845146   -0.978819    1.515429
  C     -1.754119    1.707568    1.053762
  C      2.004464    1.219733    2.014775
  C     -0.294232    3.109994   -0.348946
  C      2.157041    0.190175   -0.266338
  C     -0.930071    0.746006   -0.963211
  C      1.048456   -2.014715   -0.681546
  C     -2.269921   -0.596935    0.586393
  H      0.552282   -1.208923    2.496436
  H     -1.828140    2.471678    1.803176
  H      1.483729    2.190495    1.835421
  H      1.794700    0.917037    3.064512
  H      3.067852    1.376021    1.952630
  H     -0.551873    3.530998   -1.302954
  H     -0.531145    3.837937    0.426947
  H      0.770596    2.950690   -0.350786
  H     -0.082403   -2.713605    0.777283
  H     -2.898467    0.398501    2.235475
  H      2.129189   -0.934959   -1.993539
  H     -1.532901   -1.242426   -1.141633

 Total Charge           Charge          ....    0
 Multiplicity           Mult            ....    3
 Number of Electrons    NEL             ....  132
 Basis Dimension        Dim             ....  882

ORBITAL ENERGIES
----------------
                 SPIN UP ORBITALS
  NO   OCC          E(Eh)            E(eV)
   0   1.0000     -19.336902      -526.1838
   1   1.0000     -19.325192      -525.8652
   2   1.0000     -19.320981      -525.7506
   3   1.0000     -19.319579      -525.7125
   4   1.0000     -14.588989      -396.9866
   5   1.0000     -14.584425      -396.8624
   6   1.0000     -14.571785      -396.5184
   7   1.0000     -14.550253      -395.9325
   8   1.0000     -10.512635      -286.0633
   9   1.0000     -10.510422      -286.0031
  10   1.0000     -10.476901      -285.0910
  11   1.0000     -10.463993      -284.7397
  12   1.0000     -10.433446      -283.9085
  13   1.0000     -10.409418      -283.2547
  14   1.0000     -10.399703      -282.9903
  15   1.0000     -10.378441      -282.4117
  16   1.0000     -10.369261      -282.1619
  17   1.0000     -10.349351      -281.6201
  18   1.0000      -1.230017       -33.4705
  19   1.0000      -1.223267       -33.2868
  20   1.0000      -1.189622       -32.3713
  21   1.0000      -1.184273       -32.2257
  22   1.0000      -1.122850       -30.5543
  23   1.0000      -1.120457       -30.4892
  24   1.0000      -1.074814       -29.2472
  25   1.0000      -1.059792       -28.8384
  26   1.0000      -0.964559       -26.2470
  27   1.0000      -0.960202       -26.1284
  28   1.0000      -0.852837       -23.2069
  29   1.0000      -0.849041       -23.1036
  30   1.0000      -0.817867       -22.2553
  31   1.0000      -0.807795       -21.9812
  32   1.0000      -0.794721       -21.6255
  33   1.0000      -0.784348       -21.3432
  34   1.0000      -0.697484       -18.9795
  35   1.0000      -0.695821       -18.9343
  36   1.0000      -0.692045       -18.8315
  37   1.0000      -0.682775       -18.5792
  38   1.0000      -0.645282       -17.5590
  39   1.0000      -0.639880       -17.4120
  40   1.0000      -0.630210       -17.1489
  41   1.0000      -0.604841       -16.4586
  42   1.0000      -0.596541       -16.2327
  43   1.0000      -0.591957       -16.1080
  44   1.0000      -0.572127       -15.5684
  45   1.0000      -0.567316       -15.4375
  46   1.0000      -0.566530       -15.4161
  47   1.0000      -0.551816       -15.0157
  48   1.0000      -0.547997       -14.9118
  49   1.0000      -0.543672       -14.7941
  50   1.0000      -0.528783       -14.3889
  51   1.0000      -0.523645       -14.2491
  52   1.0000      -0.521328       -14.1861
  53   1.0000      -0.514096       -13.9893
  54   1.0000      -0.499816       -13.6007
  55   1.0000      -0.497851       -13.5472
  56   1.0000      -0.490476       -13.3465
  57   1.0000      -0.479077       -13.0363
  58   1.0000      -0.423215       -11.5163
  59   1.0000      -0.418592       -11.3905
  60   1.0000      -0.407438       -11.0870
  61   1.0000      -0.397884       -10.8270
  62   1.0000      -0.388168       -10.5626
  63   1.0000      -0.385469       -10.4892
  64   1.0000      -0.382769       -10.4157
  65   1.0000      -0.345814        -9.4101
  66   1.0000      -0.220178        -5.9914
  67   0.0000       0.012453         0.3389
  68   0.0000       0.018497         0.5033
  69   0.0000       0.033595         0.9142
  70   0.0000       0.037860         1.0302
  71   0.0000       0.043955         1.1961

                 SPIN DOWN ORBITALS
  NO   OCC          E(Eh)            E(eV)
   0   1.0000     -19.334861      -526.1283
   1   1.0000     -19.325155      -525.8642
   2   1.0000     -19.319617      -525.7135
   3   1.0000     -19.315606      -525.6044
   4   1.0000     -14.584285      -396.8586
   5   1.0000     -14.584219      -396.8568
   6   1.0000     -14.571795      -396.5187
   7   1.0000     -14.549263      -395.9056
   8   1.0000     -10.512977      -286.0727
   9   1.0000     -10.510433      -286.0034
  10   1.0000     -10.476882      -285.0905
  11   1.0000     -10.464181      -284.7448
  12   1.0000     -10.433220      -283.9023
  13   1.0000     -10.399288      -282.9790
  14   1.0000     -10.389221      -282.7051
  15   1.0000     -10.378461      -282.4123
  16   1.0000     -10.369815      -282.1770
  17   1.0000     -10.349338      -281.6198
  18   1.0000      -1.229703       -33.4619
  19   1.0000      -1.219328       -33.1796
  20   1.0000      -1.189477       -32.3673
  21   1.0000      -1.176392       -32.0112
  22   1.0000      -1.122594       -30.5473
  23   1.0000      -1.109760       -30.1981
  24   1.0000      -1.074669       -29.2432
  25   1.0000      -1.054492       -28.6942
  26   1.0000      -0.961998       -26.1773
  27   1.0000      -0.938822       -25.5466
  28   1.0000      -0.848973       -23.1017
  29   1.0000      -0.840393       -22.8682
  30   1.0000      -0.817620       -22.2486
  31   1.0000      -0.796715       -21.6797
  32   1.0000      -0.794072       -21.6078
  33   1.0000      -0.779432       -21.2094
  34   1.0000      -0.697260       -18.9734
  35   1.0000      -0.695562       -18.9272
  36   1.0000      -0.680358       -18.5135
  37   1.0000      -0.674120       -18.3437
  38   1.0000      -0.644571       -17.5397
  39   1.0000      -0.631953       -17.1963
  40   1.0000      -0.621772       -16.9193
  41   1.0000      -0.596465       -16.2306
  42   1.0000      -0.593975       -16.1629
  43   1.0000      -0.584980       -15.9181
  44   1.0000      -0.566698       -15.4206
  45   1.0000      -0.561657       -15.2835
  46   1.0000      -0.559409       -15.2223
  47   1.0000      -0.548371       -14.9219
  48   1.0000      -0.543133       -14.7794
  49   1.0000      -0.534923       -14.5560
  50   1.0000      -0.521297       -14.1852
  51   1.0000      -0.518139       -14.0993
  52   1.0000      -0.515403       -14.0248
  53   1.0000      -0.502834       -13.6828
  54   1.0000      -0.498549       -13.5662
  55   1.0000      -0.492992       -13.4150
  56   1.0000      -0.478050       -13.0084
  57   1.0000      -0.447124       -12.1669
  58   1.0000      -0.418932       -11.3997
  59   1.0000      -0.416329       -11.3289
  60   1.0000      -0.402635       -10.9562
  61   1.0000      -0.387066       -10.5326
  62   1.0000      -0.379618       -10.3299
  63   1.0000      -0.377295       -10.2667
  64   1.0000      -0.345773        -9.4090
  65   0.0000      -0.100439        -2.7331
  66   0.0000       0.011259         0.3064
  67   0.0000       0.018495         0.5033
  68   0.0000       0.031255         0.8505
  69   0.0000       0.036878         1.0035

----------------------------------------------------------------------------------------------------
          SPIN FLIP ABSORPTION SPECTRUM VIA TRANSITION ELECTRIC DIPOLE MOMENTS
----------------------------------------------------------------------------------------------------
     Transition      Energy     Energy  Wavelength fosc(D2)      D2        DX        DY        DZ
                      (eV)      (cm-1)    (nm)                 (au**2)    (au)      (au)      (au)
----------------------------------------------------------------------------------------------------
  1-3A  ->  2-3A    3.803237   30675.2   326.0   0.001167388   0.01253   0.06534   0.04969  -0.07610

Dispersion correction             ... done (  0.1 sec)

MULLIKEN ATOMIC CHARGES AND SPIN DENSITIES
------------------------------------------
   0 O :   -0.688309    0.004366
   1 O :   -0.667585   -0.001120
   2 O :   -0.605089    0.004174
   3 O :   -0.670553    0.000560
   4 N :   -0.046735    0.015190
   5 N :   -0.077307   -0.005177
   6 N :    0.029169   -0.009121
   7 N :    0.022417   -0.003762
   8 C :    0.999724    0.046493
   9 C :    0.477484    0.009488
  10 C :   -0.249457    0.070658
  11 C :    0.132461   -0.011764
  12 C :   -1.305157   -0.016262
  13 C :   -1.351509    0.002083
  14 C :    0.273454   -0.121536
  15 C :    0.580776   -0.008218
  16 C :    0.404766    0.002807
  17 C :    0.434387    0.005981
  18 H :    0.192325   -0.006262
  19 H :    0.128861   -0.000060
  20 H :    0.186260    0.017353
  21 H :    0.347225    0.000032
  22 H :    0.339085    0.005876
  23 H :    0.347691    0.000134
  24 H :    0.323566   -0.000134
  25 H :    0.196053   -0.000072
  26 H :    0.124399   -0.002767
  27 H :    0.069056    0.000729
  28 H :    0.005900    0.002142
  29 H :    0.046642   -0.001815
Sum of atomic charges       :   -0.0000000

LOEWDIN ATOMIC CHARGES AND SPIN DENSITIES
-----------------------------------------
   0 O :    0.073017    0.003090
   1 O :    0.100193   -0.000525
   2 O :    0.103370    0.002807
   3 O :    0.069803   -0.000200
   4 N :    0.287540    0.020727
   5 N :    0.268332   -0.002404
   6 N :    0.312197   -0.007363
   7 N :    0.341649   -0.000430
   8 C :   -0.076868    0.007789
   9 C :   -0.145571    0.000091
  10 C :    0.030358   -0.009566
  11 C :    0.067707   -0.000812
  12 C :    0.189589    0.001277
  13 C :    0.181947    0.000009
  14 C :   -0.434727   -0.007482
  15 C :   -0.393106   -0.000142
  16 C :   -0.452263   -0.002765
  17 C :   -0.511129   -0.000465
  18 H :   -0.021897   -0.005797
  19 H :    0.031241   -0.000219
  20 H :    0.014684    0.000940
  21 H :    0.007593   -0.000221
  22 H :   -0.006843    0.000630
  23 H :   -0.002554    0.000024
  24 H :   -0.000633   -0.000047
  25 H :   -0.020088    0.000022
  26 H :   -0.000754    0.001938
  27 H :    0.003772   -0.000147
  28 H :   -0.012675   -0.000739
  29 H :   -0.003886   -0.000021

  Mayer bond orders larger than 0.100000
B(  0-O , 14-C ) :   1.3175 B(  1-O , 15-C ) :   1.4238 B(  2-O , 16-C ) :   1.5838
B(  3-O , 17-C ) :   1.5193 B(  4-N , 10-C ) :   0.9069 B(  4-N , 16-C ) :   0.9061
B(  4-N , 26-H ) :   1.0324 B(  5-N , 11-C ) :   0.9494 B(  5-N , 17-C ) :   1.0434
B(  5-N , 27-H ) :   1.0914 B(  6-N , 14-C ) :   0.8870 B(  6-N , 16-C ) :   0.9440
B(  6-N , 28-H ) :   1.1217 B(  7-N , 15-C ) :   0.9893 B(  7-N , 17-C ) :   0.9654
B(  7-N , 29-H ) :   1.1052 B(  8-C , 10-C ) :   0.5373 B(  8-C , 12-C ) :   0.4466
B(  8-C , 14-C ) :   0.8928 B(  9-C , 11-C ) :   1.1552 B(  9-C , 13-C ) :   0.3820
B(  9-C , 15-C ) :   0.9273 B(  9-C , 24-H ) :  -0.1175 B( 10-C , 14-C ) :  -0.1189
B( 10-C , 18-H ) :   1.0716 B( 11-C , 13-C ) :  -0.1364 B( 11-C , 15-C ) :  -0.1290
B( 11-C , 19-H ) :   1.1050 B( 12-C , 14-C ) :  -0.1073 B( 12-C , 20-H ) :   1.0163
B( 12-C , 21-H ) :   0.9231 B( 12-C , 22-H ) :   0.9230 B( 13-C , 23-H ) :   0.9407
B( 13-C , 24-H ) :   1.0226 B( 13-C , 25-H ) :   0.9664

Dispersion correction           -0.058136392
FINAL SINGLE POINT ENERGY      -908.769136292824

DIPOLE MOMENT
-------------

Method             : TDA/CIS
Type of density    : Electron Density
Level              : Relaxed density
State              :   2
Multiplicity       :   3
Irrep              :   0
Energy             :     0.0000000000000000 Eh
Relativity type    :
Basis              : AO
                                X                 Y                 Z
Electronic contribution:     -2.735940074     -10.148766247      -6.252527424
Nuclear contribution   :      1.991536545      11.033235913       8.660924055
                        -----------------------------------------
Total Dipole Moment    :     -0.744403529       0.884469666       2.408396631
                        -----------------------------------------
Magnitude (a.u.)       :      2.671478530
Magnitude (Debye)      :      6.790358784

Rotational constants in cm-1:             0.017907             0.015609             0.012226
Rotational constants in MHz :           536.848441           467.945655           366.514515

                             ****ORCA TERMINATED NORMALLY****
TOTAL RUN TIME: 0 days 0 hours 5 minutes 1 seconds 130 msec
