                         Program Version 6.0.0  -   RELEASE  -
|  1> ! Engrad def2-TZVPPD wB97M-D3BJ
|  2> %pal nprocs 8 end%pal nprocs 64 end
|  3> %tddft Nroots 2 Iroot 1
|  4> sf true
|  5> end
|  6> *xyz 0 3
|  7> O   4.06313643 0.13665747 0.35081864
|  8> O   -1.7213895 1.52148581 -2.38591016
|  9> O   1.13915864 -3.00945494 -1.08180168
| 10> O   -3.63155842 -1.3432902 0.50916927
| 11> N   0.29712553 -1.27273473 0.09174241
| 12> N   -1.97872985 -0.01126414 1.30820954
| 13> N   2.58568251 -1.48910986 -0.24435601
| 14> N   -2.41434046 -0.11002055 -0.9687076
| 15> C   1.8185069 0.39767581 1.02580469
| 16> C   -0.9186666 1.57030507 -0.15242853
| 17> C   0.46958928 -0.2767341 1.12611974
| 18> C   -0.73779999 0.70608828 1.09337608
| 19> C   2.09887268 1.66365873 1.72461492
| 20> C   -0.63487554 3.00765286 -0.09947522
| 21> C   2.91457174 -0.28571382 0.3651477
| 22> C   -1.67928188 1.02425353 -1.27090907
| 23> C   1.321034 -2.0014634 -0.45189705
| 24> C   -2.74087556 -0.54691417 0.30427838
| 25> H   0.42732237 -0.73988289 2.11779262
| 26> H   -0.59228831 1.39738362 1.92211622
| 27> H   3.18375903 1.74730401 1.9017412
| 28> H   1.83611303 2.50920274 1.13756362
| 29> H   1.54976259 1.72786303 2.66711245
| 30> H   -1.22485582 3.44251937 0.71130278
| 31> H   0.40233441 3.20506416 0.13714205
| 32> H   -0.88439232 3.49694432 -1.03361911
| 33> H   -0.58069039 -1.77012626 0.06483071
| 34> H   -2.21269689 -0.36590977 2.23246035
| 35> H   3.31231708 -1.98833622 -0.71259366
| 36> H   -3.00245876 -0.47117645 -1.70512292
| 37> *
| 38>
| 39>                          ****END OF INPUT****

CARTESIAN COORDINATES (ANGSTROEM)
---------------------------------
  O      4.063136    0.136657    0.350819
  O     -1.721389    1.521486   -2.385910
  O      1.139159   -3.009455   -1.081802
  O     -3.631558   -1.343290    0.509169
  N      0.297126   -1.272735    0.091742
  N     -1.978730   -0.011264    1.308210
  N      2.585683   -1.489110   -0.244356
  N     -2.414340   -0.110021   -0.968708
  C      1.818507    0.397676    1.025805
  C     -0.918667    1.570305   -0.152429
  C      0.469589   -0.276734    1.126120
  C     -0.737800    0.706088    1.093376
  C      2.098873    1.663659    1.724615
  C     -0.634876    3.007653   -0.099475
  C      2.914572   -0.285714    0.365148
  C     -1.679282    1.024254   -1.270909
  C      1.321034   -2.001463   -0.451897
  C     -2.740876   -0.546914    0.304278
  H      0.427322   -0.739883    2.117793
  H     -0.592288    1.397384    1.922116
  H      3.183759    1.747304    1.901741
  H      1.836113    2.509203    1.137564
  H      1.549763    1.727863    2.667112
  H     -1.224856    3.442519    0.711303
  H      0.402334    3.205064    0.137142
  H     -0.884392    3.496944   -1.033619
  H     -0.580690   -1.770126    0.064831
  H     -2.212697   -0.365910    2.232460
  H      3.312317   -1.988336   -0.712594
  H     -3.002459   -0.471176   -1.705123

 Total Charge           Charge          ....    0
 Multiplicity           Mult            ....    3
 Number of Electrons    NEL             ....  132
 Basis Dimension        Dim             ....  882

ORBITAL ENERGIES
----------------
                 SPIN UP ORBITALS
  NO   OCC          E(Eh)            E(eV)
   0   1.0000     -19.338074      -526.2157
   1   1.0000     -19.335984      -526.1589
   2   1.0000     -19.325788      -525.8814
   3   1.0000     -19.316837      -525.6379
   4   1.0000     -14.569664      -396.4607
   5   1.0000     -14.566992      -396.3880
   6   1.0000     -14.563139      -396.2832
   7   1.0000     -14.556825      -396.1113
   8   1.0000     -10.511578      -286.0346
   9   1.0000     -10.501929      -285.7720
  10   1.0000     -10.485238      -285.3178
  11   1.0000     -10.484483      -285.2973
  12   1.0000     -10.451103      -284.3890
  13   1.0000     -10.447915      -284.3022
  14   1.0000     -10.423585      -283.6402
  15   1.0000     -10.422806      -283.6190
  16   1.0000     -10.376711      -282.3647
  17   1.0000     -10.375629      -282.3352
  18   1.0000      -1.225735       -33.3539
  19   1.0000      -1.221206       -33.2307
  20   1.0000      -1.199272       -32.6338
  21   1.0000      -1.197139       -32.5758
  22   1.0000      -1.123181       -30.5633
  23   1.0000      -1.101271       -29.9671
  24   1.0000      -1.072549       -29.1855
  25   1.0000      -1.060345       -28.8534
  26   1.0000      -0.984649       -26.7936
  27   1.0000      -0.961731       -26.1700
  28   1.0000      -0.898368       -24.4458
  29   1.0000      -0.847527       -23.0624
  30   1.0000      -0.835197       -22.7269
  31   1.0000      -0.802915       -21.8484
  32   1.0000      -0.790632       -21.5142
  33   1.0000      -0.785832       -21.3836
  34   1.0000      -0.706078       -19.2134
  35   1.0000      -0.701483       -19.0883
  36   1.0000      -0.693322       -18.8662
  37   1.0000      -0.683020       -18.5859
  38   1.0000      -0.648621       -17.6499
  39   1.0000      -0.644391       -17.5348
  40   1.0000      -0.628823       -17.1111
  41   1.0000      -0.607597       -16.5336
  42   1.0000      -0.601112       -16.3571
  43   1.0000      -0.588768       -16.0212
  44   1.0000      -0.583497       -15.8778
  45   1.0000      -0.578523       -15.7424
  46   1.0000      -0.571027       -15.5384
  47   1.0000      -0.565123       -15.3778
  48   1.0000      -0.562997       -15.3199
  49   1.0000      -0.560738       -15.2585
  50   1.0000      -0.555477       -15.1153
  51   1.0000      -0.545472       -14.8430
  52   1.0000      -0.537264       -14.6197
  53   1.0000      -0.527768       -14.3613
  54   1.0000      -0.517824       -14.0907
  55   1.0000      -0.511799       -13.9268
  56   1.0000      -0.494490       -13.4558
  57   1.0000      -0.424844       -11.5606
  58   1.0000      -0.423838       -11.5332
  59   1.0000      -0.414066       -11.2673
  60   1.0000      -0.407895       -11.0994
  61   1.0000      -0.401525       -10.9261
  62   1.0000      -0.396328       -10.7846
  63   1.0000      -0.391686       -10.6583
  64   1.0000      -0.383720       -10.4416
  65   1.0000      -0.346085        -9.4174
  66   1.0000      -0.341459        -9.2916
  67   0.0000       0.007258         0.1975
  68   0.0000       0.028564         0.7773
  69   0.0000       0.031595         0.8597
  70   0.0000       0.033444         0.9100
  71   0.0000       0.053418         1.4536

                 SPIN DOWN ORBITALS
  NO   OCC          E(Eh)            E(eV)
   0   1.0000     -19.333803      -526.0995
   1   1.0000     -19.331658      -526.0412
   2   1.0000     -19.325592      -525.8761
   3   1.0000     -19.316807      -525.6370
   4   1.0000     -14.569189      -396.4478
   5   1.0000     -14.566682      -396.3796
   6   1.0000     -14.562487      -396.2654
   7   1.0000     -14.556746      -396.1092
   8   1.0000     -10.511596      -286.0351
   9   1.0000     -10.501969      -285.7731
  10   1.0000     -10.486325      -285.3474
  11   1.0000     -10.485514      -285.3253
  12   1.0000     -10.451201      -284.3916
  13   1.0000     -10.447917      -284.3023
  14   1.0000     -10.412203      -283.3304
  15   1.0000     -10.411010      -283.2980
  16   1.0000     -10.377272      -282.3799
  17   1.0000     -10.376179      -282.3502
  18   1.0000      -1.224333       -33.3158
  19   1.0000      -1.219810       -33.1927
  20   1.0000      -1.194094       -32.4929
  21   1.0000      -1.191982       -32.4355
  22   1.0000      -1.120850       -30.4999
  23   1.0000      -1.099129       -29.9088
  24   1.0000      -1.070764       -29.1370
  25   1.0000      -1.058923       -28.8148
  26   1.0000      -0.971890       -26.4465
  27   1.0000      -0.944379       -25.6979
  28   1.0000      -0.893543       -24.3145
  29   1.0000      -0.841976       -22.9113
  30   1.0000      -0.825982       -22.4761
  31   1.0000      -0.798647       -21.7323
  32   1.0000      -0.788775       -21.4637
  33   1.0000      -0.784307       -21.3421
  34   1.0000      -0.701806       -19.0971
  35   1.0000      -0.694711       -18.9040
  36   1.0000      -0.686680       -18.6855
  37   1.0000      -0.675865       -18.3912
  38   1.0000      -0.642448       -17.4819
  39   1.0000      -0.633726       -17.2446
  40   1.0000      -0.626048       -17.0356
  41   1.0000      -0.602172       -16.3859
  42   1.0000      -0.594692       -16.1824
  43   1.0000      -0.582885       -15.8611
  44   1.0000      -0.575267       -15.6538
  45   1.0000      -0.570518       -15.5246
  46   1.0000      -0.566925       -15.4268
  47   1.0000      -0.562112       -15.2959
  48   1.0000      -0.556592       -15.1456
  49   1.0000      -0.551915       -15.0184
  50   1.0000      -0.546557       -14.8726
  51   1.0000      -0.537576       -14.6282
  52   1.0000      -0.528801       -14.3894
  53   1.0000      -0.517641       -14.0857
  54   1.0000      -0.510714       -13.8972
  55   1.0000      -0.505502       -13.7554
  56   1.0000      -0.489559       -13.3216
  57   1.0000      -0.421823       -11.4784
  58   1.0000      -0.419152       -11.4057
  59   1.0000      -0.406612       -11.0645
  60   1.0000      -0.395470       -10.7613
  61   1.0000      -0.393518       -10.7082
  62   1.0000      -0.391333       -10.6487
  63   1.0000      -0.387389       -10.5414
  64   1.0000      -0.379018       -10.3136
  65   0.0000      -0.063255        -1.7212
  66   0.0000      -0.053740        -1.4623
  67   0.0000       0.007016         0.1909
  68   0.0000       0.028196         0.7673
  69   0.0000       0.031082         0.8458

----------------------------------------------------------------------------------------------------
          SPIN FLIP ABSORPTION SPECTRUM VIA TRANSITION ELECTRIC DIPOLE MOMENTS
----------------------------------------------------------------------------------------------------
     Transition      Energy     Energy  Wavelength fosc(D2)      D2        DX        DY        DZ
                      (eV)      (cm-1)    (nm)                 (au**2)    (au)      (au)      (au)
----------------------------------------------------------------------------------------------------
  1-3A  ->  2-3A    0.049706     400.9  24943.6   0.000000020   0.00002   0.00161   0.00354  -0.00124

Dispersion correction             ... done (  0.1 sec)

MULLIKEN ATOMIC CHARGES AND SPIN DENSITIES
------------------------------------------
   0 O :   -0.674093   -0.162046
   1 O :   -0.651317    0.152186
   2 O :   -0.653782   -0.002555
   3 O :   -0.646095    0.005729
   4 N :   -0.176393   -0.022449
   5 N :   -0.309110    0.024024
   6 N :   -0.020049   -0.025733
   7 N :    0.026081    0.015351
   8 C :    1.340673    0.245550
   9 C :    0.053440    0.481704
  10 C :   -0.041109   -0.314082
  11 C :    0.638141   -0.060119
  12 C :   -1.594314    0.085320
  13 C :   -1.389793    0.049072
  14 C :   -0.092415   -0.590253
  15 C :    0.419121    0.149180
  16 C :    0.419303    0.023703
  17 C :    0.393033   -0.001597
  18 H :    0.412656   -0.068865
  19 H :    0.580538   -0.002049
  20 H :    0.324279   -0.012007
  21 H :    0.277191   -0.027744
  22 H :    0.360259    0.008166
  23 H :    0.319831    0.020886
  24 H :    0.141362   -0.001708
  25 H :    0.358965    0.012080
  26 H :    0.030598    0.012255
  27 H :    0.068218   -0.000628
  28 H :    0.040823    0.007805
  29 H :    0.043958   -0.001175
Sum of atomic charges       :    0.0000000

LOEWDIN ATOMIC CHARGES AND SPIN DENSITIES
-----------------------------------------
   0 O :    0.070779   -0.142149
   1 O :    0.098287    0.137404
   2 O :    0.100835   -0.001875
   3 O :    0.087975    0.005706
   4 N :    0.287243   -0.000206
   5 N :    0.271221    0.014697
   6 N :    0.331408   -0.027358
   7 N :    0.318359    0.012679
   8 C :    0.030864   -0.485701
   9 C :    0.001657    0.522266
  10 C :   -0.111662   -0.049246
  11 C :   -0.110448    0.037641
  12 C :    0.192158   -0.076961
  13 C :    0.196120    0.083200
  14 C :   -0.406149   -0.091663
  15 C :   -0.388793    0.078116
  16 C :   -0.482355   -0.000928
  17 C :   -0.502948    0.001108
  18 H :    0.062983   -0.024040
  19 H :    0.039221    0.000852
  20 H :    0.018089   -0.003998
  21 H :   -0.036364   -0.023197
  22 H :    0.012549   -0.010035
  23 H :    0.017711    0.025976
  24 H :   -0.028046    0.018904
  25 H :    0.002634   -0.001122
  26 H :   -0.035832    0.000175
  27 H :   -0.011387    0.001124
  28 H :   -0.020290   -0.002453
  29 H :   -0.005819    0.001085

  Mayer bond orders larger than 0.100000
B(  0-O ,  8-C ) :   0.1601 B(  0-O , 14-C ) :   1.2573 B(  1-O , 15-C ) :   1.4175
B(  2-O , 16-C ) :   1.5687 B(  3-O , 17-C ) :   1.5965 B(  4-N , 10-C ) :   0.4963
B(  4-N , 11-C ) :   0.1475 B(  4-N , 16-C ) :   1.1401 B(  4-N , 26-H ) :   1.0846
B(  5-N ,  9-C ) :   0.2296 B(  5-N , 10-C ) :   0.1813 B(  5-N , 17-C ) :   1.1583
B(  5-N , 27-H ) :   1.0866 B(  6-N , 14-C ) :   0.9363 B(  6-N , 16-C ) :   0.9316
B(  6-N , 28-H ) :   1.1320 B(  7-N , 15-C ) :   1.0696 B(  7-N , 17-C ) :   0.9487
B(  7-N , 29-H ) :   1.0792 B(  8-C ,  9-C ) :   0.1177 B(  8-C , 10-C ) :   0.6029
B(  8-C , 14-C ) :   0.3397 B(  8-C , 20-H ) :  -0.1075 B(  8-C , 22-H ) :  -0.1596
B(  9-C , 10-C ) :   0.2062 B(  9-C , 11-C ) :  -0.2344 B(  9-C , 13-C ) :   0.4838
B(  9-C , 15-C ) :   0.7502 B(  9-C , 19-H ) :  -0.1724 B( 10-C , 11-C ) :   0.5944
B( 10-C , 14-C ) :   0.4110 B( 10-C , 16-C ) :  -0.1026 B( 10-C , 18-H ) :   0.7797
B( 11-C , 13-C ) :  -0.2525 B( 11-C , 17-C ) :  -0.2009 B( 11-C , 19-H ) :   0.8062
B( 12-C , 14-C ) :  -0.1278 B( 12-C , 20-H ) :   1.0697 B( 12-C , 21-H ) :   0.8136
B( 12-C , 22-H ) :   1.0316 B( 13-C , 15-C ) :  -0.1021 B( 13-C , 23-H ) :   0.8991
B( 13-C , 24-H ) :   1.0940 B( 13-C , 25-H ) :   0.9381

Dispersion correction           -0.056651707
FINAL SINGLE POINT ENERGY      -908.802719453209

DIPOLE MOMENT
-------------

Method             : TDA/CIS
Type of density    : Electron Density
Level              : Relaxed density
State              :   1
Multiplicity       :   3
Irrep              :   0
Energy             :     0.0000000000000000 Eh
Relativity type    :
Basis              : AO
                                X                 Y                 Z
Electronic contribution:     -2.149344947     -10.165966927      -5.959472638
Nuclear contribution   :      1.993901560      11.743022568       8.170860508
                        -----------------------------------------
Total Dipole Moment    :     -0.155443387       1.577055640       2.211387870
                        -----------------------------------------
Magnitude (a.u.)       :      2.720570428
Magnitude (Debye)      :      6.915140472

Rotational constants in cm-1:             0.020507             0.011408             0.009501
Rotational constants in MHz :           614.780154           342.006266           284.843385

                             ****ORCA TERMINATED NORMALLY****
TOTAL RUN TIME: 0 days 0 hours 4 minutes 13 seconds 266 msec
