                         Program Version 6.0.0  -   RELEASE  -
|  1> ! Engrad def2-TZVPPD wB97M-D3BJ
|  2> %pal nprocs 8 end%pal nprocs 64 end
|  3> %tddft
|  4>  Iroot 1 Nroots 3
|  5> sf true
|  6> end
|  7> *xyz 0 3
|  8> O   0.21573414 1.1253826 0.51384961
|  9> C   0.44353033 -0.27470135 0.47608859
| 10> C   0.56410856 -0.71998042 -0.87420549
| 11> H   -0.36704149 -0.85247577 0.99579505
| 12> H   1.22227608 -0.48375508 1.34971864
| 13> H   -0.05487779 -1.42410565 -1.25956799
| 14> H   1.50165909 -0.41107032 -1.34054453
| 15> *
| 16>
| 17>                          ****END OF INPUT****

CARTESIAN COORDINATES (ANGSTROEM)
---------------------------------
  O      0.215734    1.125383    0.513850
  C      0.443530   -0.274701    0.476089
  C      0.564109   -0.719980   -0.874205
  H     -0.367041   -0.852476    0.995795
  H      1.222276   -0.483755    1.349719
  H     -0.054878   -1.424106   -1.259568
  H      1.501659   -0.411070   -1.340545

 Total Charge           Charge          ....    0
 Multiplicity           Mult            ....    3
 Number of Electrons    NEL             ....   24
 Basis Dimension        Dim             ....  182

ORBITAL ENERGIES
----------------
                 SPIN UP ORBITALS
  NO   OCC          E(Eh)            E(eV)
   0   1.0000     -19.387603      -527.5635
   1   1.0000     -10.417506      -283.4748
   2   1.0000     -10.362527      -281.9787
   3   1.0000      -1.149915       -31.2908
   4   1.0000      -0.890474       -24.2310
   5   1.0000      -0.734274       -19.9806
   6   1.0000      -0.613326       -16.6895
   7   1.0000      -0.590227       -16.0609
   8   1.0000      -0.544709       -14.8223
   9   1.0000      -0.517500       -14.0819
  10   1.0000      -0.428043       -11.6476
  11   1.0000      -0.414976       -11.2921
  12   1.0000      -0.332177        -9.0390
  13   0.0000       0.039783         1.0825
  14   0.0000       0.060876         1.6565
  15   0.0000       0.077238         2.1018
  16   0.0000       0.087367         2.3774
  17   0.0000       0.114132         3.1057

                 SPIN DOWN ORBITALS
  NO   OCC          E(Eh)            E(eV)
   0   1.0000     -19.362618      -526.8836
   1   1.0000     -10.419241      -283.5220
   2   1.0000     -10.349799      -281.6324
   3   1.0000      -1.093310       -29.7505
   4   1.0000      -0.857417       -23.3315
   5   1.0000      -0.709762       -19.3136
   6   1.0000      -0.593792       -16.1579
   7   1.0000      -0.554042       -15.0762
   8   1.0000      -0.514718       -14.0062
   9   1.0000      -0.472669       -12.8620
  10   1.0000      -0.384770       -10.4701
  11   0.0000      -0.051717        -1.4073
  12   0.0000      -0.010163        -0.2766
  13   0.0000       0.038542         1.0488
  14   0.0000       0.060625         1.6497
  15   0.0000       0.076928         2.0933

----------------------------------------------------------------------------------------------------
          SPIN FLIP ABSORPTION SPECTRUM VIA TRANSITION ELECTRIC DIPOLE MOMENTS
----------------------------------------------------------------------------------------------------
     Transition      Energy     Energy  Wavelength fosc(D2)      D2        DX        DY        DZ
                      (eV)      (cm-1)    (nm)                 (au**2)    (au)      (au)      (au)
----------------------------------------------------------------------------------------------------
  1-3A  ->  2-3A    0.125335    1010.9  9892.2   0.000058832   0.01916   0.03694   0.10332   0.08438
  1-3A  ->  3-3A    0.934794    7539.6  1326.3   0.002446228   0.10681  -0.02233   0.32598   0.00699

Dispersion correction             ... done (  0.1 sec)

MULLIKEN ATOMIC CHARGES AND SPIN DENSITIES
------------------------------------------
   0 O :   -0.406873   -0.507476
   1 C :   -0.001663    0.011291
   2 C :   -0.491481    0.396025
   3 H :    0.177599   -0.034936
   4 H :    0.223057    0.060248
   5 H :    0.273967    0.043423
   6 H :    0.225394    0.031425
Sum of atomic charges       :    0.0000000

LOEWDIN ATOMIC CHARGES AND SPIN DENSITIES
-----------------------------------------
   0 O :   -0.047456   -0.498728
   1 C :   -0.313429    0.031746
   2 C :    0.348410    0.374979
   3 H :    0.016917   -0.035860
   4 H :    0.080625    0.032029
   5 H :   -0.076306    0.053537
   6 H :   -0.008761    0.042296

  Mayer bond orders larger than 0.100000
B(  0-O ,  1-C ) :   0.8117 B(  0-O ,  2-C ) :   0.4689 B(  1-C ,  2-C ) :   0.8265
B(  1-C ,  3-H ) :   1.0088 B(  1-C ,  4-H ) :   0.9299 B(  2-C ,  5-H ) :   0.9122
B(  2-C ,  6-H ) :   0.9731

Dispersion correction           -0.005527295
FINAL SINGLE POINT ENERGY      -153.738700678931

DIPOLE MOMENT
-------------

Method             : TDA/CIS
Type of density    : Electron Density
Level              : Relaxed density
State              :   1
Multiplicity       :   3
Irrep              :   0
Energy             :     0.0000000000000000 Eh
Relativity type    :
Basis              : AO
                                X                 Y                 Z
Electronic contribution:     -0.373195651       1.905565534       0.121686927
Nuclear contribution   :      0.634208663      -3.203381697      -0.503446368
                        -----------------------------------------
Total Dipole Moment    :      0.261013012      -1.297816163      -0.381759441
                        -----------------------------------------
Magnitude (a.u.)       :      1.377749925
Magnitude (Debye)      :      3.501962004

Rotational constants in cm-1:             1.333941             0.364323             0.315981
Rotational constants in MHz :         39990.547351         10922.117180          9472.877676

                             ****ORCA TERMINATED NORMALLY****
TOTAL RUN TIME: 0 days 0 hours 0 minutes 29 seconds 475 msec
