                         Program Version 6.0.0  -   RELEASE  -
|  1> ! Engrad def2-TZVPPD wB97M-D3BJ
|  2> %pal nprocs 8 end%pal nprocs 64 end
|  3> %tddft
|  4>  Iroot 2 Nroots 3
|  5> sf true
|  6> end
|  7> *xyz 0 3
|  8> O   0.77410268 0.12338683 -1.10443815
|  9> C   0.62025125 -0.32190941 0.16079159
| 10> C   -0.16999081 0.41445858 1.24379267
| 11> H   1.67571875 -0.50982428 0.55933562
| 12> H   0.2590687 -1.37258241 0.16723395
| 13> H   0.30304694 1.2410325 1.7453172
| 14> H   -1.20774929 0.28955352 1.57918679
| 15> *
| 16>
| 17>                          ****END OF INPUT****

CARTESIAN COORDINATES (ANGSTROEM)
---------------------------------
  O      0.774103    0.123387   -1.104438
  C      0.620251   -0.321909    0.160792
  C     -0.169991    0.414459    1.243793
  H      1.675719   -0.509824    0.559336
  H      0.259069   -1.372582    0.167234
  H      0.303047    1.241032    1.745317
  H     -1.207749    0.289554    1.579187

 Total Charge           Charge          ....    0
 Multiplicity           Mult            ....    3
 Number of Electrons    NEL             ....   24
 Basis Dimension        Dim             ....  182

ORBITAL ENERGIES
----------------
                 SPIN UP ORBITALS
  NO   OCC          E(Eh)            E(eV)
   0   1.0000     -19.389019      -527.6020
   1   1.0000     -10.424211      -283.6572
   2   1.0000     -10.374306      -282.2992
   3   1.0000      -1.172893       -31.9160
   4   1.0000      -0.871556       -23.7162
   5   1.0000      -0.737029       -20.0556
   6   1.0000      -0.611878       -16.6500
   7   1.0000      -0.577899       -15.7254
   8   1.0000      -0.563276       -15.3275
   9   1.0000      -0.519592       -14.1388
  10   1.0000      -0.422393       -11.4939
  11   1.0000      -0.410281       -11.1643
  12   1.0000      -0.336883        -9.1671
  13   0.0000       0.039450         1.0735
  14   0.0000       0.060085         1.6350
  15   0.0000       0.077376         2.1055
  16   0.0000       0.087968         2.3937
  17   0.0000       0.111523         3.0347

                 SPIN DOWN ORBITALS
  NO   OCC          E(Eh)            E(eV)
   0   1.0000     -19.365702      -526.9675
   1   1.0000     -10.425671      -283.6969
   2   1.0000     -10.361241      -281.9437
   3   1.0000      -1.121003       -30.5040
   4   1.0000      -0.838706       -22.8224
   5   1.0000      -0.709463       -19.3055
   6   1.0000      -0.573879       -15.6160
   7   1.0000      -0.554271       -15.0825
   8   1.0000      -0.537569       -14.6280
   9   1.0000      -0.479608       -13.0508
  10   1.0000      -0.382292       -10.4027
  11   0.0000      -0.055652        -1.5144
  12   0.0000      -0.009548        -0.2598
  13   0.0000       0.038593         1.0502
  14   0.0000       0.060249         1.6395
  15   0.0000       0.077207         2.1009

----------------------------------------------------------------------------------------------------
          SPIN FLIP ABSORPTION SPECTRUM VIA TRANSITION ELECTRIC DIPOLE MOMENTS
----------------------------------------------------------------------------------------------------
     Transition      Energy     Energy  Wavelength fosc(D2)      D2        DX        DY        DZ
                      (eV)      (cm-1)    (nm)                 (au**2)    (au)      (au)      (au)
----------------------------------------------------------------------------------------------------
  1-3A  ->  2-3A    0.192370    1551.6  6445.1   0.000012835   0.00272   0.03808  -0.01710  -0.03132
  1-3A  ->  3-3A    0.685708    5530.6  1808.1   0.000048125   0.00286   0.03095   0.00721  -0.04306

Dispersion correction             ... done (  0.2 sec)

MULLIKEN ATOMIC CHARGES AND SPIN DENSITIES
------------------------------------------
   0 O :   -0.343967   -0.840441
   1 C :    0.015612    0.011707
   2 C :   -0.539917    0.724438
   3 H :    0.177621    0.068744
   4 H :    0.186816   -0.005395
   5 H :    0.249777    0.025403
   6 H :    0.254059    0.015544
Sum of atomic charges       :    0.0000000

LOEWDIN ATOMIC CHARGES AND SPIN DENSITIES
-----------------------------------------
   0 O :    0.031281   -0.795755
   1 C :   -0.289790    0.024945
   2 C :    0.295729    0.611469
   3 H :    0.046755    0.033511
   4 H :    0.018658   -0.016625
   5 H :   -0.062526    0.071562
   6 H :   -0.040108    0.070894

  Mayer bond orders larger than 0.100000
B(  0-O ,  1-C ) :   0.9655 B(  0-O ,  2-C ) :   0.1640 B(  1-C ,  2-C ) :   0.7636
B(  1-C ,  3-H ) :   0.9673 B(  1-C ,  4-H ) :   0.9689 B(  2-C ,  5-H ) :   0.9429
B(  2-C ,  6-H ) :   0.9352

Dispersion correction           -0.005365154
FINAL SINGLE POINT ENERGY      -153.738301772916

DIPOLE MOMENT
-------------

Method             : TDA/CIS
Type of density    : Electron Density
Level              : Relaxed density
State              :   2
Multiplicity       :   3
Irrep              :   0
Energy             :     0.0000000000000000 Eh
Relativity type    :
Basis              : AO
                                X                 Y                 Z
Electronic contribution:      0.440480004       0.365910288      -2.529017287
Nuclear contribution   :     -0.632635684      -0.561808592       3.503430760
                        -----------------------------------------
Total Dipole Moment    :     -0.192155680      -0.195898304       0.974413473
                        -----------------------------------------
Magnitude (a.u.)       :      1.012314954
Magnitude (Debye)      :      2.573100127

Rotational constants in cm-1:             1.658436             0.305938             0.284724
Rotational constants in MHz :         49718.664635          9171.799119          8535.819443

                             ****ORCA TERMINATED NORMALLY****
TOTAL RUN TIME: 0 days 0 hours 0 minutes 26 seconds 668 msec
