                         Program Version 6.0.0  -   RELEASE  -
|  1> ! Opt wB97M-D3BJ def2-TZVPPD
|  2> %pal nprocs 8 end %pal nprocs 64 end
|  3> %geom
|  4> Constraints
|  5>     {A 2 1 0 58.18181818181818 C }
|  6> end
|  7> MaxIter 500
|  8> end
|  9> *xyz 0 1
| 10> O   -0.0007 0.8141 0.0
| 11> C   0.7509 -0.4065 0.0
| 12> C   -0.7502 -0.4076 0.0
| 13> H   1.2625 -0.6786 0.9136
| 14> H   1.2625 -0.6787 -0.9136
| 15> H   -1.2614 -0.6806 -0.9136
| 16> H   -1.2614 -0.6805 0.9136
| 17> *
| 18>
| 19>                          ****END OF INPUT****
 Total Charge           Charge          ....    0
 Multiplicity           Mult            ....    1
 Number of Electrons    NEL             ....   24
Dispersion correction           -0.005202947
FINAL SINGLE POINT ENERGY      -153.887432913571
Dispersion correction             ... done (  0.1 sec)
Dispersion correction           -0.005213965
FINAL SINGLE POINT ENERGY      -153.889300517699
Dispersion correction             ... done (  0.1 sec)
Dispersion correction           -0.005221806
FINAL SINGLE POINT ENERGY      -153.889552461604
Dispersion correction             ... done (  0.2 sec)
Dispersion correction           -0.005222107
FINAL SINGLE POINT ENERGY      -153.889566523680
Dispersion correction             ... done (  0.1 sec)
Dispersion correction           -0.005222478
FINAL SINGLE POINT ENERGY      -153.889573327392
Dispersion correction             ... done (  0.2 sec)
                    ***********************HURRAY********************

CARTESIAN COORDINATES (ANGSTROEM)
---------------------------------
  O     -0.009002    0.778255   -0.000041
  C      0.735744   -0.443555    0.000049
  C     -0.731370   -0.431928   -0.000043
  H      1.266422   -0.654674    0.918953
  H      1.266320   -0.654846   -0.918889
  H     -1.263005   -0.655804   -0.916938
  H     -1.262909   -0.655848    0.916909

 Multiplicity           Mult            ....    1
 Number of Electrons    NEL             ....   24
 Basis Dimension        Dim             ....  182

ORBITAL ENERGIES
----------------

  NO   OCC          E(Eh)            E(eV)
   0   2.0000     -19.352422      -526.6062
   1   2.0000     -10.399876      -282.9950
   2   2.0000     -10.399344      -282.9805
   3   2.0000      -1.211663       -32.9710
   4   2.0000      -0.802522       -21.8377
   5   2.0000      -0.758076       -20.6283
   6   2.0000      -0.631882       -17.1944
   7   2.0000      -0.595490       -16.2041
   8   2.0000      -0.507860       -13.8196
   9   2.0000      -0.491396       -13.3716
  10   2.0000      -0.420911       -11.4536
  11   2.0000      -0.385677       -10.4948
  12   0.0000       0.042719         1.1624
  13   0.0000       0.058757         1.5989
  14   0.0000       0.075498         2.0544
  15   0.0000       0.078043         2.1237
  16   0.0000       0.113689         3.0936

MULLIKEN ATOMIC CHARGES
-----------------------
   0 O :   -0.380590
   1 C :   -0.178018
   2 C :   -0.165767
   3 H :    0.180741
   4 H :    0.180710
   5 H :    0.181483
   6 H :    0.181442
Sum of atomic charges:   -0.0000000

LOEWDIN ATOMIC CHARGES
----------------------
   0 O :   -0.031170
   1 C :    0.009480
   2 C :   -0.019526
   3 H :    0.009235
   4 H :    0.009234
   5 H :    0.011374
   6 H :    0.011373

  Mayer bond orders larger than 0.100000
B(  0-O ,  1-C ) :   0.8323 B(  0-O ,  2-C ) :   0.8212 B(  1-C ,  2-C ) :   0.8172
B(  1-C ,  3-H ) :   1.0141 B(  1-C ,  4-H ) :   1.0142 B(  2-C ,  5-H ) :   1.0185
B(  2-C ,  6-H ) :   1.0186

Dispersion correction           -0.005222519
FINAL SINGLE POINT ENERGY      -153.889573492973

DIPOLE MOMENT
-------------

Method             : SCF
Type of density    : Electron Density
Multiplicity       :   1
Irrep              :   0
Energy             :  -153.8843509735125679 Eh
Relativity type    :
Basis              : AO
                                X                 Y                 Z
Electronic contribution:     -0.004074818       1.646916183      -0.000053939
Nuclear contribution   :      0.013508779      -2.387209710       0.000080071
                        -----------------------------------------
Total Dipole Moment    :      0.009433962      -0.740293527       0.000026132
                        -----------------------------------------
Magnitude (a.u.)       :      0.740353636
Magnitude (Debye)      :      1.881829391

Rotational constants in cm-1:             0.869204             0.739670             0.476332
Rotational constants in MHz :         26058.076817         22174.749919         14280.076308

                             ****ORCA TERMINATED NORMALLY****
TOTAL RUN TIME: 0 days 0 hours 1 minutes 20 seconds 435 msec
