                         Program Version 6.0.0  -   RELEASE  -
|  1> ! Engrad def2-TZVPPD wB97M-D3BJ
|  2> %pal nprocs 8 end%pal nprocs 64 end
|  3> %tddft
|  4>  Iroot 1 Nroots 3
|  5> sf true
|  6> end
|  7> *xyz 0 3
|  8> O   1.14844117 0.70152992 -0.58434139
|  9> C   0.05231598 0.02158407 -0.20262258
| 10> C   0.05306006 -0.57293405 1.11790153
| 11> H   0.14157238 -0.76120048 -0.95862933
| 12> H   -0.83570606 0.55970754 -0.52729807
| 13> H   0.79492809 -1.27842269 1.28816577
| 14> H   -0.89995559 -0.41024026 1.76822208
| 15> *
| 16>
| 17>                          ****END OF INPUT****

CARTESIAN COORDINATES (ANGSTROEM)
---------------------------------
  O      1.148441    0.701530   -0.584341
  C      0.052316    0.021584   -0.202623
  C      0.053060   -0.572934    1.117902
  H      0.141572   -0.761200   -0.958629
  H     -0.835706    0.559708   -0.527298
  H      0.794928   -1.278423    1.288166
  H     -0.899956   -0.410240    1.768222

 Total Charge           Charge          ....    0
 Multiplicity           Mult            ....    3
 Number of Electrons    NEL             ....   24
 Basis Dimension        Dim             ....  182

ORBITAL ENERGIES
----------------
                 SPIN UP ORBITALS
  NO   OCC          E(Eh)            E(eV)
   0   1.0000     -19.379607      -527.3459
   1   1.0000     -10.404957      -283.1333
   2   1.0000     -10.373999      -282.2909
   3   1.0000      -1.175977       -32.0000
   4   1.0000      -0.885506       -24.0958
   5   1.0000      -0.734387       -19.9837
   6   1.0000      -0.628394       -17.0995
   7   1.0000      -0.585824       -15.9411
   8   1.0000      -0.555655       -15.1201
   9   1.0000      -0.524166       -14.2633
  10   1.0000      -0.426161       -11.5964
  11   1.0000      -0.408393       -11.1129
  12   1.0000      -0.330637        -8.9971
  13   0.0000       0.039979         1.0879
  14   0.0000       0.061696         1.6788
  15   0.0000       0.075025         2.0415
  16   0.0000       0.088360         2.4044
  17   0.0000       0.113494         3.0883

                 SPIN DOWN ORBITALS
  NO   OCC          E(Eh)            E(eV)
   0   1.0000     -19.355803      -526.6982
   1   1.0000     -10.406018      -283.1621
   2   1.0000     -10.360670      -281.9282
   3   1.0000      -1.124709       -30.6049
   4   1.0000      -0.851139       -23.1607
   5   1.0000      -0.706012       -19.2116
   6   1.0000      -0.595325       -16.1996
   7   1.0000      -0.554301       -15.0833
   8   1.0000      -0.528385       -14.3781
   9   1.0000      -0.493818       -13.4375
  10   1.0000      -0.379946       -10.3389
  11   0.0000      -0.043854        -1.1933
  12   0.0000      -0.007301        -0.1987
  13   0.0000       0.040390         1.0991
  14   0.0000       0.061563         1.6752
  15   0.0000       0.075130         2.0444

----------------------------------------------------------------------------------------------------
          SPIN FLIP ABSORPTION SPECTRUM VIA TRANSITION ELECTRIC DIPOLE MOMENTS
----------------------------------------------------------------------------------------------------
     Transition      Energy     Energy  Wavelength fosc(D2)      D2        DX        DY        DZ
                      (eV)      (cm-1)    (nm)                 (au**2)    (au)      (au)      (au)
----------------------------------------------------------------------------------------------------
  1-3A  ->  2-3A    0.321124    2590.0  3860.9   0.000787660   0.10012   0.16780   0.10078  -0.24861
  1-3A  ->  3-3A    0.736739    5942.2  1682.9   0.002763797   0.15312  -0.21608  -0.23823   0.22288

Dispersion correction             ... done (  0.1 sec)

MULLIKEN ATOMIC CHARGES AND SPIN DENSITIES
------------------------------------------
   0 O :   -0.416093    0.523842
   1 C :   -0.044547    0.042954
   2 C :   -0.244974   -0.503979
   3 H :    0.143266    0.038813
   4 H :    0.261068    0.008941
   5 H :    0.143240   -0.081804
   6 H :    0.158041   -0.028766
Sum of atomic charges       :    0.0000000

LOEWDIN ATOMIC CHARGES AND SPIN DENSITIES
-----------------------------------------
   0 O :    0.019095    0.485313
   1 C :   -0.313967    0.003174
   2 C :    0.313766   -0.428432
   3 H :    0.041259    0.035153
   4 H :    0.030440    0.012151
   5 H :   -0.096917   -0.061947
   6 H :    0.006325   -0.045413

  Mayer bond orders larger than 0.100000
B(  0-O ,  1-C ) :   0.8989 B(  0-O ,  2-C ) :   0.1980 B(  0-O ,  3-H ) :   0.1254
B(  1-C ,  2-C ) :   0.9045 B(  1-C ,  3-H ) :   0.9101 B(  1-C ,  4-H ) :   0.9212
B(  2-C ,  5-H ) :   1.0368 B(  2-C ,  6-H ) :   1.0168

Dispersion correction           -0.005549831
FINAL SINGLE POINT ENERGY      -153.745704578212

DIPOLE MOMENT
-------------

Method             : TDA/CIS
Type of density    : Electron Density
Level              : Relaxed density
State              :   1
Multiplicity       :   3
Irrep              :   0
Energy             :     0.0000000000000000 Eh
Relativity type    :
Basis              : AO
                                X                 Y                 Z
Electronic contribution:      1.532086976       1.395391033      -0.950827754
Nuclear contribution   :     -2.343490789      -1.993511643       1.188699844
                        -----------------------------------------
Total Dipole Moment    :     -0.811403813      -0.598120610       0.237872090
                        -----------------------------------------
Magnitude (a.u.)       :      1.035715957
Magnitude (Debye)      :      2.632580748

Rotational constants in cm-1:             1.612388             0.347476             0.312836
Rotational constants in MHz :         48338.179951         10417.057521          9378.597487

                             ****ORCA TERMINATED NORMALLY****
TOTAL RUN TIME: 0 days 0 hours 0 minutes 26 seconds 249 msec
