                         Program Version 6.0.0  -   RELEASE  -
|  1> ! Opt wB97M-D3BJ def2-TZVPPD
|  2> %pal nprocs 8 end %pal nprocs 64 end
|  3> %geom
|  4> Constraints
|  5>     {A 2 1 0 131.8181818181818 C }
|  6> end
|  7> MaxIter 500
|  8> end
|  9> *xyz 0 1
| 10> O   -0.0007 0.8141 0.0
| 11> C   0.7509 -0.4065 0.0
| 12> C   -0.7502 -0.4076 0.0
| 13> H   1.2625 -0.6786 0.9136
| 14> H   1.2625 -0.6787 -0.9136
| 15> H   -1.2614 -0.6806 -0.9136
| 16> H   -1.2614 -0.6805 0.9136
| 17> *
| 18>
| 19>                          ****END OF INPUT****
 Total Charge           Charge          ....    0
 Multiplicity           Mult            ....    1
 Number of Electrons    NEL             ....   24
Dispersion correction           -0.005722516
FINAL SINGLE POINT ENERGY      -153.546175016932
Dispersion correction             ... done (  0.1 sec)
Dispersion correction           -0.005636753
FINAL SINGLE POINT ENERGY      -153.671692283739
Dispersion correction             ... done (  0.1 sec)
Dispersion correction           -0.005576337
FINAL SINGLE POINT ENERGY      -153.706076909605
Dispersion correction             ... done (  0.1 sec)
FINAL SINGLE POINT ENERGY      -153.719777443374
FINAL SINGLE POINT ENERGY      -153.725050749239
FINAL SINGLE POINT ENERGY      -153.729217823930
FINAL SINGLE POINT ENERGY      -153.733071774031
FINAL SINGLE POINT ENERGY      -153.734438845235
FINAL SINGLE POINT ENERGY      -153.735165316396
FINAL SINGLE POINT ENERGY      -153.736147453824
FINAL SINGLE POINT ENERGY      -153.918954483153
FINAL SINGLE POINT ENERGY      -153.926049828139
FINAL SINGLE POINT ENERGY      -153.927255906324
FINAL SINGLE POINT ENERGY      -153.929140745940
FINAL SINGLE POINT ENERGY      -153.929313758825
FINAL SINGLE POINT ENERGY      -153.929481283640
FINAL SINGLE POINT ENERGY      -153.929681379041
Dispersion correction             ... done (  0.1 sec)
Dispersion correction           -0.005519370
FINAL SINGLE POINT ENERGY      -153.929685381087
Dispersion correction             ... done (  0.1 sec)
Dispersion correction           -0.005519069
FINAL SINGLE POINT ENERGY      -153.929686328999
Dispersion correction             ... done (  0.1 sec)
                    ***********************HURRAY********************

CARTESIAN COORDINATES (ANGSTROEM)
---------------------------------
  O      0.722911    1.354903    0.011581
  C      0.550783    0.194149    0.261205
  C     -0.452379   -0.797053   -0.241694
  H      1.236574   -0.278940    0.998536
  H      0.088979   -1.642945   -0.665194
  H     -1.131115   -0.376983   -0.979222
  H     -1.013552   -1.171532    0.614788

 Multiplicity           Mult            ....    1
 Number of Electrons    NEL             ....   24
 Basis Dimension        Dim             ....  182

ORBITAL ENERGIES
----------------

  NO   OCC          E(Eh)            E(eV)
   0   2.0000     -19.341103      -526.2982
   1   2.0000     -10.443699      -284.1875
   2   2.0000     -10.361297      -281.9452
   3   2.0000      -1.189351       -32.3639
   4   2.0000      -0.890089       -24.2206
   5   2.0000      -0.699414       -19.0320
   6   2.0000      -0.597320       -16.2539
   7   2.0000      -0.563661       -15.3380
   8   2.0000      -0.557878       -15.1806
   9   2.0000      -0.509518       -13.8647
  10   2.0000      -0.478666       -13.0252
  11   2.0000      -0.366852        -9.9825
  12   0.0000       0.036154         0.9838
  13   0.0000       0.056466         1.5365
  14   0.0000       0.059238         1.6120
  15   0.0000       0.082381         2.2417
  16   0.0000       0.085700         2.3320

MULLIKEN ATOMIC CHARGES
-----------------------
   0 O :   -0.474331
   1 C :    0.232077
   2 C :   -0.693134
   3 H :    0.230102
   4 H :    0.233426
   5 H :    0.240569
   6 H :    0.231291
Sum of atomic charges:   -0.0000000

LOEWDIN ATOMIC CHARGES
----------------------
   0 O :    0.074464
   1 C :   -0.240756
   2 C :    0.171056
   3 H :    0.021958
   4 H :   -0.009355
   5 H :   -0.008604
   6 H :   -0.008764

  Mayer bond orders larger than 0.100000
B(  0-O ,  1-C ) :   1.7703 B(  1-C ,  2-C ) :   0.7496 B(  1-C ,  3-H ) :   0.9953
B(  2-C ,  4-H ) :   0.9912 B(  2-C ,  5-H ) :   0.9587 B(  2-C ,  6-H ) :   0.9903

Dispersion correction           -0.005519051
FINAL SINGLE POINT ENERGY      -153.929686649161

DIPOLE MOMENT
-------------

Method             : SCF
Type of density    : Electron Density
Multiplicity       :   1
Irrep              :   0
Energy             :  -153.9241675977092143 Eh
Relativity type    :
Basis              : AO
                                X                 Y                 Z
Electronic contribution:      1.461547060       3.054324399       0.179218805
Nuclear contribution   :     -1.777382387      -4.171201319      -0.062205893
                        -----------------------------------------
Total Dipole Moment    :     -0.315835327      -1.116876920       0.117012912
                        -----------------------------------------
Magnitude (a.u.)       :      1.166558198
Magnitude (Debye)      :      2.965155295

Rotational constants in cm-1:             2.127477             0.323440             0.296045
Rotational constants in MHz :         63780.153083          9696.477083          8875.190880

                             ****ORCA TERMINATED NORMALLY****
TOTAL RUN TIME: 0 days 0 hours 9 minutes 30 seconds 778 msec
