                         Program Version 6.0.0  -   RELEASE  -
|  1> ! Engrad def2-TZVPPD wB97M-D3BJ
|  2> %pal nprocs 8 end%pal nprocs 32 end
|  3>  %tddft nroots 2 Iroot 1
|  4> sf true
|  5> end
|  6> *xyz 0 3
|  7> O   2.69765302571724 1.12958152077685 -0.6130554669982
|  8> O   -0.49198081448009 0.82876991165132 -2.15882587904987
|  9> O   0.7658382741726 -2.88606168806431 -1.50505925439342
| 10> O   -2.62969019100667 -1.6528373528313 0.98538134363131
| 11> N   0.60189052548303 -2.04073793224343 0.60313191440926
| 12> N   -2.13081130133764 0.51948359846601 1.45386460617076
| 13> N   1.80206580547429 -0.91413514314392 -1.0075149991457
| 14> N   -1.64460810178582 -0.35737112145169 -0.61449420049065
| 15> C   1.39396395129728 0.15291300968231 1.11066396525547
| 16> C   -0.81511841952844 1.83166053671559 -0.03028383169085
| 17> C   0.75238975833429 -0.97216034891937 1.4548232022284
| 18> C   -1.48157889729475 1.68810969934735 1.11896721654994
| 19> C   1.65083723855256 1.27506432769523 2.06432927520675
| 20> C   -0.08585571012415 3.07572380599526 -0.42482599029261
| 21> C   2.02579786384711 0.20453282831515 -0.20897220354405
| 22> C   -0.94205885877046 0.77459673219145 -1.03656386418841
| 23> C   1.03516912588869 -2.01837083419749 -0.7057410634005
| 24> C   -2.17403988498794 -0.58466664991458 0.6332458951379
| 25> H   0.30847678114532 -1.10360802184486 2.4300244919893
| 26> H   -1.49887271375001 2.45786452586549 1.87517529563093
| 27> H   1.40664912463603 2.23383822161164 1.61653985898753
| 28> H   1.06490919859516 1.14756364423156 2.97244405569775
| 29> H   2.70493317846267 1.31248165129425 2.33490561896434
| 30> H   -0.5230683492283 3.50200949019716 -1.32556987176274
| 31> H   -0.12710005621746 3.8155952594396 0.37161040683436
| 32> H   0.95501086582059 2.85203373909554 -0.64980184119852
| 33> H   -0.03905615172583 -2.7813799211642 0.83176686475706
| 34> H   -2.55649741561678 0.40225830969144 2.35529799285264
| 35> H   2.11221657907186 -0.84736552039577 -1.96442474675277
| 36> H   -1.68486443064437 -1.13038627809227 -1.26243879139543
| 37> *
| 38>
| 39>                          ****END OF INPUT****

CARTESIAN COORDINATES (ANGSTROEM)
---------------------------------
  O      2.697653    1.129582   -0.613055
  O     -0.491981    0.828770   -2.158826
  O      0.765838   -2.886062   -1.505059
  O     -2.629690   -1.652837    0.985381
  N      0.601891   -2.040738    0.603132
  N     -2.130811    0.519484    1.453865
  N      1.802066   -0.914135   -1.007515
  N     -1.644608   -0.357371   -0.614494
  C      1.393964    0.152913    1.110664
  C     -0.815118    1.831661   -0.030284
  C      0.752390   -0.972160    1.454823
  C     -1.481579    1.688110    1.118967
  C      1.650837    1.275064    2.064329
  C     -0.085856    3.075724   -0.424826
  C      2.025798    0.204533   -0.208972
  C     -0.942059    0.774597   -1.036564
  C      1.035169   -2.018371   -0.705741
  C     -2.174040   -0.584667    0.633246
  H      0.308477   -1.103608    2.430024
  H     -1.498873    2.457865    1.875175
  H      1.406649    2.233838    1.616540
  H      1.064909    1.147564    2.972444
  H      2.704933    1.312482    2.334906
  H     -0.523068    3.502009   -1.325570
  H     -0.127100    3.815595    0.371610
  H      0.955011    2.852034   -0.649802
  H     -0.039056   -2.781380    0.831767
  H     -2.556497    0.402258    2.355298
  H      2.112217   -0.847366   -1.964425
  H     -1.684864   -1.130386   -1.262439

 Total Charge           Charge          ....    0
 Multiplicity           Mult            ....    3
 Number of Electrons    NEL             ....  132
 Basis Dimension        Dim             ....  882

ORBITAL ENERGIES
----------------
                 SPIN UP ORBITALS
  NO   OCC          E(Eh)            E(eV)
   0   1.0000     -19.331089      -526.0257
   1   1.0000     -19.330008      -525.9963
   2   1.0000     -19.324235      -525.8392
   3   1.0000     -19.317298      -525.6504
   4   1.0000     -14.592105      -397.0714
   5   1.0000     -14.584880      -396.8747
   6   1.0000     -14.572195      -396.5296
   7   1.0000     -14.547895      -395.8684
   8   1.0000     -10.516228      -286.1611
   9   1.0000     -10.508119      -285.9405
  10   1.0000     -10.480283      -285.1830
  11   1.0000     -10.455584      -284.5109
  12   1.0000     -10.434157      -283.9278
  13   1.0000     -10.407504      -283.2026
  14   1.0000     -10.396705      -282.9087
  15   1.0000     -10.383103      -282.5386
  16   1.0000     -10.370121      -282.1853
  17   1.0000     -10.352179      -281.6971
  18   1.0000      -1.229470       -33.4556
  19   1.0000      -1.223976       -33.3061
  20   1.0000      -1.195464       -32.5302
  21   1.0000      -1.187981       -32.3266
  22   1.0000      -1.125503       -30.6265
  23   1.0000      -1.123828       -30.5809
  24   1.0000      -1.072339       -29.1798
  25   1.0000      -1.059004       -28.8170
  26   1.0000      -0.975993       -26.5581
  27   1.0000      -0.958560       -26.0837
  28   1.0000      -0.857267       -23.3274
  29   1.0000      -0.848984       -23.1020
  30   1.0000      -0.813228       -22.1290
  31   1.0000      -0.808806       -22.0087
  32   1.0000      -0.796067       -21.6621
  33   1.0000      -0.787946       -21.4411
  34   1.0000      -0.700536       -19.0625
  35   1.0000      -0.697779       -18.9875
  36   1.0000      -0.694144       -18.8886
  37   1.0000      -0.690016       -18.7763
  38   1.0000      -0.646743       -17.5988
  39   1.0000      -0.643062       -17.4986
  40   1.0000      -0.628592       -17.1049
  41   1.0000      -0.601617       -16.3708
  42   1.0000      -0.599202       -16.3051
  43   1.0000      -0.592411       -16.1203
  44   1.0000      -0.577767       -15.7218
  45   1.0000      -0.569425       -15.4948
  46   1.0000      -0.568289       -15.4639
  47   1.0000      -0.553452       -15.0602
  48   1.0000      -0.551779       -15.0147
  49   1.0000      -0.545434       -14.8420
  50   1.0000      -0.531037       -14.4502
  51   1.0000      -0.525311       -14.2944
  52   1.0000      -0.517223       -14.0744
  53   1.0000      -0.514836       -14.0094
  54   1.0000      -0.509732       -13.8705
  55   1.0000      -0.500376       -13.6159
  56   1.0000      -0.491642       -13.3783
  57   1.0000      -0.481605       -13.1051
  58   1.0000      -0.421996       -11.4831
  59   1.0000      -0.418292       -11.3823
  60   1.0000      -0.407386       -11.0855
  61   1.0000      -0.400141       -10.8884
  62   1.0000      -0.390324       -10.6212
  63   1.0000      -0.386161       -10.5080
  64   1.0000      -0.384604       -10.4656
  65   1.0000      -0.348889        -9.4937
  66   1.0000      -0.207484        -5.6459
  67   0.0000       0.010443         0.2842
  68   0.0000       0.018706         0.5090
  69   0.0000       0.032501         0.8844
  70   0.0000       0.037765         1.0276
  71   0.0000       0.041659         1.1336

                 SPIN DOWN ORBITALS
  NO   OCC          E(Eh)            E(eV)
   0   1.0000     -19.329985      -525.9956
   1   1.0000     -19.329142      -525.9727
   2   1.0000     -19.324366      -525.8427
   3   1.0000     -19.311079      -525.4812
   4   1.0000     -14.586811      -396.9273
   5   1.0000     -14.584428      -396.8625
   6   1.0000     -14.572202      -396.5298
   7   1.0000     -14.547005      -395.8441
   8   1.0000     -10.516241      -286.1615
   9   1.0000     -10.508533      -285.9517
  10   1.0000     -10.480236      -285.1817
  11   1.0000     -10.455209      -284.5007
  12   1.0000     -10.433445      -283.9085
  13   1.0000     -10.398100      -282.9467
  14   1.0000     -10.386540      -282.6321
  15   1.0000     -10.383260      -282.5429
  16   1.0000     -10.370596      -282.1983
  17   1.0000     -10.352140      -281.6961
  18   1.0000      -1.228965       -33.4418
  19   1.0000      -1.219911       -33.1955
  20   1.0000      -1.195492       -32.5310
  21   1.0000      -1.178806       -32.0769
  22   1.0000      -1.124507       -30.5994
  23   1.0000      -1.113192       -30.2915
  24   1.0000      -1.072097       -29.1732
  25   1.0000      -1.053490       -28.6669
  26   1.0000      -0.961427       -26.1618
  27   1.0000      -0.949105       -25.8265
  28   1.0000      -0.848473       -23.0881
  29   1.0000      -0.846442       -23.0329
  30   1.0000      -0.812233       -22.1020
  31   1.0000      -0.799092       -21.7444
  32   1.0000      -0.794870       -21.6295
  33   1.0000      -0.781159       -21.2564
  34   1.0000      -0.697217       -18.9722
  35   1.0000      -0.694121       -18.8880
  36   1.0000      -0.688654       -18.7392
  37   1.0000      -0.682011       -18.5585
  38   1.0000      -0.644741       -17.5443
  39   1.0000      -0.633652       -17.2426
  40   1.0000      -0.622091       -16.9280
  41   1.0000      -0.599053       -16.3011
  42   1.0000      -0.591083       -16.0842
  43   1.0000      -0.584177       -15.8963
  44   1.0000      -0.569590       -15.4993
  45   1.0000      -0.564220       -15.3532
  46   1.0000      -0.562032       -15.2937
  47   1.0000      -0.552196       -15.0260
  48   1.0000      -0.544147       -14.8070
  49   1.0000      -0.538848       -14.6628
  50   1.0000      -0.522721       -14.2240
  51   1.0000      -0.518562       -14.1108
  52   1.0000      -0.512162       -13.9366
  53   1.0000      -0.508495       -13.8369
  54   1.0000      -0.501279       -13.6405
  55   1.0000      -0.495922       -13.4947
  56   1.0000      -0.478855       -13.0303
  57   1.0000      -0.446358       -12.1460
  58   1.0000      -0.421625       -11.4730
  59   1.0000      -0.413537       -11.2529
  60   1.0000      -0.404798       -11.0151
  61   1.0000      -0.388990       -10.5850
  62   1.0000      -0.377476       -10.2716
  63   1.0000      -0.376755       -10.2520
  64   1.0000      -0.347956        -9.4684
  65   0.0000      -0.106201        -2.8899
  66   0.0000       0.010006         0.2723
  67   0.0000       0.020053         0.5457
  68   0.0000       0.029627         0.8062
  69   0.0000       0.035273         0.9598

----------------------------------------------------------------------------------------------------
          SPIN FLIP ABSORPTION SPECTRUM VIA TRANSITION ELECTRIC DIPOLE MOMENTS
----------------------------------------------------------------------------------------------------
     Transition      Energy     Energy  Wavelength fosc(D2)      D2        DX        DY        DZ
                      (eV)      (cm-1)    (nm)                 (au**2)    (au)      (au)      (au)
----------------------------------------------------------------------------------------------------
  1-3A  ->  2-3A    4.203887   33906.6   294.9   0.001623135   0.01576   0.05390   0.08671  -0.07305

Dispersion correction             ... done (  0.1 sec)

MULLIKEN ATOMIC CHARGES AND SPIN DENSITIES
------------------------------------------
   0 O :   -0.687213    0.035702
   1 O :   -0.660768    0.001039
   2 O :   -0.646175    0.007683
   3 O :   -0.667580    0.000669
   4 N :   -0.042057    0.052777
   5 N :   -0.002965    0.001743
   6 N :    0.035259    0.001519
   7 N :    0.016300   -0.001549
   8 C :    1.234745    0.419657
   9 C :    0.486610    0.007837
  10 C :   -0.201370   -0.368065
  11 C :    0.208401    0.014891
  12 C :   -1.504163   -0.008057
  13 C :   -1.509453    0.006459
  14 C :    0.104018   -0.198875
  15 C :    0.556286   -0.025829
  16 C :    0.453374    0.018424
  17 C :    0.442990   -0.001604
  18 H :    0.214678    0.029666
  19 H :    0.159553   -0.003667
  20 H :    0.224019    0.001188
  21 H :    0.333825    0.007944
  22 H :    0.392722    0.005455
  23 H :    0.372290   -0.000084
  24 H :    0.333110    0.001325
  25 H :    0.231362   -0.004769
  26 H :    0.066589   -0.000272
  27 H :    0.018067   -0.001410
  28 H :    0.024463    0.002712
  29 H :    0.013081   -0.002509
Sum of atomic charges       :    0.0000000

LOEWDIN ATOMIC CHARGES AND SPIN DENSITIES
-----------------------------------------
   0 O :    0.083796    0.030216
   1 O :    0.105789    0.000247
   2 O :    0.091605    0.006194
   3 O :    0.073642    0.000038
   4 N :    0.289869    0.024945
   5 N :    0.283822    0.000794
   6 N :    0.342753   -0.000149
   7 N :    0.344562   -0.000435
   8 C :   -0.142279   -0.037369
   9 C :   -0.149117   -0.000793
  10 C :    0.048002   -0.032201
  11 C :    0.045911    0.001186
  12 C :    0.179983   -0.003557
  13 C :    0.180847    0.000015
  14 C :   -0.412052    0.010148
  15 C :   -0.393822   -0.000133
  16 C :   -0.477279    0.000706
  17 C :   -0.494551   -0.000356
  18 H :    0.040077   -0.002097
  19 H :    0.039431    0.000309
  20 H :   -0.021415   -0.000250
  21 H :   -0.003536    0.000318
  22 H :    0.006531   -0.000441
  23 H :    0.004216   -0.000016
  24 H :   -0.003942    0.000008
  25 H :   -0.017709    0.000104
  26 H :   -0.017989    0.002308
  27 H :   -0.019900    0.000068
  28 H :   -0.002133    0.000221
  29 H :   -0.005113   -0.000027

  Mayer bond orders larger than 0.100000
B(  0-O , 14-C ) :   1.4034 B(  1-O , 15-C ) :   1.4059 B(  2-O , 16-C ) :   1.5691
B(  3-O , 17-C ) :   1.5448 B(  4-N , 10-C ) :   0.8552 B(  4-N , 16-C ) :   0.9835
B(  4-N , 26-H ) :   1.1135 B(  5-N , 11-C ) :   0.9605 B(  5-N , 17-C ) :   1.0368
B(  5-N , 27-H ) :   1.1356 B(  6-N , 14-C ) :   1.0213 B(  6-N , 16-C ) :   0.9363
B(  6-N , 28-H ) :   1.1054 B(  7-N , 15-C ) :   0.9801 B(  7-N , 17-C ) :   0.9352
B(  7-N , 29-H ) :   1.1245 B(  8-C , 10-C ) :   1.0444 B(  8-C , 12-C ) :   0.2983
B(  8-C , 14-C ) :   0.5479 B(  8-C , 18-H ) :  -0.1151 B(  9-C , 11-C ) :   1.1116
B(  9-C , 13-C ) :   0.3642 B(  9-C , 15-C ) :   0.7463 B(  9-C , 24-H ) :  -0.1138
B(  9-C , 25-H ) :  -0.1103 B( 10-C , 12-C ) :  -0.1633 B( 10-C , 18-H ) :   1.1392
B( 11-C , 13-C ) :  -0.2484 B( 11-C , 19-H ) :   1.0996 B( 12-C , 20-H ) :   1.0182
B( 12-C , 21-H ) :   1.0210 B( 12-C , 22-H ) :   0.8622 B( 13-C , 23-H ) :   0.8583
B( 13-C , 24-H ) :   1.0692 B( 13-C , 25-H ) :   0.9957 B( 14-C , 15-C ) :   0.1023

Dispersion correction           -0.060802261
FINAL SINGLE POINT ENERGY      -908.923482449742

DIPOLE MOMENT
-------------

Method             : TDA/CIS
Type of density    : Electron Density
Level              : Relaxed density
State              :   1
Multiplicity       :   3
Irrep              :   0
Energy             :     0.0000000000000000 Eh
Relativity type    :
Basis              : AO
                                X                 Y                 Z
Electronic contribution:     -2.574027446     -10.348863396      -5.967629096
Nuclear contribution   :      1.776476525      11.220637532       8.459089058
                        -----------------------------------------
Total Dipole Moment    :     -0.797550921       0.871774136       2.491459962
                        -----------------------------------------
Magnitude (a.u.)       :      2.757435468
Magnitude (Debye)      :      7.008843957

Rotational constants in cm-1:             0.017745             0.016644             0.012967
Rotational constants in MHz :           531.977619           498.983288           388.737047

                             ****ORCA TERMINATED NORMALLY****
TOTAL RUN TIME: 0 days 0 hours 7 minutes 53 seconds 855 msec
