                         Program Version 6.0.0  -   RELEASE  -
|  1> ! Engrad def2-TZVPPD wB97M-D3BJ
|  2> %pal nprocs 8 end%pal nprocs 64 end
|  3> %tddft Nroots 2 Iroot 1
|  4> sf true
|  5> end
|  6> *xyz 0 3
|  7> O   2.37737587 -0.38987616 -1.07877476
|  8> O   0.221824 2.78932532 -2.20896182
|  9> O   0.18975384 -3.87038668 0.79147661
| 10> O   -2.06641268 -0.95375082 -1.55678223
| 11> N   0.42810805 -2.01648347 2.05016606
| 12> N   -1.2697414 -0.2297227 0.47883392
| 13> N   1.04676649 -1.99744825 -0.18166971
| 14> N   -0.74329265 0.89313658 -1.53409213
| 15> C   1.22933015 0.1683019 0.94173712
| 16> C   -0.75256788 2.7303043 0.11412485
| 17> C   0.63688814 -0.63186162 2.15764954
| 18> C   -0.15143505 0.29918469 1.15917542
| 19> C   2.26771204 1.23495142 1.23337988
| 20> C   -1.83037845 3.71108315 0.32597657
| 21> C   1.62985267 -0.72012575 -0.19117745
| 22> C   -0.24419584 2.17162102 -1.19837829
| 23> C   0.52043694 -2.72873885 0.86614521
| 24> C   -1.42676469 -0.16609414 -0.88296668
| 25> H   0.79825763 -0.25872218 3.17077679
| 26> H   -0.3543168 1.1562684 1.75975785
| 27> H   2.53705481 1.65109539 0.28292812
| 28> H   1.89730315 2.01830558 1.92709309
| 29> H   3.11734967 0.71192264 1.65757568
| 30> H   -2.75575423 3.20051376 0.61637158
| 31> H   -1.56771415 4.45872032 1.11524629
| 32> H   -1.98747487 4.21043361 -0.64001845
| 33> H   -0.11329655 -2.5175311 2.71929812
| 34> H   -1.69439986 -1.02421096 0.89003879
| 35> H   1.20324232 -2.60560842 -0.9712461
| 36> H   -0.77830271 0.71484677 -2.55364691
| 37> *
| 38>
| 39>                          ****END OF INPUT****

CARTESIAN COORDINATES (ANGSTROEM)
---------------------------------
  O      2.377376   -0.389876   -1.078775
  O      0.221824    2.789325   -2.208962
  O      0.189754   -3.870387    0.791477
  O     -2.066413   -0.953751   -1.556782
  N      0.428108   -2.016483    2.050166
  N     -1.269741   -0.229723    0.478834
  N      1.046766   -1.997448   -0.181670
  N     -0.743293    0.893137   -1.534092
  C      1.229330    0.168302    0.941737
  C     -0.752568    2.730304    0.114125
  C      0.636888   -0.631862    2.157650
  C     -0.151435    0.299185    1.159175
  C      2.267712    1.234951    1.233380
  C     -1.830378    3.711083    0.325977
  C      1.629853   -0.720126   -0.191177
  C     -0.244196    2.171621   -1.198378
  C      0.520437   -2.728739    0.866145
  C     -1.426765   -0.166094   -0.882967
  H      0.798258   -0.258722    3.170777
  H     -0.354317    1.156268    1.759758
  H      2.537055    1.651095    0.282928
  H      1.897303    2.018306    1.927093
  H      3.117350    0.711923    1.657576
  H     -2.755754    3.200514    0.616372
  H     -1.567714    4.458720    1.115246
  H     -1.987475    4.210434   -0.640018
  H     -0.113297   -2.517531    2.719298
  H     -1.694400   -1.024211    0.890039
  H      1.203242   -2.605608   -0.971246
  H     -0.778303    0.714847   -2.553647

 Total Charge           Charge          ....    0
 Multiplicity           Mult            ....    3
 Number of Electrons    NEL             ....  132
 Basis Dimension        Dim             ....  882

ORBITAL ENERGIES
----------------
                 SPIN UP ORBITALS
  NO   OCC          E(Eh)            E(eV)
   0   1.0000     -19.341948      -526.3212
   1   1.0000     -19.340446      -526.2803
   2   1.0000     -19.324687      -525.8515
   3   1.0000     -19.323078      -525.8077
   4   1.0000     -14.566792      -396.3826
   5   1.0000     -14.564613      -396.3233
   6   1.0000     -14.562933      -396.2776
   7   1.0000     -14.562317      -396.2608
   8   1.0000     -10.509570      -285.9799
   9   1.0000     -10.506327      -285.8917
  10   1.0000     -10.505136      -285.8593
  11   1.0000     -10.495659      -285.6014
  12   1.0000     -10.438898      -284.0568
  13   1.0000     -10.425039      -283.6797
  14   1.0000     -10.422720      -283.6166
  15   1.0000     -10.418568      -283.5036
  16   1.0000     -10.388058      -282.6734
  17   1.0000     -10.367916      -282.1253
  18   1.0000      -1.230665       -33.4881
  19   1.0000      -1.211743       -32.9732
  20   1.0000      -1.208215       -32.8772
  21   1.0000      -1.176046       -32.0019
  22   1.0000      -1.132255       -30.8102
  23   1.0000      -1.093218       -29.7480
  24   1.0000      -1.066937       -29.0328
  25   1.0000      -1.049337       -28.5539
  26   1.0000      -1.017492       -27.6874
  27   1.0000      -0.935150       -25.4467
  28   1.0000      -0.878964       -23.9178
  29   1.0000      -0.827876       -22.5276
  30   1.0000      -0.820090       -22.3158
  31   1.0000      -0.808776       -22.0079
  32   1.0000      -0.781209       -21.2578
  33   1.0000      -0.772834       -21.0299
  34   1.0000      -0.722883       -19.6706
  35   1.0000      -0.703508       -19.1434
  36   1.0000      -0.691799       -18.8248
  37   1.0000      -0.658564       -17.9204
  38   1.0000      -0.628355       -17.0984
  39   1.0000      -0.625062       -17.0088
  40   1.0000      -0.610923       -16.6241
  41   1.0000      -0.602668       -16.3994
  42   1.0000      -0.598850       -16.2955
  43   1.0000      -0.587881       -15.9971
  44   1.0000      -0.575973       -15.6730
  45   1.0000      -0.573772       -15.6131
  46   1.0000      -0.567180       -15.4337
  47   1.0000      -0.562809       -15.3148
  48   1.0000      -0.557930       -15.1821
  49   1.0000      -0.552101       -15.0234
  50   1.0000      -0.546946       -14.8831
  51   1.0000      -0.541299       -14.7295
  52   1.0000      -0.530118       -14.4252
  53   1.0000      -0.514272       -13.9941
  54   1.0000      -0.510672       -13.8961
  55   1.0000      -0.477402       -12.9908
  56   1.0000      -0.464323       -12.6349
  57   1.0000      -0.432684       -11.7739
  58   1.0000      -0.425013       -11.5652
  59   1.0000      -0.412953       -11.2370
  60   1.0000      -0.402103       -10.9418
  61   1.0000      -0.398707       -10.8494
  62   1.0000      -0.393871       -10.7178
  63   1.0000      -0.385735       -10.4964
  64   1.0000      -0.374579       -10.1928
  65   1.0000      -0.347698        -9.4614
  66   1.0000      -0.330322        -8.9885
  67   0.0000       0.010380         0.2825
  68   0.0000       0.022687         0.6174
  69   0.0000       0.034940         0.9508
  70   0.0000       0.035244         0.9590
  71   0.0000       0.041186         1.1207

                 SPIN DOWN ORBITALS
  NO   OCC          E(Eh)            E(eV)
   0   1.0000     -19.341955      -526.3214
   1   1.0000     -19.336779      -526.1805
   2   1.0000     -19.324468      -525.8455
   3   1.0000     -19.323030      -525.8064
   4   1.0000     -14.566791      -396.3825
   5   1.0000     -14.564600      -396.3229
   6   1.0000     -14.562201      -396.2576
   7   1.0000     -14.562191      -396.2574
   8   1.0000     -10.509595      -285.9806
   9   1.0000     -10.506896      -285.9072
  10   1.0000     -10.505133      -285.8592
  11   1.0000     -10.495654      -285.6013
  12   1.0000     -10.438519      -284.0465
  13   1.0000     -10.424435      -283.6633
  14   1.0000     -10.418606      -283.5047
  15   1.0000     -10.395991      -282.8893
  16   1.0000     -10.388385      -282.6823
  17   1.0000     -10.367836      -282.1232
  18   1.0000      -1.230584       -33.4859
  19   1.0000      -1.211129       -32.9565
  20   1.0000      -1.208114       -32.8745
  21   1.0000      -1.170210       -31.8430
  22   1.0000      -1.131831       -30.7987
  23   1.0000      -1.092725       -29.7346
  24   1.0000      -1.066695       -29.0262
  25   1.0000      -1.046525       -28.4774
  26   1.0000      -1.016926       -27.6720
  27   1.0000      -0.905620       -24.6432
  28   1.0000      -0.878532       -23.9061
  29   1.0000      -0.824512       -22.4361
  30   1.0000      -0.814503       -22.1638
  31   1.0000      -0.804227       -21.8841
  32   1.0000      -0.777772       -21.1643
  33   1.0000      -0.768426       -20.9099
  34   1.0000      -0.718686       -19.5564
  35   1.0000      -0.702171       -19.1070
  36   1.0000      -0.681685       -18.5496
  37   1.0000      -0.656660       -17.8686
  38   1.0000      -0.626112       -17.0374
  39   1.0000      -0.615798       -16.7567
  40   1.0000      -0.606986       -16.5169
  41   1.0000      -0.601353       -16.3636
  42   1.0000      -0.584145       -15.8954
  43   1.0000      -0.582309       -15.8454
  44   1.0000      -0.574058       -15.6209
  45   1.0000      -0.565711       -15.3938
  46   1.0000      -0.563881       -15.3440
  47   1.0000      -0.555178       -15.1072
  48   1.0000      -0.548468       -14.9246
  49   1.0000      -0.545849       -14.8533
  50   1.0000      -0.542164       -14.7530
  51   1.0000      -0.530984       -14.4488
  52   1.0000      -0.528624       -14.3846
  53   1.0000      -0.511606       -13.9215
  54   1.0000      -0.503909       -13.7121
  55   1.0000      -0.475865       -12.9489
  56   1.0000      -0.463678       -12.6173
  57   1.0000      -0.424970       -11.5640
  58   1.0000      -0.424237       -11.5441
  59   1.0000      -0.410355       -11.1663
  60   1.0000      -0.398126       -10.8336
  61   1.0000      -0.391216       -10.6455
  62   1.0000      -0.386046       -10.5048
  63   1.0000      -0.380480       -10.3534
  64   1.0000      -0.348751        -9.4900
  65   0.0000      -0.050265        -1.3678
  66   0.0000      -0.001013        -0.0276
  67   0.0000       0.011155         0.3035
  68   0.0000       0.026714         0.7269
  69   0.0000       0.035944         0.9781

----------------------------------------------------------------------------------------------------
          SPIN FLIP ABSORPTION SPECTRUM VIA TRANSITION ELECTRIC DIPOLE MOMENTS
----------------------------------------------------------------------------------------------------
     Transition      Energy     Energy  Wavelength fosc(D2)      D2        DX        DY        DZ
                      (eV)      (cm-1)    (nm)                 (au**2)    (au)      (au)      (au)
----------------------------------------------------------------------------------------------------
  1-3A  ->  2-3A    0.768435    6197.8  1613.5   0.000093313   0.00496   0.02853  -0.00684  -0.06400

Dispersion correction             ... done (  0.1 sec)

MULLIKEN ATOMIC CHARGES AND SPIN DENSITIES
------------------------------------------
   0 O :   -0.624247   -0.001203
   1 O :   -0.690869   -0.018034
   2 O :   -0.624450    0.000033
   3 O :   -0.668969   -0.002269
   4 N :   -0.158912    0.001169
   5 N :   -0.153718    0.017973
   6 N :    0.040922    0.000577
   7 N :   -0.030073   -0.009399
   8 C :    2.433647    0.095586
   9 C :    0.224811    0.032035
  10 C :   -0.573338   -0.035854
  11 C :   -1.039919   -0.170576
  12 C :   -1.839687    0.033995
  13 C :   -0.841793    0.125675
  14 C :    0.010679    0.002612
  15 C :    0.544812   -0.071599
  16 C :    0.432544    0.000039
  17 C :    0.535586    0.024997
  18 H :    0.238697   -0.003849
  19 H :    0.597037   -0.033837
  20 H :    0.360803    0.006301
  21 H :    0.350064   -0.021713
  22 H :    0.435965   -0.002510
  23 H :    0.236041   -0.005634
  24 H :    0.256656    0.024743
  25 H :    0.325206    0.000995
  26 H :    0.055040   -0.000066
  27 H :    0.079497   -0.000838
  28 H :    0.026920   -0.000313
  29 H :    0.061048    0.010965
Sum of atomic charges       :    0.0000000

LOEWDIN ATOMIC CHARGES AND SPIN DENSITIES
-----------------------------------------
   0 O :    0.124515   -0.000036
   1 O :    0.019909   -0.019035
   2 O :    0.110447   -0.000001
   3 O :    0.084767   -0.001681
   4 N :    0.271148   -0.000005
   5 N :    0.302555    0.000692
   6 N :    0.345575   -0.000001
   7 N :    0.291245   -0.001187
   8 C :   -0.244604   -0.000554
   9 C :    0.211076    0.045762
  10 C :    0.020329   -0.000088
  11 C :   -0.167076   -0.002767
  12 C :    0.220880   -0.003555
  13 C :    0.119663    0.000804
  14 C :   -0.345196   -0.000047
  15 C :   -0.401275   -0.013032
  16 C :   -0.498749   -0.000008
  17 C :   -0.462860   -0.000555
  18 H :    0.056258    0.000001
  19 H :   -0.008562   -0.002135
  20 H :   -0.018548   -0.000468
  21 H :    0.021578   -0.001894
  22 H :    0.005770   -0.000466
  23 H :    0.016029   -0.001891
  24 H :    0.014006   -0.002003
  25 H :   -0.003793    0.004256
  26 H :   -0.041541   -0.000004
  27 H :   -0.046421   -0.000057
  28 H :   -0.007407   -0.000007
  29 H :    0.010280   -0.000038

  Mayer bond orders larger than 0.100000
B(  0-O , 14-C ) :   1.4987 B(  1-O ,  9-C ) :   0.1328 B(  1-O , 15-C ) :   1.2499
B(  2-O , 16-C ) :   1.5979 B(  3-O , 17-C ) :   1.5095 B(  4-N , 10-C ) :   0.6427
B(  4-N , 11-C ) :  -0.1050 B(  4-N , 16-C ) :   1.0650 B(  4-N , 26-H ) :   1.1001
B(  5-N , 11-C ) :   0.4427 B(  5-N , 17-C ) :   0.9735 B(  5-N , 19-H ) :  -0.1843
B(  5-N , 27-H ) :   1.0588 B(  6-N , 14-C ) :   0.9604 B(  6-N , 16-C ) :   0.9713
B(  6-N , 28-H ) :   1.1104 B(  7-N ,  9-C ) :   0.1302 B(  7-N , 15-C ) :   0.8462
B(  7-N , 17-C ) :   0.9370 B(  7-N , 29-H ) :   1.0942 B(  8-C ,  9-C ) :  -0.1743
B(  8-C , 10-C ) :   0.4028 B(  8-C , 11-C ) :  -0.8719 B(  8-C , 14-C ) :   0.2970
B(  8-C , 19-H ) :  -0.1399 B(  8-C , 20-H ) :  -0.1002 B(  9-C , 11-C ) :   0.1747
B(  9-C , 13-C ) :   0.7170 B(  9-C , 15-C ) :   0.8837 B(  9-C , 19-H ) :  -0.2005
B( 10-C , 11-C ) :   0.6027 B( 10-C , 12-C ) :  -0.1508 B( 10-C , 16-C ) :  -0.1547
B( 10-C , 18-H ) :   1.1356 B( 11-C , 15-C ) :   0.1242 B( 11-C , 17-C ) :  -0.2136
B( 11-C , 19-H ) :   0.8957 B( 12-C , 20-H ) :   0.9840 B( 12-C , 21-H ) :   0.9650
B( 12-C , 22-H ) :   0.8031 B( 13-C , 23-H ) :   0.9375 B( 13-C , 24-H ) :   0.9597
B( 13-C , 25-H ) :   0.9178

Dispersion correction           -0.056170571
FINAL SINGLE POINT ENERGY      -908.675600204151

DIPOLE MOMENT
-------------

Method             : TDA/CIS
Type of density    : Electron Density
Level              : Relaxed density
State              :   1
Multiplicity       :   3
Irrep              :   0
Energy             :     0.0000000000000000 Eh
Relativity type    :
Basis              : AO
                                X                 Y                 Z
Electronic contribution:      0.073340624      -9.568088944      -6.240684467
Nuclear contribution   :     -0.918026185      10.983398988       8.809435513
                        -----------------------------------------
Total Dipole Moment    :     -0.844685561       1.415310044       2.568751047
                        -----------------------------------------
Magnitude (a.u.)       :      3.052061296
Magnitude (Debye)      :      7.757723299

Rotational constants in cm-1:             0.022926             0.011672             0.010884
Rotational constants in MHz :           687.300440           349.928027           326.308322

                             ****ORCA TERMINATED NORMALLY****
TOTAL RUN TIME: 0 days 0 hours 4 minutes 49 seconds 2 msec
