                         Program Version 6.0.0  -   RELEASE  -
|  1> ! Opt wB97M-D3BJ def2-TZVPPD
|  2> %pal nprocs 8 end %pal nprocs 64 end
|  3> %geom
|  4> Constraints
|  5>     {A 2 1 0 56.36363636363636 C }
|  6> end
|  7> MaxIter 500
|  8> end
|  9> *xyz 0 1
| 10> O   -0.0007 0.8141 0.0
| 11> C   0.7509 -0.4065 0.0
| 12> C   -0.7502 -0.4076 0.0
| 13> H   1.2625 -0.6786 0.9136
| 14> H   1.2625 -0.6787 -0.9136
| 15> H   -1.2614 -0.6806 -0.9136
| 16> H   -1.2614 -0.6805 0.9136
| 17> *
| 18>
| 19>                          ****END OF INPUT****
 Total Charge           Charge          ....    0
 Multiplicity           Mult            ....    1
 Number of Electrons    NEL             ....   24
Dispersion correction           -0.005192413
FINAL SINGLE POINT ENERGY      -153.886251776267
Dispersion correction             ... done (  0.1 sec)
Dispersion correction           -0.005204591
FINAL SINGLE POINT ENERGY      -153.888066608670
Dispersion correction             ... done (  0.1 sec)
Dispersion correction           -0.005214397
FINAL SINGLE POINT ENERGY      -153.888373574456
Dispersion correction             ... done (  0.2 sec)
Dispersion correction           -0.005215539
FINAL SINGLE POINT ENERGY      -153.888406104393
Dispersion correction             ... done (  0.2 sec)
Dispersion correction           -0.005216251
FINAL SINGLE POINT ENERGY      -153.888423924824
Dispersion correction             ... done (  0.2 sec)
                    ***********************HURRAY********************

CARTESIAN COORDINATES (ANGSTROEM)
---------------------------------
  O     -0.025363    0.770474   -0.000033
  C      0.745728   -0.454972    0.000011
  C     -0.733366   -0.417354    0.000001
  H      1.272527   -0.654266    0.922231
  H      1.272479   -0.654470   -0.922199
  H     -1.264904   -0.653869   -0.915518
  H     -1.264901   -0.653942    0.915508

 Multiplicity           Mult            ....    1
 Number of Electrons    NEL             ....   24
 Basis Dimension        Dim             ....  182

ORBITAL ENERGIES
----------------

  NO   OCC          E(Eh)            E(eV)
   0   2.0000     -19.352812      -526.6168
   1   2.0000     -10.400810      -283.0204
   2   2.0000     -10.399595      -282.9874
   3   2.0000      -1.214762       -33.0553
   4   2.0000      -0.800449       -21.7813
   5   2.0000      -0.759000       -20.6534
   6   2.0000      -0.632013       -17.1980
   7   2.0000      -0.595409       -16.2019
   8   2.0000      -0.511913       -13.9299
   9   2.0000      -0.493071       -13.4171
  10   2.0000      -0.416781       -11.3412
  11   2.0000      -0.385466       -10.4891
  12   0.0000       0.042731         1.1628
  13   0.0000       0.058745         1.5985
  14   0.0000       0.075503         2.0545
  15   0.0000       0.078101         2.1252
  16   0.0000       0.113271         3.0823

MULLIKEN ATOMIC CHARGES
-----------------------
   0 O :   -0.379084
   1 C :   -0.193651
   2 C :   -0.155529
   3 H :    0.181070
   4 H :    0.181069
   5 H :    0.183084
   6 H :    0.183042
Sum of atomic charges:    0.0000000

LOEWDIN ATOMIC CHARGES
----------------------
   0 O :   -0.030731
   1 C :    0.040647
   2 C :   -0.046581
   3 H :    0.005853
   4 H :    0.005855
   5 H :    0.012478
   6 H :    0.012478

  Mayer bond orders larger than 0.100000
B(  0-O ,  1-C ) :   0.8431 B(  0-O ,  2-C ) :   0.8106 B(  1-C ,  2-C ) :   0.8131
B(  1-C ,  3-H ) :   1.0097 B(  1-C ,  4-H ) :   1.0097 B(  2-C ,  5-H ) :   1.0230
B(  2-C ,  6-H ) :   1.0230

Dispersion correction           -0.005216199
FINAL SINGLE POINT ENERGY      -153.888424310963

DIPOLE MOMENT
-------------

Method             : SCF
Type of density    : Electron Density
Multiplicity       :   1
Irrep              :   0
Energy             :  -153.8832081121168471 Eh
Relativity type    :
Basis              : AO
                                X                 Y                 Z
Electronic contribution:     -0.008576390       1.654373973      -0.000028499
Nuclear contribution   :      0.034580294      -2.375981634       0.000050740
                        -----------------------------------------
Total Dipole Moment    :      0.026003904      -0.721607661       0.000022242
                        -----------------------------------------
Magnitude (a.u.)       :      0.722076049
Magnitude (Debye)      :      1.835371457

Rotational constants in cm-1:             0.884514             0.727399             0.475865
Rotational constants in MHz :         26517.059567         21806.887184         14266.075235

                             ****ORCA TERMINATED NORMALLY****
TOTAL RUN TIME: 0 days 0 hours 1 minutes 20 seconds 870 msec
