                         Program Version 6.0.0  -   RELEASE  -
|  1> ! opt def2-TZVPPD wB97M-D3BJ
|  2> %pal nprocs 24 end%geom Constraints
|  3> {B 9 8 2.8000000000000003 C}
|  4> {A 8 9 11 61.42857142857143 C}
|  5>  end
|  6>  end
|  7> *xyz 0 1
|  8> O   2.98579685529314 0.88758230159078 -0.86184571092411
|  9> O   -0.03983205397054 0.68929041702508 -2.10362336723772
| 10> O   0.93431434349854 -3.13274393337945 -0.68767288184107
| 11> O   -3.75829998830163 -0.84727300865116 -0.0472717177755
| 12> N   0.21184538946282 -1.54604804365365 0.7617588924445
| 13> N   -2.13631993928911 0.03188773433438 1.27350571071531
| 14> N   2.02598672506387 -1.14318467211666 -0.64531219127023
| 15> N   -1.91814233924584 0.03137116037665 -1.04498946748291
| 16> C   1.18097737274226 0.71693507080484 0.70173889017321
| 17> C   -0.20686880480777 1.27024627933494 0.21345042231937
| 18> C   0.41441080275909 -0.34173258966541 1.52336266615173
| 19> C   -0.82922175114212 0.58960593673968 1.44434972027296
| 20> C   1.92822011286806 1.69488653817281 1.5963734975385
| 21> C   -0.37809776891576 2.77134929626422 0.04819649358288
| 22> C   2.1403947470937 0.1972384729179 -0.35038567829864
| 23> C   -0.67361678962426 0.6214190571346 -1.0793014500539
| 24> C   1.04142578622994 -2.02697492875068 -0.21027082435993
| 25> C   -2.68467002550422 -0.30396816036989 0.07167054343891
| 26> H   0.80817443950001 -0.54572267081061 2.51895215321335
| 27> H   -0.83785272399001 1.27240685039143 2.28901317073582
| 28> H   2.31167340578204 2.52284411740894 1.00913016264629
| 29> H   1.28982602448342 2.08257620823614 2.38710022492991
| 30> H   2.77390820759972 1.19140411795486 2.06045858523949
| 31> H   -1.41857211141493 3.00964947214868 -0.16882755561625
| 32> H   -0.09065531563179 3.29799318042223 0.95389844358819
| 33> H   0.23426221611057 3.12492645074476 -0.77764887675592
| 34> H   -0.46772570547622 -2.21560145172536 1.0787081584806
| 35> H   -2.71769301149571 -0.17090724573546 2.06627440900372
| 36> H   2.60065167263658 -1.49057255715425 -1.3966820077142
| 37> H   -2.27169977231386 -0.32388339999036 -1.91951041514436
| 38> *
| 39>
| 40>                          ****END OF INPUT****
 Total Charge           Charge          ....    0
 Multiplicity           Mult            ....    1
 Number of Electrons    NEL             ....  132
Dispersion correction           -0.053594697
FINAL SINGLE POINT ENERGY      -908.721650909591
Dispersion correction             ... done (  0.1 sec)
Dispersion correction           -0.054609578
FINAL SINGLE POINT ENERGY      -908.749163026141
Dispersion correction             ... done (  0.0 sec)
Dispersion correction           -0.055553987
FINAL SINGLE POINT ENERGY      -908.768076653006
Dispersion correction             ... done (  0.1 sec)
FINAL SINGLE POINT ENERGY      -908.784105256411
FINAL SINGLE POINT ENERGY      -908.791512129828
FINAL SINGLE POINT ENERGY      -908.794209618216
FINAL SINGLE POINT ENERGY      -908.795823011152
FINAL SINGLE POINT ENERGY      -908.796841337203
FINAL SINGLE POINT ENERGY      -908.797539363727
FINAL SINGLE POINT ENERGY      -908.798021065678
FINAL SINGLE POINT ENERGY      -908.799890377820
FINAL SINGLE POINT ENERGY      -908.799899740279
FINAL SINGLE POINT ENERGY      -908.799906685419
FINAL SINGLE POINT ENERGY      -908.799912819833
FINAL SINGLE POINT ENERGY      -908.799915596019
FINAL SINGLE POINT ENERGY      -908.799919528252
FINAL SINGLE POINT ENERGY      -908.799922500794
Dispersion correction             ... done (  0.0 sec)
Dispersion correction           -0.059264549
FINAL SINGLE POINT ENERGY      -908.799924506675
Dispersion correction             ... done (  0.0 sec)
Dispersion correction           -0.059277537
FINAL SINGLE POINT ENERGY      -908.799926686983
Dispersion correction             ... done (  0.0 sec)
                    ***********************HURRAY********************

CARTESIAN COORDINATES (ANGSTROEM)
---------------------------------
  O      3.302146    0.546211   -0.629903
  O     -0.644096    1.229199   -2.426539
  O      0.465308   -2.966747   -0.792044
  O     -3.223640   -1.532546    0.012403
  N      0.272296   -1.531901    0.954149
  N     -2.077965    0.087597    1.132889
  N      1.737016   -1.085728   -0.792742
  N     -1.644066   -0.342418   -1.118155
  C      1.653540    0.463782    1.053224
  C     -0.657165    1.567586   -0.079145
  C      0.388936   -0.211376    1.528363
  C     -0.791408    0.749992    1.222581
  C      2.278565    1.516922    1.873508
  C     -0.634630    3.039236   -0.053340
  C      2.312969    0.010547   -0.167323
  C     -0.945346    0.845213   -1.316460
  C      0.786669   -1.934803   -0.248916
  C     -2.379315   -0.669472    0.021647
  H      0.434538   -0.341190    2.614369
  H     -0.841357    1.462677    2.044229
  H      3.146652    1.925298    1.367256
  H      1.575230    2.326702    2.091664
  H      2.583041    1.108377    2.842831
  H     -1.586548    3.426770    0.329233
  H      0.143858    3.409137    0.618697
  H     -0.476388    3.434405   -1.052202
  H     -0.442385   -2.147021    1.302573
  H     -2.582870   -0.189840    1.957362
  H      2.168063   -1.399713   -1.646352
  H     -1.869049   -0.881896   -1.939257

 Multiplicity           Mult            ....    1
 Number of Electrons    NEL             ....  132
 Basis Dimension        Dim             ....  882

ORBITAL ENERGIES
----------------

  NO   OCC          E(Eh)            E(eV)
   0   2.0000     -19.333947      -526.1034
   1   2.0000     -19.327305      -525.9227
   2   2.0000     -19.324888      -525.8569
   3   2.0000     -19.314139      -525.5644
   4   2.0000     -14.563889      -396.3036
   5   2.0000     -14.563275      -396.2868
   6   2.0000     -14.555675      -396.0800
   7   2.0000     -14.554891      -396.0587
   8   2.0000     -10.509185      -285.9695
   9   2.0000     -10.500069      -285.7214
  10   2.0000     -10.484616      -285.3009
  11   2.0000     -10.480108      -285.1782
  12   2.0000     -10.441693      -284.1329
  13   2.0000     -10.439671      -284.0779
  14   2.0000     -10.431259      -283.8490
  15   2.0000     -10.430239      -283.8212
  16   2.0000     -10.378229      -282.4060
  17   2.0000     -10.377727      -282.3923
  18   2.0000      -1.223868       -33.3031
  19   2.0000      -1.213406       -33.0184
  20   2.0000      -1.198304       -32.6075
  21   2.0000      -1.189661       -32.3723
  22   2.0000      -1.118498       -30.4359
  23   2.0000      -1.095172       -29.8011
  24   2.0000      -1.065070       -28.9820
  25   2.0000      -1.053738       -28.6737
  26   2.0000      -0.977776       -26.6066
  27   2.0000      -0.947432       -25.7809
  28   2.0000      -0.889916       -24.2158
  29   2.0000      -0.837182       -22.7809
  30   2.0000      -0.827176       -22.5086
  31   2.0000      -0.799468       -21.7546
  32   2.0000      -0.784965       -21.3600
  33   2.0000      -0.778558       -21.1857
  34   2.0000      -0.697901       -18.9908
  35   2.0000      -0.692964       -18.8565
  36   2.0000      -0.686405       -18.6780
  37   2.0000      -0.662634       -18.0312
  38   2.0000      -0.652260       -17.7489
  39   2.0000      -0.641704       -17.4617
  40   2.0000      -0.618711       -16.8360
  41   2.0000      -0.600410       -16.3380
  42   2.0000      -0.586796       -15.9675
  43   2.0000      -0.581124       -15.8132
  44   2.0000      -0.575975       -15.6731
  45   2.0000      -0.571204       -15.5433
  46   2.0000      -0.565207       -15.3801
  47   2.0000      -0.558603       -15.2004
  48   2.0000      -0.556828       -15.1520
  49   2.0000      -0.549788       -14.9605
  50   2.0000      -0.545801       -14.8520
  51   2.0000      -0.542971       -14.7750
  52   2.0000      -0.529850       -14.4179
  53   2.0000      -0.520429       -14.1616
  54   2.0000      -0.511045       -13.9063
  55   2.0000      -0.506301       -13.7772
  56   2.0000      -0.487576       -13.2676
  57   2.0000      -0.421582       -11.4718
  58   2.0000      -0.415443       -11.3048
  59   2.0000      -0.407705       -11.0942
  60   2.0000      -0.396583       -10.7916
  61   2.0000      -0.392391       -10.6775
  62   2.0000      -0.391494       -10.6531
  63   2.0000      -0.385481       -10.4895
  64   2.0000      -0.377376       -10.2689
  65   2.0000      -0.295135        -8.0310
  66   0.0000      -0.099586        -2.7099
  67   0.0000       0.005482         0.1492
  68   0.0000       0.028101         0.7647
  69   0.0000       0.031594         0.8597
  70   0.0000       0.038061         1.0357

MULLIKEN ATOMIC CHARGES
-----------------------
   0 O :   -0.680063
   1 O :   -0.656940
   2 O :   -0.662540
   3 O :   -0.628333
   4 N :   -0.271652
   5 N :   -0.347876
   6 N :    0.054221
   7 N :    0.066117
   8 C :    0.189371
   9 C :    0.526921
  10 C :    0.132123
  11 C :    0.561535
  12 C :   -1.318471
  13 C :   -1.467666
  14 C :    0.473191
  15 C :    0.095642
  16 C :    0.437871
  17 C :    0.308264
  18 H :    0.615814
  19 H :    0.478578
  20 H :    0.280646
  21 H :    0.288485
  22 H :    0.362055
  23 H :    0.355917
  24 H :    0.224559
  25 H :    0.372960
  26 H :    0.055173
  27 H :    0.102689
  28 H :    0.018457
  29 H :    0.032954
Sum of atomic charges:    0.0000000

LOEWDIN ATOMIC CHARGES
----------------------
   0 O :    0.091501
   1 O :    0.108360
   2 O :    0.090354
   3 O :    0.101269
   4 N :    0.281841
   5 N :    0.280555
   6 N :    0.327724
   7 N :    0.330048
   8 C :    0.002161
   9 C :    0.008205
  10 C :   -0.128745
  11 C :   -0.125546
  12 C :    0.189874
  13 C :    0.187809
  14 C :   -0.402990
  15 C :   -0.407100
  16 C :   -0.494779
  17 C :   -0.485727
  18 H :    0.050941
  19 H :    0.048255
  20 H :   -0.001561
  21 H :   -0.006741
  22 H :    0.014615
  23 H :    0.017502
  24 H :   -0.007300
  25 H :    0.003006
  26 H :   -0.029400
  27 H :   -0.029833
  28 H :   -0.009265
  29 H :   -0.005032

  Mayer bond orders larger than 0.100000
B(  0-O , 14-C ) :   1.2844 B(  1-O , 15-C ) :   1.4385 B(  2-O , 16-C ) :   1.5360
B(  3-O , 17-C ) :   1.5759 B(  4-N ,  8-C ) :   0.2541 B(  4-N , 10-C ) :   0.3893
B(  4-N , 16-C ) :   1.0416 B(  4-N , 26-H ) :   1.0979 B(  5-N ,  9-C ) :   0.3156
B(  5-N , 10-C ) :   0.1279 B(  5-N , 17-C ) :   1.1910 B(  5-N , 27-H ) :   1.0195
B(  6-N ,  8-C ) :  -0.1159 B(  6-N , 10-C ) :   0.1074 B(  6-N , 14-C ) :   1.0865
B(  6-N , 16-C ) :   0.9147 B(  6-N , 28-H ) :   1.1125 B(  7-N , 11-C ) :   0.1452
B(  7-N , 15-C ) :   0.9683 B(  7-N , 17-C ) :   0.9844 B(  7-N , 29-H ) :   1.0886
B(  8-C ,  9-C ) :   0.5981 B(  8-C , 10-C ) :   0.2430 B(  8-C , 12-C ) :   0.5487
B(  8-C , 14-C ) :   0.8203 B(  8-C , 15-C ) :   0.1485 B(  8-C , 16-C ) :   0.1144
B(  8-C , 18-H ) :  -0.1888 B(  8-C , 20-H ) :  -0.1206 B(  9-C , 10-C ) :   0.1456
B(  9-C , 13-C ) :   0.3472 B(  9-C , 14-C ) :   0.1570 B(  9-C , 15-C ) :   0.7148
B( 10-C , 11-C ) :   0.7164 B( 10-C , 16-C ) :  -0.1537 B( 10-C , 18-H ) :   0.7535
B( 11-C , 13-C ) :  -0.1792 B( 11-C , 15-C ) :  -0.2218 B( 11-C , 17-C ) :  -0.2220
B( 11-C , 19-H ) :   0.9240 B( 12-C , 20-H ) :   1.0894 B( 12-C , 21-H ) :   0.9003
B( 12-C , 22-H ) :   0.8473 B( 13-C , 23-H ) :   0.8608 B( 13-C , 24-H ) :   1.0855
B( 13-C , 25-H ) :   0.9078

Dispersion correction           -0.059277677
FINAL SINGLE POINT ENERGY      -908.799927689881

DIPOLE MOMENT
-------------

Method             : SCF
Type of density    : Electron Density
Multiplicity       :   1
Irrep              :   0
Energy             :  -908.7406500131016855 Eh
Relativity type    :
Basis              : AO
                                X                 Y                 Z
Electronic contribution:     -2.337353669     -10.092586518      -7.262556329
Nuclear contribution   :      2.064277818      11.641806159       9.924304219
                        -----------------------------------------
Total Dipole Moment    :     -0.273075851       1.549219641       2.661747890
                        -----------------------------------------
Magnitude (a.u.)       :      3.091852802
Magnitude (Debye)      :      7.858865268

Rotational constants in cm-1:             0.019472             0.014874             0.012448
Rotational constants in MHz :           583.766749           445.900414           373.194831

                             ****ORCA TERMINATED NORMALLY****
TOTAL RUN TIME: 0 days 2 hours 8 minutes 37 seconds 232 msec
