                         Program Version 6.0.0  -   RELEASE  -
|  1> ! Engrad def2-TZVPPD wB97M-D3BJ
|  2> %pal nprocs 8 end%pal nprocs 32 end
|  3>  %tddft nroots 2 Iroot 2
|  4> sf true
|  5> end
|  6> *xyz 0 3
|  7> O   2.50553927687577 -0.00692871784187 -1.46884814586126
|  8> O   -0.56123483123506 2.2746871228543 -1.9596877742677
|  9> O   0.44556552942462 -3.26709131900519 0.74825997282765
| 10> O   -2.41732500507458 -1.81263865293091 -1.31138551487241
| 11> N   0.54991162479252 -1.24560842580815 1.79099127191758
| 12> N   -2.00953911607521 -0.53586711564639 0.52087733114111
| 13> N   1.03084184024882 -1.43315144449084 -0.48138417192345
| 14> N   -1.43112640230062 0.2092890088604 -1.61167426307083
| 15> C   1.5634715298672 0.63529532186898 0.60498422533048
| 16> C   -0.84265269363798 1.56707735025718 0.28506465156096
| 17> C   0.3912830798223 0.13950570195869 1.6029115518182
| 18> C   -1.32729337996939 0.53446216086506 1.15505751358578
| 19> C   2.55781269854148 1.62158744100461 1.07254821315992
| 20> C   -0.60140635999157 2.93091461971694 0.80346208269505
| 21> C   1.76533872886953 -0.21934376912401 -0.52646125947324
| 22> C   -0.90398014957268 1.41123685327479 -1.18421661003111
| 23> C   0.66163188415159 -2.0810979130979 0.6836334727405
| 24> C   -1.97819689269754 -0.79936037107502 -0.82645321463231
| 25> H   0.49165664095342 0.66939124837317 2.54539670824089
| 26> H   -1.81513009928939 0.87270713974016 2.06202659458458
| 27> H   3.35379663352646 1.7139662138651 0.3387128822938
| 28> H   2.11464451576997 2.60926295862557 1.22754210809761
| 29> H   2.99373778566388 1.31811053306682 2.0300783158909
| 30> H   -1.55652358097583 3.46371571520168 0.85110097902991
| 31> H   -0.19046180682125 2.91025529079418 1.81149950912404
| 32> H   0.05468943951798 3.47994149078979 0.13642562170702
| 33> H   0.17215979003771 -1.71467448763345 2.59809210034531
| 34> H   -2.30864491983471 -1.32116307253221 1.0721857454649
| 35> H   1.19060932783673 -2.05129778932436 -1.26133352906441
| 36> H   -1.4465750884242 0.04181690739286 -2.60480636835944
| 37> *
| 38>
| 39>                          ****END OF INPUT****

CARTESIAN COORDINATES (ANGSTROEM)
---------------------------------
  O      2.505539   -0.006929   -1.468848
  O     -0.561235    2.274687   -1.959688
  O      0.445566   -3.267091    0.748260
  O     -2.417325   -1.812639   -1.311386
  N      0.549912   -1.245608    1.790991
  N     -2.009539   -0.535867    0.520877
  N      1.030842   -1.433151   -0.481384
  N     -1.431126    0.209289   -1.611674
  C      1.563472    0.635295    0.604984
  C     -0.842653    1.567077    0.285065
  C      0.391283    0.139506    1.602912
  C     -1.327293    0.534462    1.155058
  C      2.557813    1.621587    1.072548
  C     -0.601406    2.930915    0.803462
  C      1.765339   -0.219344   -0.526461
  C     -0.903980    1.411237   -1.184217
  C      0.661632   -2.081098    0.683633
  C     -1.978197   -0.799360   -0.826453
  H      0.491657    0.669391    2.545397
  H     -1.815130    0.872707    2.062027
  H      3.353797    1.713966    0.338713
  H      2.114645    2.609263    1.227542
  H      2.993738    1.318111    2.030078
  H     -1.556524    3.463716    0.851101
  H     -0.190462    2.910255    1.811500
  H      0.054689    3.479941    0.136426
  H      0.172160   -1.714674    2.598092
  H     -2.308645   -1.321163    1.072186
  H      1.190609   -2.051298   -1.261334
  H     -1.446575    0.041817   -2.604806

 Total Charge           Charge          ....    0
 Multiplicity           Mult            ....    3
 Number of Electrons    NEL             ....  132
 Basis Dimension        Dim             ....  882

ORBITAL ENERGIES
----------------
                 SPIN UP ORBITALS
  NO   OCC          E(Eh)            E(eV)
   0   1.0000     -19.338959      -526.2398
   1   1.0000     -19.322339      -525.7876
   2   1.0000     -19.320081      -525.7261
   3   1.0000     -19.318185      -525.6746
   4   1.0000     -14.566525      -396.3753
   5   1.0000     -14.564405      -396.3176
   6   1.0000     -14.560042      -396.1989
   7   1.0000     -14.557508      -396.1299
   8   1.0000     -10.504557      -285.8435
   9   1.0000     -10.503351      -285.8107
  10   1.0000     -10.481664      -285.2206
  11   1.0000     -10.472104      -284.9604
  12   1.0000     -10.454160      -284.4722
  13   1.0000     -10.446727      -284.2699
  14   1.0000     -10.428211      -283.7661
  15   1.0000     -10.399177      -282.9760
  16   1.0000     -10.376409      -282.3564
  17   1.0000     -10.368827      -282.1501
  18   1.0000      -1.221465       -33.2378
  19   1.0000      -1.216675       -33.1074
  20   1.0000      -1.198903       -32.6238
  21   1.0000      -1.192184       -32.4410
  22   1.0000      -1.117728       -30.4149
  23   1.0000      -1.101230       -29.9660
  24   1.0000      -1.064992       -28.9799
  25   1.0000      -1.057184       -28.7674
  26   1.0000      -0.979950       -26.6658
  27   1.0000      -0.949102       -25.8264
  28   1.0000      -0.872463       -23.7409
  29   1.0000      -0.839478       -22.8434
  30   1.0000      -0.827697       -22.5228
  31   1.0000      -0.802895       -21.8479
  32   1.0000      -0.786422       -21.3996
  33   1.0000      -0.777074       -21.1453
  34   1.0000      -0.698623       -19.0105
  35   1.0000      -0.695449       -18.9241
  36   1.0000      -0.689732       -18.7686
  37   1.0000      -0.661409       -17.9979
  38   1.0000      -0.652195       -17.7471
  39   1.0000      -0.642928       -17.4950
  40   1.0000      -0.621289       -16.9061
  41   1.0000      -0.599799       -16.3214
  42   1.0000      -0.593830       -16.1589
  43   1.0000      -0.584111       -15.8945
  44   1.0000      -0.579091       -15.7579
  45   1.0000      -0.568365       -15.4660
  46   1.0000      -0.563830       -15.3426
  47   1.0000      -0.562717       -15.3123
  48   1.0000      -0.556645       -15.1471
  49   1.0000      -0.549814       -14.9612
  50   1.0000      -0.547773       -14.9057
  51   1.0000      -0.537925       -14.6377
  52   1.0000      -0.529814       -14.4170
  53   1.0000      -0.523446       -14.2437
  54   1.0000      -0.512629       -13.9493
  55   1.0000      -0.502080       -13.6623
  56   1.0000      -0.493999       -13.4424
  57   1.0000      -0.426191       -11.5972
  58   1.0000      -0.422304       -11.4915
  59   1.0000      -0.410483       -11.1698
  60   1.0000      -0.407905       -11.0997
  61   1.0000      -0.395161       -10.7529
  62   1.0000      -0.393187       -10.6992
  63   1.0000      -0.386021       -10.5042
  64   1.0000      -0.382541       -10.4095
  65   1.0000      -0.341692        -9.2979
  66   1.0000      -0.289427        -7.8757
  67   0.0000       0.005304         0.1443
  68   0.0000       0.028403         0.7729
  69   0.0000       0.030971         0.8428
  70   0.0000       0.038352         1.0436
  71   0.0000       0.052696         1.4339

                 SPIN DOWN ORBITALS
  NO   OCC          E(Eh)            E(eV)
   0   1.0000     -19.333961      -526.1038
   1   1.0000     -19.319617      -525.7135
   2   1.0000     -19.318635      -525.6868
   3   1.0000     -19.318199      -525.6749
   4   1.0000     -14.566235      -396.3674
   5   1.0000     -14.563409      -396.2905
   6   1.0000     -14.559823      -396.1929
   7   1.0000     -14.556944      -396.1146
   8   1.0000     -10.504602      -285.8448
   9   1.0000     -10.503343      -285.8105
  10   1.0000     -10.482722      -285.2494
  11   1.0000     -10.472588      -284.9736
  12   1.0000     -10.451663      -284.4042
  13   1.0000     -10.446949      -284.2759
  14   1.0000     -10.416627      -283.4508
  15   1.0000     -10.388231      -282.6781
  16   1.0000     -10.376965      -282.3716
  17   1.0000     -10.369322      -282.1636
  18   1.0000      -1.219558       -33.1859
  19   1.0000      -1.215199       -33.0672
  20   1.0000      -1.193009       -32.4634
  21   1.0000      -1.187524       -32.3142
  22   1.0000      -1.114890       -30.3377
  23   1.0000      -1.098950       -29.9040
  24   1.0000      -1.063054       -28.9272
  25   1.0000      -1.055380       -28.7184
  26   1.0000      -0.965609       -26.2755
  27   1.0000      -0.932980       -25.3877
  28   1.0000      -0.867605       -23.6087
  29   1.0000      -0.834491       -22.7076
  30   1.0000      -0.819608       -22.3027
  31   1.0000      -0.796663       -21.6783
  32   1.0000      -0.784883       -21.3578
  33   1.0000      -0.775319       -21.0975
  34   1.0000      -0.692952       -18.8562
  35   1.0000      -0.688687       -18.7401
  36   1.0000      -0.683186       -18.5904
  37   1.0000      -0.653182       -17.7740
  38   1.0000      -0.644062       -17.5258
  39   1.0000      -0.637185       -17.3387
  40   1.0000      -0.618736       -16.8367
  41   1.0000      -0.594886       -16.1877
  42   1.0000      -0.587945       -15.9988
  43   1.0000      -0.576749       -15.6941
  44   1.0000      -0.566592       -15.4178
  45   1.0000      -0.561417       -15.2769
  46   1.0000      -0.560663       -15.2564
  47   1.0000      -0.556904       -15.1541
  48   1.0000      -0.552999       -15.0479
  49   1.0000      -0.543205       -14.7814
  50   1.0000      -0.537334       -14.6216
  51   1.0000      -0.529168       -14.3994
  52   1.0000      -0.521917       -14.2021
  53   1.0000      -0.514001       -13.9867
  54   1.0000      -0.500976       -13.6322
  55   1.0000      -0.496023       -13.4975
  56   1.0000      -0.487563       -13.2673
  57   1.0000      -0.420581       -11.4446
  58   1.0000      -0.417129       -11.3507
  59   1.0000      -0.407598       -11.0913
  60   1.0000      -0.396337       -10.7849
  61   1.0000      -0.388244       -10.5646
  62   1.0000      -0.381630       -10.3847
  63   1.0000      -0.380893       -10.3646
  64   1.0000      -0.358704        -9.7608
  65   0.0000      -0.069051        -1.8790
  66   0.0000      -0.021582        -0.5873
  67   0.0000       0.005065         0.1378
  68   0.0000       0.028314         0.7705
  69   0.0000       0.031077         0.8456

----------------------------------------------------------------------------------------------------
          SPIN FLIP ABSORPTION SPECTRUM VIA TRANSITION ELECTRIC DIPOLE MOMENTS
----------------------------------------------------------------------------------------------------
     Transition      Energy     Energy  Wavelength fosc(D2)      D2        DX        DY        DZ
                      (eV)      (cm-1)    (nm)                 (au**2)    (au)      (au)      (au)
----------------------------------------------------------------------------------------------------
  1-3A  ->  2-3A    0.542100    4372.3  2287.1   0.000167328   0.01260  -0.04037   0.08731  -0.05785

Dispersion correction             ... done (  0.0 sec)

MULLIKEN ATOMIC CHARGES AND SPIN DENSITIES
------------------------------------------
   0 O :   -0.671465   -0.053334
   1 O :   -0.691846    0.034755
   2 O :   -0.642288   -0.000525
   3 O :   -0.644236   -0.001636
   4 N :   -0.282455    0.005145
   5 N :   -0.205996    0.003733
   6 N :    0.080704    0.000745
   7 N :    0.031947    0.005555
   8 C :    1.037211    0.346189
   9 C :    0.805855    0.320865
  10 C :    0.119759   -0.209953
  11 C :    0.083067   -0.036842
  12 C :   -1.371124   -0.009129
  13 C :   -1.723709    0.007347
  14 C :   -0.236554   -0.345330
  15 C :    0.347023   -0.131761
  16 C :    0.261076    0.011817
  17 C :    0.462449    0.005780
  18 H :    0.528586   -0.007754
  19 H :    0.413336    0.000910
  20 H :    0.350622   -0.006995
  21 H :    0.287271    0.027019
  22 H :    0.339775    0.008080
  23 H :    0.422851    0.010208
  24 H :    0.361727    0.004714
  25 H :    0.320835    0.006957
  26 H :    0.099716    0.000218
  27 H :    0.050911   -0.000196
  28 H :    0.048709    0.001553
  29 H :    0.016244    0.001867
Sum of atomic charges       :   -0.0000000

LOEWDIN ATOMIC CHARGES AND SPIN DENSITIES
-----------------------------------------
   0 O :    0.100972   -0.049617
   1 O :    0.092050    0.033107
   2 O :    0.093776   -0.000084
   3 O :    0.098405   -0.001401
   4 N :    0.250884    0.002840
   5 N :    0.284745   -0.002051
   6 N :    0.325851   -0.003965
   7 N :    0.329922    0.006558
   8 C :    0.007075   -0.140181
   9 C :   -0.124484    0.132164
  10 C :   -0.020188    0.022814
  11 C :   -0.044180    0.011915
  12 C :    0.193995   -0.022685
  13 C :    0.174749    0.017395
  14 C :   -0.412577   -0.030183
  15 C :   -0.416134    0.019170
  16 C :   -0.486635    0.000681
  17 C :   -0.485149   -0.000406
  18 H :    0.029348    0.002900
  19 H :    0.049736    0.002111
  20 H :    0.003621    0.000396
  21 H :   -0.004502   -0.005566
  22 H :    0.015134   -0.006217
  23 H :    0.017298    0.007644
  24 H :   -0.005772    0.001899
  25 H :   -0.000256    0.000599
  26 H :   -0.026534    0.000112
  27 H :   -0.023787   -0.000209
  28 H :   -0.009392   -0.000352
  29 H :   -0.007970    0.000612

  Mayer bond orders larger than 0.100000
B(  0-O , 14-C ) :   1.3561 B(  1-O , 15-C ) :   1.2940 B(  2-O , 16-C ) :   1.5187
B(  3-O , 17-C ) :   1.5485 B(  4-N ,  8-C ) :   0.2427 B(  4-N , 16-C ) :   1.2064
B(  4-N , 26-H ) :   1.0128 B(  5-N ,  9-C ) :   0.2083 B(  5-N , 11-C ) :   0.4996
B(  5-N , 17-C ) :   1.0189 B(  5-N , 27-H ) :   1.1011 B(  6-N , 10-C ) :   0.1017
B(  6-N , 14-C ) :   0.9435 B(  6-N , 16-C ) :   0.9990 B(  6-N , 28-H ) :   1.0633
B(  7-N , 15-C ) :   0.9980 B(  7-N , 17-C ) :   0.9313 B(  7-N , 29-H ) :   1.1217
B(  8-C ,  9-C ) :   0.2174 B(  8-C , 10-C ) :   0.2913 B(  8-C , 12-C ) :   0.4060
B(  8-C , 14-C ) :   0.6538 B(  9-C , 10-C ) :   0.1370 B(  9-C , 11-C ) :   0.4904
B(  9-C , 13-C ) :   0.1849 B(  9-C , 15-C ) :   0.7218 B(  9-C , 19-H ) :  -0.1608
B(  9-C , 24-H ) :  -0.1260 B(  9-C , 25-H ) :  -0.1596 B( 10-C , 11-C ) :   0.5048
B( 10-C , 12-C ) :  -0.1315 B( 10-C , 14-C ) :  -0.1407 B( 10-C , 16-C ) :  -0.3020
B( 10-C , 18-H ) :   0.8070 B( 11-C , 13-C ) :  -0.1804 B( 11-C , 17-C ) :  -0.1235
B( 11-C , 19-H ) :   0.9450 B( 12-C , 20-H ) :   0.9270 B( 12-C , 21-H ) :   0.9604
B( 12-C , 22-H ) :   0.8861 B( 13-C , 23-H ) :   0.7495 B( 13-C , 24-H ) :   0.9894
B( 13-C , 25-H ) :   1.0722 B( 14-C , 16-C ) :  -0.1157

Dispersion correction           -0.059841091
FINAL SINGLE POINT ENERGY      -908.766329412735

DIPOLE MOMENT
-------------

Method             : TDA/CIS
Type of density    : Electron Density
Level              : Relaxed density
State              :   2
Multiplicity       :   3
Irrep              :   0
Energy             :     0.0000000000000000 Eh
Relativity type    :
Basis              : AO
                                X                 Y                 Z
Electronic contribution:     -3.351644410     -10.096907530      -7.394108616
Nuclear contribution   :      3.212643216      11.464493064      10.342506223
                        -----------------------------------------
Total Dipole Moment    :     -0.139001194       1.367585534       2.948397607
                        -----------------------------------------
Magnitude (a.u.)       :      3.253100055
Magnitude (Debye)      :      8.268723215

Rotational constants in cm-1:             0.017777             0.016816             0.012922
Rotational constants in MHz :           532.927539           504.137510           387.394823

                             ****ORCA TERMINATED NORMALLY****
TOTAL RUN TIME: 0 days 0 hours 21 minutes 6 seconds 561 msec
