                         Program Version 6.0.0  -   RELEASE  -
|  1> ! opt def2-TZVPPD wB97M-D3BJ
|  2> %pal nprocs 24 end%geom Constraints
|  3> {B 9 8 2.8000000000000003 C}
|  4> {A 8 9 11 34.0 C}
|  5>  end
|  6>  end
|  7> *xyz 0 1
|  8> O   2.98579685529314 0.88758230159078 -0.86184571092411
|  9> O   -0.03983205397054 0.68929041702508 -2.10362336723772
| 10> O   0.93431434349854 -3.13274393337945 -0.68767288184107
| 11> O   -3.75829998830163 -0.84727300865116 -0.0472717177755
| 12> N   0.21184538946282 -1.54604804365365 0.7617588924445
| 13> N   -2.13631993928911 0.03188773433438 1.27350571071531
| 14> N   2.02598672506387 -1.14318467211666 -0.64531219127023
| 15> N   -1.91814233924584 0.03137116037665 -1.04498946748291
| 16> C   1.18097737274226 0.71693507080484 0.70173889017321
| 17> C   -0.20686880480777 1.27024627933494 0.21345042231937
| 18> C   0.41441080275909 -0.34173258966541 1.52336266615173
| 19> C   -0.82922175114212 0.58960593673968 1.44434972027296
| 20> C   1.92822011286806 1.69488653817281 1.5963734975385
| 21> C   -0.37809776891576 2.77134929626422 0.04819649358288
| 22> C   2.1403947470937 0.1972384729179 -0.35038567829864
| 23> C   -0.67361678962426 0.6214190571346 -1.0793014500539
| 24> C   1.04142578622994 -2.02697492875068 -0.21027082435993
| 25> C   -2.68467002550422 -0.30396816036989 0.07167054343891
| 26> H   0.80817443950001 -0.54572267081061 2.51895215321335
| 27> H   -0.83785272399001 1.27240685039143 2.28901317073582
| 28> H   2.31167340578204 2.52284411740894 1.00913016264629
| 29> H   1.28982602448342 2.08257620823614 2.38710022492991
| 30> H   2.77390820759972 1.19140411795486 2.06045858523949
| 31> H   -1.41857211141493 3.00964947214868 -0.16882755561625
| 32> H   -0.09065531563179 3.29799318042223 0.95389844358819
| 33> H   0.23426221611057 3.12492645074476 -0.77764887675592
| 34> H   -0.46772570547622 -2.21560145172536 1.0787081584806
| 35> H   -2.71769301149571 -0.17090724573546 2.06627440900372
| 36> H   2.60065167263658 -1.49057255715425 -1.3966820077142
| 37> H   -2.27169977231386 -0.32388339999036 -1.91951041514436
| 38> *
| 39>
| 40>                          ****END OF INPUT****
 Total Charge           Charge          ....    0
 Multiplicity           Mult            ....    1
 Number of Electrons    NEL             ....  132
Dispersion correction           -0.055068070
FINAL SINGLE POINT ENERGY      -908.434152822559
Dispersion correction             ... done (  0.1 sec)
Dispersion correction           -0.054807102
FINAL SINGLE POINT ENERGY      -908.528019782469
Dispersion correction             ... done (  0.0 sec)
Dispersion correction           -0.054596704
FINAL SINGLE POINT ENERGY      -908.586072121962
Dispersion correction             ... done (  0.0 sec)
FINAL SINGLE POINT ENERGY      -908.637910241420
FINAL SINGLE POINT ENERGY      -908.678677058337
FINAL SINGLE POINT ENERGY      -908.699784480962
FINAL SINGLE POINT ENERGY      -908.711273417650
FINAL SINGLE POINT ENERGY      -908.718269788423
FINAL SINGLE POINT ENERGY      -908.724342805501
FINAL SINGLE POINT ENERGY      -908.728106854821
FINAL SINGLE POINT ENERGY      -908.751317442444
FINAL SINGLE POINT ENERGY      -908.751336509969
FINAL SINGLE POINT ENERGY      -908.751346861585
FINAL SINGLE POINT ENERGY      -908.751355387615
FINAL SINGLE POINT ENERGY      -908.751361044594
FINAL SINGLE POINT ENERGY      -908.751365579912
FINAL SINGLE POINT ENERGY      -908.751368585559
Dispersion correction             ... done (  0.0 sec)
Dispersion correction           -0.059107896
FINAL SINGLE POINT ENERGY      -908.751370925770
Dispersion correction             ... done (  0.0 sec)
Dispersion correction           -0.059109068
FINAL SINGLE POINT ENERGY      -908.751371978755
Dispersion correction             ... done (  0.0 sec)
                    ***********************HURRAY********************

CARTESIAN COORDINATES (ANGSTROEM)
---------------------------------
  O      2.188785   -0.030233   -1.186490
  O     -0.279331    2.629605   -2.363924
  O      0.336007   -3.743972    0.587667
  O     -2.288039   -1.170458   -1.227106
  N      0.390872   -1.889244    1.894388
  N     -1.417034   -0.139729    0.580086
  N      1.089800   -1.801838   -0.322119
  N     -0.913964    0.574225   -1.629127
  C      1.169870    0.290526    0.936800
  C     -0.158574    2.487262   -0.181051
  C      0.568891   -0.489878    2.058866
  C     -0.355088    0.458005    1.311068
  C      2.141487    1.384256    1.291944
  C     -1.253646    3.304457    0.374636
  C      1.531123   -0.492517   -0.288191
  C     -0.482904    1.865694   -1.428341
  C      0.576665   -2.568758    0.723556
  C     -1.581229   -0.299289   -0.775919
  H      0.861608   -0.204201    3.057693
  H     -0.575505    1.375674    1.833762
  H      2.372168    1.983978    0.422057
  H      1.720710    2.032415    2.057534
  H      3.056021    0.934759    1.678103
  H     -2.242240    2.836938    0.371781
  H     -1.024411    3.742418    1.342234
  H     -1.301961    4.124851   -0.355299
  H     -0.016589   -2.433404    2.633134
  H     -1.922497   -0.864251    1.065538
  H      1.307896   -2.324838   -1.155742
  H     -1.046291    0.342547   -2.602935

 Multiplicity           Mult            ....    1
 Number of Electrons    NEL             ....  132
 Basis Dimension        Dim             ....  882

ORBITAL ENERGIES
----------------

  NO   OCC          E(Eh)            E(eV)
   0   2.0000     -19.335844      -526.1551
   1   2.0000     -19.332716      -526.0699
   2   2.0000     -19.323988      -525.8325
   3   2.0000     -19.322787      -525.7998
   4   2.0000     -14.570027      -396.4706
   5   2.0000     -14.569059      -396.4443
   6   2.0000     -14.567638      -396.4056
   7   2.0000     -14.567538      -396.4029
   8   2.0000     -10.512118      -286.0493
   9   2.0000     -10.510472      -286.0045
  10   2.0000     -10.491224      -285.4807
  11   2.0000     -10.478228      -285.1271
  12   2.0000     -10.442138      -284.1450
  13   2.0000     -10.441784      -284.1354
  14   2.0000     -10.419950      -283.5412
  15   2.0000     -10.415119      -283.4098
  16   2.0000     -10.379235      -282.4333
  17   2.0000     -10.357795      -281.8499
  18   2.0000      -1.227878       -33.4123
  19   2.0000      -1.221251       -33.2319
  20   2.0000      -1.203588       -32.7513
  21   2.0000      -1.197945       -32.5978
  22   2.0000      -1.131220       -30.7821
  23   2.0000      -1.093972       -29.7685
  24   2.0000      -1.074611       -29.2416
  25   2.0000      -1.065057       -28.9817
  26   2.0000      -1.010782       -27.5048
  27   2.0000      -0.936884       -25.4939
  28   2.0000      -0.876997       -23.8643
  29   2.0000      -0.823791       -22.4165
  30   2.0000      -0.816406       -22.2155
  31   2.0000      -0.809144       -22.0179
  32   2.0000      -0.792201       -21.5569
  33   2.0000      -0.777604       -21.1597
  34   2.0000      -0.726054       -19.7569
  35   2.0000      -0.701844       -19.0981
  36   2.0000      -0.694243       -18.8913
  37   2.0000      -0.668108       -18.1801
  38   2.0000      -0.639366       -17.3980
  39   2.0000      -0.631882       -17.1944
  40   2.0000      -0.615828       -16.7575
  41   2.0000      -0.608490       -16.5579
  42   2.0000      -0.593099       -16.1390
  43   2.0000      -0.588964       -16.0265
  44   2.0000      -0.578343       -15.7375
  45   2.0000      -0.567129       -15.4324
  46   2.0000      -0.562567       -15.3082
  47   2.0000      -0.560849       -15.2615
  48   2.0000      -0.554375       -15.0853
  49   2.0000      -0.551795       -15.0151
  50   2.0000      -0.543117       -14.7790
  51   2.0000      -0.540825       -14.7166
  52   2.0000      -0.532033       -14.4774
  53   2.0000      -0.506681       -13.7875
  54   2.0000      -0.504050       -13.7159
  55   2.0000      -0.481695       -13.1076
  56   2.0000      -0.441838       -12.0230
  57   2.0000      -0.424948       -11.5634
  58   2.0000      -0.419545       -11.4164
  59   2.0000      -0.409625       -11.1465
  60   2.0000      -0.400471       -10.8974
  61   2.0000      -0.395206       -10.7541
  62   2.0000      -0.389611       -10.6019
  63   2.0000      -0.389103       -10.5880
  64   2.0000      -0.375204       -10.2098
  65   2.0000      -0.337517        -9.1843
  66   0.0000      -0.020428        -0.5559
  67   0.0000       0.008804         0.2396
  68   0.0000       0.028870         0.7856
  69   0.0000       0.034135         0.9289
  70   0.0000       0.036611         0.9962

MULLIKEN ATOMIC CHARGES
-----------------------
   0 O :   -0.634830
   1 O :   -0.648050
   2 O :   -0.646263
   3 O :   -0.661349
   4 N :   -0.141917
   5 N :   -0.088045
   6 N :    0.010989
   7 N :    0.074833
   8 C :    2.066881
   9 C :    0.207578
  10 C :   -0.288750
  11 C :   -0.909722
  12 C :   -1.654102
  13 C :   -1.234933
  14 C :   -0.061062
  15 C :    0.597737
  16 C :    0.455362
  17 C :    0.559641
  18 H :    0.254289
  19 H :    0.406235
  20 H :    0.336957
  21 H :    0.328558
  22 H :    0.469619
  23 H :    0.321883
  24 H :    0.305655
  25 H :    0.385623
  26 H :    0.032292
  27 H :    0.097862
  28 H :    0.036343
  29 H :    0.020686
Sum of atomic charges:    0.0000000

LOEWDIN ATOMIC CHARGES
----------------------
   0 O :    0.124266
   1 O :    0.098052
   2 O :    0.097596
   3 O :    0.096692
   4 N :    0.289585
   5 N :    0.284494
   6 N :    0.344661
   7 N :    0.336007
   8 C :   -0.204525
   9 C :    0.146377
  10 C :   -0.052935
  11 C :   -0.061381
  12 C :    0.186856
  13 C :    0.112847
  14 C :   -0.373430
  15 C :   -0.504293
  16 C :   -0.474353
  17 C :   -0.476594
  18 H :    0.056461
  19 H :    0.019507
  20 H :   -0.013104
  21 H :    0.003982
  22 H :    0.010977
  23 H :    0.004226
  24 H :   -0.014718
  25 H :    0.021491
  26 H :   -0.024599
  27 H :   -0.025981
  28 H :   -0.003791
  29 H :   -0.004374

  Mayer bond orders larger than 0.100000
B(  0-O ,  8-C ) :  -0.1647 B(  0-O , 14-C ) :   1.6287 B(  1-O ,  9-C ) :   0.2367
B(  1-O , 15-C ) :   1.1985 B(  2-O , 16-C ) :   1.5737 B(  3-O , 17-C ) :   1.4787
B(  4-N , 10-C ) :   0.6567 B(  4-N , 16-C ) :   1.0965 B(  4-N , 26-H ) :   1.1283
B(  5-N , 11-C ) :   0.6986 B(  5-N , 17-C ) :   0.9372 B(  5-N , 19-H ) :  -0.1302
B(  5-N , 27-H ) :   1.0522 B(  6-N , 14-C ) :   1.0681 B(  6-N , 16-C ) :   0.9398
B(  6-N , 28-H ) :   1.1087 B(  7-N , 15-C ) :   0.9646 B(  7-N , 17-C ) :   0.9743
B(  7-N , 29-H ) :   1.1040 B(  8-C ,  9-C ) :   0.1293 B(  8-C , 10-C ) :   0.5170
B(  8-C , 14-C ) :   0.1880 B(  8-C , 21-H ) :  -0.1223 B(  9-C , 12-C ) :  -0.2384
B(  9-C , 13-C ) :   0.5584 B(  9-C , 15-C ) :   0.9040 B(  9-C , 20-H ) :  -0.1000
B( 10-C , 11-C ) :   0.6475 B( 10-C , 12-C ) :  -0.1318 B( 10-C , 16-C ) :  -0.1158
B( 10-C , 18-H ) :   1.1406 B( 11-C , 19-H ) :   1.0890 B( 12-C , 20-H ) :   1.0479
B( 12-C , 21-H ) :   1.0579 B( 12-C , 22-H ) :   0.7033 B( 13-C , 23-H ) :   0.9581
B( 13-C , 24-H ) :   1.0473 B( 13-C , 25-H ) :   0.8651 B( 15-C , 17-C ) :  -0.1107

Dispersion correction           -0.059106884
FINAL SINGLE POINT ENERGY      -908.751372457001

DIPOLE MOMENT
-------------

Method             : SCF
Type of density    : Electron Density
Multiplicity       :   1
Irrep              :   0
Energy             :  -908.6922655728535574 Eh
Relativity type    :
Basis              : AO
                                X                 Y                 Z
Electronic contribution:     -0.762173401      -9.870735522      -7.028487124
Nuclear contribution   :      0.457799717      10.766096398       9.691710679
                        -----------------------------------------
Total Dipole Moment    :     -0.304373684       0.895360876       2.663223555
                        -----------------------------------------
Magnitude (a.u.)       :      2.826141210
Magnitude (Debye)      :      7.183480076

Rotational constants in cm-1:             0.022695             0.013335             0.011888
Rotational constants in MHz :           680.390301           399.781292           356.381809

                             ****ORCA TERMINATED NORMALLY****
TOTAL RUN TIME: 0 days 2 hours 43 minutes 6 seconds 772 msec
