                         Program Version 6.0.0  -   RELEASE  -
|  1> ! Engrad def2-TZVPPD wB97M-D3BJ
|  2> %pal nprocs 8 end%pal nprocs 64 end
|  3> %tddft
|  4>  Iroot 1 Nroots 3
|  5> sf true
|  6> end
|  7> *xyz 0 3
|  8> O   1.2212481 0.88278818 0.33870391
|  9> C   0.16334523 -0.03615694 0.53031867
| 10> C   -0.23535102 -0.70487585 -0.70213642
| 11> H   -0.60101351 0.59417089 1.12941488
| 12> H   0.44037697 -0.88712982 1.17003644
| 13> H   -1.13821167 -0.61694344 -1.17710759
| 14> H   0.49020625 -1.3337543 -1.27076591
| 15> *
| 16>
| 17>                          ****END OF INPUT****

CARTESIAN COORDINATES (ANGSTROEM)
---------------------------------
  O      1.221248    0.882788    0.338704
  C      0.163345   -0.036157    0.530319
  C     -0.235351   -0.704876   -0.702136
  H     -0.601014    0.594171    1.129415
  H      0.440377   -0.887130    1.170036
  H     -1.138212   -0.616943   -1.177108
  H      0.490206   -1.333754   -1.270766

 Total Charge           Charge          ....    0
 Multiplicity           Mult            ....    3
 Number of Electrons    NEL             ....   24
 Basis Dimension        Dim             ....  182

ORBITAL ENERGIES
----------------
                 SPIN UP ORBITALS
  NO   OCC          E(Eh)            E(eV)
   0   1.0000     -19.389977      -527.6281
   1   1.0000     -10.418997      -283.5153
   2   1.0000     -10.362806      -281.9863
   3   1.0000      -1.153904       -31.3993
   4   1.0000      -0.884420       -24.0663
   5   1.0000      -0.734846       -19.9962
   6   1.0000      -0.615741       -16.7552
   7   1.0000      -0.578810       -15.7502
   8   1.0000      -0.553864       -15.0714
   9   1.0000      -0.514146       -13.9906
  10   1.0000      -0.438058       -11.9202
  11   1.0000      -0.416653       -11.3377
  12   1.0000      -0.324809        -8.8385
  13   0.0000       0.041430         1.1274
  14   0.0000       0.060580         1.6485
  15   0.0000       0.077133         2.0989
  16   0.0000       0.088070         2.3965
  17   0.0000       0.115051         3.1307

                 SPIN DOWN ORBITALS
  NO   OCC          E(Eh)            E(eV)
   0   1.0000     -19.365081      -526.9506
   1   1.0000     -10.420389      -283.5532
   2   1.0000     -10.349830      -281.6332
   3   1.0000      -1.096489       -29.8370
   4   1.0000      -0.851377       -23.1672
   5   1.0000      -0.709277       -19.3004
   6   1.0000      -0.587295       -15.9811
   7   1.0000      -0.548004       -14.9120
   8   1.0000      -0.528070       -14.3695
   9   1.0000      -0.477670       -12.9981
  10   1.0000      -0.384710       -10.4685
  11   0.0000      -0.053693        -1.4611
  12   0.0000      -0.001105        -0.0301
  13   0.0000       0.040178         1.0933
  14   0.0000       0.060816         1.6549
  15   0.0000       0.076977         2.0947

----------------------------------------------------------------------------------------------------
          SPIN FLIP ABSORPTION SPECTRUM VIA TRANSITION ELECTRIC DIPOLE MOMENTS
----------------------------------------------------------------------------------------------------
     Transition      Energy     Energy  Wavelength fosc(D2)      D2        DX        DY        DZ
                      (eV)      (cm-1)    (nm)                 (au**2)    (au)      (au)      (au)
----------------------------------------------------------------------------------------------------
  1-3A  ->  2-3A    0.222781    1796.9  5565.3   0.000245192   0.04492   0.08756   0.10950   0.15895
  1-3A  ->  3-3A    0.922295    7438.8  1344.3   0.021761649   0.96308   0.63908   0.63714   0.38564

Dispersion correction             ... done (  0.2 sec)

MULLIKEN ATOMIC CHARGES AND SPIN DENSITIES
------------------------------------------
   0 O :   -0.410695   -0.356075
   1 C :   -0.021496   -0.003540
   2 C :   -0.436670    0.236566
   3 H :    0.212275    0.006098
   4 H :    0.189047    0.072706
   5 H :    0.239574    0.033148
   6 H :    0.227965    0.011096
Sum of atomic charges       :   -0.0000000

LOEWDIN ATOMIC CHARGES AND SPIN DENSITIES
-----------------------------------------
   0 O :   -0.050719   -0.369413
   1 C :   -0.282994    0.044519
   2 C :    0.338338    0.236927
   3 H :    0.076548    0.004200
   4 H :    0.011585    0.028090
   5 H :   -0.090361    0.032898
   6 H :   -0.002396    0.022780

  Mayer bond orders larger than 0.100000
B(  0-O ,  1-C ) :   0.8896 B(  0-O ,  2-C ) :   0.3717 B(  1-C ,  2-C ) :   0.8722
B(  1-C ,  3-H ) :   0.9246 B(  1-C ,  4-H ) :   1.0029 B(  2-C ,  5-H ) :   0.9259
B(  2-C ,  6-H ) :   0.9695

Dispersion correction           -0.005479559
FINAL SINGLE POINT ENERGY      -153.748045722631

DIPOLE MOMENT
-------------

Method             : TDA/CIS
Type of density    : Electron Density
Level              : Relaxed density
State              :   1
Multiplicity       :   3
Irrep              :   0
Energy             :     0.0000000000000000 Eh
Relativity type    :
Basis              : AO
                                X                 Y                 Z
Electronic contribution:      1.288761821       1.482085780       0.238781299
Nuclear contribution   :     -2.267903319      -2.345169590      -0.408386871
                        -----------------------------------------
Total Dipole Moment    :     -0.979141498      -0.863083809      -0.169605572
                        -----------------------------------------
Magnitude (a.u.)       :      1.316205829
Magnitude (Debye)      :      3.345529345

Rotational constants in cm-1:             1.391080             0.347160             0.305981
Rotational constants in MHz :         41703.537568         10407.606900          9173.079599

                             ****ORCA TERMINATED NORMALLY****
TOTAL RUN TIME: 0 days 0 hours 0 minutes 27 seconds 79 msec
