                         Program Version 6.0.0  -   RELEASE  -
|  1> ! Engrad def2-TZVPPD wB97M-D3BJ
|  2> %pal nprocs 8 end%pal nprocs 64 end
|  3> %tddft Nroots 2 Iroot 2
|  4> sf true
|  5> end
|  6> *xyz 0 3
|  7> O   2.98912022 0.45865848 -1.07757637
|  8> O   -0.40811998 1.54575698 -2.2032541
|  9> O   0.41285664 -3.13386723 -0.26043343
| 10> O   -3.04734922 -1.68664867 -0.53033078
| 11> N   0.35383584 -1.46474576 1.27020154
| 12> N   -2.17209596 -0.19034489 0.9423564
| 13> N   1.47216495 -1.19346943 -0.76484638
| 14> N   -1.44569757 -0.23882854 -1.25714474
| 15> C   1.62050539 0.59044204 0.83942777
| 16> C   -0.69870201 1.56208256 0.15404916
| 17> C   0.37443519 -0.0621589 1.58978035
| 18> C   -1.09061985 0.67858158 1.29120828
| 19> C   2.42024751 1.62253527 1.52240815
| 20> C   -0.59773389 3.02666352 0.30655034
| 21> C   2.09576874 -0.01160961 -0.39880628
| 22> C   -0.8119811 1.00006393 -1.19636413
| 23> C   0.71212359 -2.00944207 0.06039761
| 24> C   -2.28197398 -0.7896694 -0.2893588
| 25> H   0.5589864 0.02794564 2.65203704
| 26> H   -1.36671049 1.25949338 2.16021673
| 27> H   3.22378678 1.96244834 0.88912491
| 28> H   1.80791632 2.48016057 1.8159839
| 29> H   2.82277729 1.20807133 2.44591601
| 30> H   -1.59834693 3.44430602 0.4813608
| 31> H   0.00338422 3.29656579 1.16587142
| 32> H   -0.18585335 3.47280095 -0.58963851
| 33> H   -0.23999382 -2.07448978 1.80026738
| 34> H   -2.75730309 -0.61016745 1.65668224
| 35> H   1.79525723 -1.63060375 -1.61905081
| 36> H   -1.55575268 -0.64276277 -2.17603136
| 37> *
| 38>
| 39>                          ****END OF INPUT****

CARTESIAN COORDINATES (ANGSTROEM)
---------------------------------
  O      2.989120    0.458658   -1.077576
  O     -0.408120    1.545757   -2.203254
  O      0.412857   -3.133867   -0.260433
  O     -3.047349   -1.686649   -0.530331
  N      0.353836   -1.464746    1.270202
  N     -2.172096   -0.190345    0.942356
  N      1.472165   -1.193469   -0.764846
  N     -1.445698   -0.238829   -1.257145
  C      1.620505    0.590442    0.839428
  C     -0.698702    1.562083    0.154049
  C      0.374435   -0.062159    1.589780
  C     -1.090620    0.678582    1.291208
  C      2.420248    1.622535    1.522408
  C     -0.597734    3.026664    0.306550
  C      2.095769   -0.011610   -0.398806
  C     -0.811981    1.000064   -1.196364
  C      0.712124   -2.009442    0.060398
  C     -2.281974   -0.789669   -0.289359
  H      0.558986    0.027946    2.652037
  H     -1.366710    1.259493    2.160217
  H      3.223787    1.962448    0.889125
  H      1.807916    2.480161    1.815984
  H      2.822777    1.208071    2.445916
  H     -1.598347    3.444306    0.481361
  H      0.003384    3.296566    1.165871
  H     -0.185853    3.472801   -0.589639
  H     -0.239994   -2.074490    1.800267
  H     -2.757303   -0.610167    1.656682
  H      1.795257   -1.630604   -1.619051
  H     -1.555753   -0.642763   -2.176031

 Total Charge           Charge          ....    0
 Multiplicity           Mult            ....    3
 Number of Electrons    NEL             ....  132
 Basis Dimension        Dim             ....  882

ORBITAL ENERGIES
----------------
                 SPIN UP ORBITALS
  NO   OCC          E(Eh)            E(eV)
   0   1.0000     -19.331144      -526.0272
   1   1.0000     -19.329360      -525.9786
   2   1.0000     -19.318706      -525.6887
   3   1.0000     -19.314509      -525.5745
   4   1.0000     -14.564747      -396.3269
   5   1.0000     -14.558670      -396.1616
   6   1.0000     -14.558187      -396.1484
   7   1.0000     -14.557550      -396.1311
   8   1.0000     -10.503052      -285.8026
   9   1.0000     -10.500223      -285.7256
  10   1.0000     -10.477751      -285.1141
  11   1.0000     -10.476471      -285.0793
  12   1.0000     -10.449083      -284.3340
  13   1.0000     -10.444487      -284.2089
  14   1.0000     -10.421566      -283.5852
  15   1.0000     -10.409470      -283.2561
  16   1.0000     -10.371384      -282.2197
  17   1.0000     -10.371191      -282.2145
  18   1.0000      -1.220508       -33.2117
  19   1.0000      -1.214854       -33.0579
  20   1.0000      -1.196107       -32.5477
  21   1.0000      -1.193117       -32.4664
  22   1.0000      -1.116041       -30.3690
  23   1.0000      -1.095261       -29.8036
  24   1.0000      -1.064297       -28.9610
  25   1.0000      -1.053937       -28.6791
  26   1.0000      -0.978764       -26.6335
  27   1.0000      -0.946794       -25.7636
  28   1.0000      -0.884086       -24.0572
  29   1.0000      -0.835444       -22.7336
  30   1.0000      -0.827499       -22.5174
  31   1.0000      -0.802135       -21.8272
  32   1.0000      -0.785191       -21.3661
  33   1.0000      -0.775746       -21.1091
  34   1.0000      -0.697902       -18.9909
  35   1.0000      -0.692974       -18.8568
  36   1.0000      -0.687196       -18.6995
  37   1.0000      -0.660205       -17.9651
  38   1.0000      -0.652981       -17.7685
  39   1.0000      -0.643690       -17.5157
  40   1.0000      -0.614668       -16.7260
  41   1.0000      -0.602710       -16.4006
  42   1.0000      -0.588001       -16.0003
  43   1.0000      -0.583002       -15.8643
  44   1.0000      -0.580622       -15.7995
  45   1.0000      -0.572391       -15.5755
  46   1.0000      -0.565505       -15.3882
  47   1.0000      -0.559198       -15.2165
  48   1.0000      -0.556135       -15.1332
  49   1.0000      -0.549871       -14.9627
  50   1.0000      -0.546169       -14.8620
  51   1.0000      -0.540261       -14.7013
  52   1.0000      -0.532542       -14.4912
  53   1.0000      -0.524598       -14.2750
  54   1.0000      -0.511110       -13.9080
  55   1.0000      -0.505797       -13.7634
  56   1.0000      -0.486729       -13.2446
  57   1.0000      -0.420095       -11.4314
  58   1.0000      -0.415085       -11.2950
  59   1.0000      -0.408518       -11.1163
  60   1.0000      -0.406110       -11.0508
  61   1.0000      -0.393037       -10.6951
  62   1.0000      -0.391356       -10.6494
  63   1.0000      -0.386524       -10.5178
  64   1.0000      -0.384149       -10.4532
  65   1.0000      -0.348927        -9.4948
  66   1.0000      -0.308077        -8.3832
  67   0.0000       0.006481         0.1764
  68   0.0000       0.028901         0.7864
  69   0.0000       0.029909         0.8139
  70   0.0000       0.039669         1.0795
  71   0.0000       0.054810         1.4915

                 SPIN DOWN ORBITALS
  NO   OCC          E(Eh)            E(eV)
   0   1.0000     -19.327081      -525.9166
   1   1.0000     -19.324815      -525.8549
   2   1.0000     -19.318529      -525.6839
   3   1.0000     -19.314326      -525.5695
   4   1.0000     -14.564306      -396.3149
   5   1.0000     -14.558289      -396.1512
   6   1.0000     -14.557816      -396.1383
   7   1.0000     -14.557225      -396.1222
   8   1.0000     -10.503072      -285.8031
   9   1.0000     -10.500232      -285.7258
  10   1.0000     -10.478604      -285.1373
  11   1.0000     -10.477527      -285.1080
  12   1.0000     -10.448444      -284.3166
  13   1.0000     -10.444335      -284.2048
  14   1.0000     -10.409713      -283.2627
  15   1.0000     -10.397578      -282.9325
  16   1.0000     -10.371973      -282.2357
  17   1.0000     -10.371694      -282.2281
  18   1.0000      -1.218988       -33.1704
  19   1.0000      -1.213242       -33.0140
  20   1.0000      -1.191139       -32.4125
  21   1.0000      -1.187833       -32.3226
  22   1.0000      -1.113615       -30.3030
  23   1.0000      -1.093215       -29.7479
  24   1.0000      -1.062593       -28.9146
  25   1.0000      -1.052504       -28.6401
  26   1.0000      -0.963656       -26.2224
  27   1.0000      -0.930319       -25.3153
  28   1.0000      -0.879536       -23.9334
  29   1.0000      -0.830818       -22.6077
  30   1.0000      -0.818686       -22.2776
  31   1.0000      -0.796315       -21.6688
  32   1.0000      -0.783671       -21.3248
  33   1.0000      -0.774141       -21.0654
  34   1.0000      -0.692165       -18.8348
  35   1.0000      -0.685217       -18.6457
  36   1.0000      -0.680631       -18.5209
  37   1.0000      -0.652562       -17.7571
  38   1.0000      -0.645406       -17.5624
  39   1.0000      -0.637464       -17.3463
  40   1.0000      -0.612631       -16.6705
  41   1.0000      -0.597882       -16.2692
  42   1.0000      -0.582220       -15.8430
  43   1.0000      -0.574294       -15.6273
  44   1.0000      -0.571136       -15.5414
  45   1.0000      -0.564730       -15.3671
  46   1.0000      -0.561199       -15.2710
  47   1.0000      -0.553507       -15.0617
  48   1.0000      -0.552417       -15.0320
  49   1.0000      -0.541644       -14.7389
  50   1.0000      -0.539165       -14.6714
  51   1.0000      -0.531140       -14.4531
  52   1.0000      -0.524866       -14.2823
  53   1.0000      -0.514717       -14.0062
  54   1.0000      -0.502081       -13.6623
  55   1.0000      -0.498456       -13.5637
  56   1.0000      -0.480887       -13.0856
  57   1.0000      -0.415842       -11.3156
  58   1.0000      -0.411986       -11.2107
  59   1.0000      -0.401681       -10.9303
  60   1.0000      -0.396018       -10.7762
  61   1.0000      -0.386117       -10.5068
  62   1.0000      -0.382657       -10.4126
  63   1.0000      -0.379271       -10.3205
  64   1.0000      -0.370436       -10.0801
  65   0.0000      -0.072780        -1.9804
  66   0.0000      -0.022296        -0.6067
  67   0.0000       0.006248         0.1700
  68   0.0000       0.029058         0.7907
  69   0.0000       0.029685         0.8078

----------------------------------------------------------------------------------------------------
          SPIN FLIP ABSORPTION SPECTRUM VIA TRANSITION ELECTRIC DIPOLE MOMENTS
----------------------------------------------------------------------------------------------------
     Transition      Energy     Energy  Wavelength fosc(D2)      D2        DX        DY        DZ
                      (eV)      (cm-1)    (nm)                 (au**2)    (au)      (au)      (au)
----------------------------------------------------------------------------------------------------
  1-3A  ->  2-3A    0.652490    5262.7  1900.2   0.000037730   0.00236   0.04773  -0.00908  -0.00016

Dispersion correction             ... done (  0.1 sec)

MULLIKEN ATOMIC CHARGES AND SPIN DENSITIES
------------------------------------------
   0 O :   -0.686059   -0.005931
   1 O :   -0.680454    0.000449
   2 O :   -0.655199    0.000122
   3 O :   -0.643790   -0.000062
   4 N :   -0.257181    0.000164
   5 N :   -0.265399   -0.001106
   6 N :    0.067234   -0.007819
   7 N :    0.051333    0.004089
   8 C :    0.746550    0.412993
   9 C :    0.895208    0.337271
  10 C :   -0.106608   -0.246771
  11 C :    0.162783   -0.106733
  12 C :   -1.272210    0.036789
  13 C :   -1.263774    0.004797
  14 C :    0.058547   -0.269682
  15 C :   -0.108376   -0.247611
  16 C :    0.440354    0.015876
  17 C :    0.384242    0.011149
  18 H :    0.552575    0.008738
  19 H :    0.473029    0.003205
  20 H :    0.327581   -0.008531
  21 H :    0.255251    0.020992
  22 H :    0.331885    0.011222
  23 H :    0.342804    0.007883
  24 H :    0.331008    0.009114
  25 H :    0.310006    0.001659
  26 H :    0.051577    0.001227
  27 H :    0.079722    0.000703
  28 H :    0.038280    0.003743
  29 H :    0.039082    0.002062
Sum of atomic charges       :   -0.0000000

LOEWDIN ATOMIC CHARGES AND SPIN DENSITIES
-----------------------------------------
   0 O :    0.092495   -0.004787
   1 O :    0.096500   -0.000576
   2 O :    0.094979    0.000321
   3 O :    0.100775    0.000314
   4 N :    0.268154   -0.000488
   5 N :    0.270605   -0.000354
   6 N :    0.321831   -0.002651
   7 N :    0.326765   -0.000630
   8 C :    0.004852   -0.000869
   9 C :   -0.057424    0.024169
  10 C :   -0.029779   -0.003155
  11 C :   -0.078914   -0.001913
  12 C :    0.190071   -0.001808
  13 C :    0.195392    0.001404
  14 C :   -0.421253   -0.006113
  15 C :   -0.413256   -0.001868
  16 C :   -0.493667   -0.000143
  17 C :   -0.489272   -0.000173
  18 H :    0.031228   -0.000945
  19 H :    0.045634   -0.000335
  20 H :   -0.003905    0.000032
  21 H :   -0.010420   -0.000307
  22 H :    0.010195   -0.000137
  23 H :    0.021658    0.001147
  24 H :   -0.021443    0.000171
  25 H :    0.002787    0.000073
  26 H :   -0.031040   -0.000085
  27 H :   -0.017265   -0.000010
  28 H :   -0.001182   -0.000226
  29 H :   -0.005103   -0.000059

  Mayer bond orders larger than 0.100000
B(  0-O , 14-C ) :   1.3087 B(  1-O , 15-C ) :   1.4150 B(  2-O , 16-C ) :   1.5070
B(  3-O , 17-C ) :   1.5382 B(  4-N ,  5-N ) :   0.1284 B(  4-N ,  8-C ) :   0.2257
B(  4-N , 10-C ) :   0.3309 B(  4-N , 11-C ) :  -0.1011 B(  4-N , 16-C ) :   1.0578
B(  4-N , 26-H ) :   1.0895 B(  5-N ,  9-C ) :   0.2785 B(  5-N , 11-C ) :   0.2329
B(  5-N , 17-C ) :   1.1418 B(  5-N , 27-H ) :   1.0599 B(  6-N , 10-C ) :   0.1139
B(  6-N , 14-C ) :   1.0202 B(  6-N , 16-C ) :   0.9605 B(  6-N , 28-H ) :   1.1045
B(  7-N , 11-C ) :   0.1258 B(  7-N , 15-C ) :   0.9537 B(  7-N , 17-C ) :   0.9598
B(  7-N , 29-H ) :   1.0959 B(  8-C ,  9-C ) :   0.2664 B(  8-C , 10-C ) :   0.3288
B(  8-C , 12-C ) :   0.4666 B(  8-C , 14-C ) :   0.6958 B(  8-C , 20-H ) :  -0.1082
B(  9-C , 11-C ) :   0.5900 B(  9-C , 13-C ) :   0.5015 B(  9-C , 15-C ) :   0.5242
B(  9-C , 25-H ) :  -0.1043 B( 10-C , 11-C ) :   0.6042 B( 10-C , 18-H ) :   0.6889
B( 11-C , 17-C ) :  -0.1740 B( 11-C , 19-H ) :   0.8564 B( 12-C , 20-H ) :   1.0188
B( 12-C , 21-H ) :   0.9027 B( 12-C , 22-H ) :   0.9008 B( 13-C , 23-H ) :   0.8740
B( 13-C , 24-H ) :   0.8292 B( 13-C , 25-H ) :   1.0336 B( 14-C , 16-C ) :  -0.1095
B( 15-C , 17-C ) :  -0.1349

Dispersion correction           -0.059646399
FINAL SINGLE POINT ENERGY      -908.783131305725

DIPOLE MOMENT
-------------

Method             : TDA/CIS
Type of density    : Electron Density
Level              : Relaxed density
State              :   2
Multiplicity       :   3
Irrep              :   0
Energy             :     0.0000000000000000 Eh
Relativity type    :
Basis              : AO
                                X                 Y                 Z
Electronic contribution:     -2.734870713     -10.218632590      -7.236134824
Nuclear contribution   :      2.454874151      11.770441160      10.192844589
                        -----------------------------------------
Total Dipole Moment    :     -0.279996561       1.551808570       2.956709765
                        -----------------------------------------
Magnitude (a.u.)       :      3.350916374
Magnitude (Debye)      :      8.517352538

Rotational constants in cm-1:             0.019184             0.015835             0.012718
Rotational constants in MHz :           575.118123           474.706419           381.287895

                             ****ORCA TERMINATED NORMALLY****
TOTAL RUN TIME: 0 days 0 hours 4 minutes 24 seconds 592 msec
