                         Program Version 6.0.0  -   RELEASE  -
|  1> ! Engrad def2-TZVPPD wB97M-D3BJ
|  2> %pal nprocs 8 end%pal nprocs 32 end
|  3> %tddft Nroots 2 Iroot 2
|  4> sf true
|  5> end
|  6> *xyz 0 3
|  7> O   0.28420379 1.41972834 0.03197654
|  8> C   0.75347825 0.17895921 -0.05791497
|  9> C   -0.35048123 -0.94817051 0.04040195
| 10> H   0.10020493 -1.81894099 -0.35472383
| 11> H   1.81843365 -0.07733557 -0.2071224
| 12> H   -1.20488817 -0.44696652 -0.54656883
| 13> H   -0.81967149 -1.05409468 1.11007428
| 14> *
| 15>
| 16>                          ****END OF INPUT****

CARTESIAN COORDINATES (ANGSTROEM)
---------------------------------
  O      0.284204    1.419728    0.031977
  C      0.753478    0.178959   -0.057915
  C     -0.350481   -0.948171    0.040402
  H      0.100205   -1.818941   -0.354724
  H      1.818434   -0.077336   -0.207122
  H     -1.204888   -0.446967   -0.546569
  H     -0.819671   -1.054095    1.110074

 Total Charge           Charge          ....    0
 Multiplicity           Mult            ....    3
 Number of Electrons    NEL             ....   24
 Basis Dimension        Dim             ....  182

ORBITAL ENERGIES
----------------
                 SPIN UP ORBITALS
  NO   OCC          E(Eh)            E(eV)
   0   1.0000     -19.422925      -528.5247
   1   1.0000     -10.403692      -283.0988
   2   1.0000     -10.382317      -282.5172
   3   1.0000      -1.196766       -32.5657
   4   1.0000      -0.865118       -23.5410
   5   1.0000      -0.719069       -19.5669
   6   1.0000      -0.618635       -16.8339
   7   1.0000      -0.562726       -15.3126
   8   1.0000      -0.552671       -15.0389
   9   1.0000      -0.527541       -14.3551
  10   1.0000      -0.485155       -13.2017
  11   1.0000      -0.444484       -12.0950
  12   1.0000      -0.257321        -7.0021
  13   0.0000       0.041809         1.1377
  14   0.0000       0.059418         1.6169
  15   0.0000       0.077392         2.1059
  16   0.0000       0.090737         2.4691
  17   0.0000       0.105956         2.8832

                 SPIN DOWN ORBITALS
  NO   OCC          E(Eh)            E(eV)
   0   1.0000     -19.394986      -527.7644
   1   1.0000     -10.392174      -282.7854
   2   1.0000     -10.381024      -282.4820
   3   1.0000      -1.131589       -30.7921
   4   1.0000      -0.846557       -23.0360
   5   1.0000      -0.680635       -18.5210
   6   1.0000      -0.578715       -15.7476
   7   1.0000      -0.518968       -14.1218
   8   1.0000      -0.514514       -14.0006
   9   1.0000      -0.492888       -13.4122
  10   1.0000      -0.446408       -12.1474
  11   0.0000      -0.080908        -2.2016
  12   0.0000       0.041073         1.1177
  13   0.0000       0.051641         1.4052
  14   0.0000       0.060146         1.6367
  15   0.0000       0.078153         2.1267

----------------------------------------------------------------------------------------------------
          SPIN FLIP ABSORPTION SPECTRUM VIA TRANSITION ELECTRIC DIPOLE MOMENTS
----------------------------------------------------------------------------------------------------
     Transition      Energy     Energy  Wavelength fosc(D2)      D2        DX        DY        DZ
                      (eV)      (cm-1)    (nm)                 (au**2)    (au)      (au)      (au)
----------------------------------------------------------------------------------------------------
  1-3A  ->  2-3A    3.418964   27575.8   362.6   0.000037153   0.00044  -0.00193   0.01859   0.00970

Dispersion correction             ... done (  0.1 sec)

MULLIKEN ATOMIC CHARGES AND SPIN DENSITIES
------------------------------------------
   0 O :   -0.258764    0.762673
   1 C :    0.221371   -0.701096
   2 C :   -0.709283    0.082632
   3 H :    0.256434   -0.010352
   4 H :    0.108602   -0.046152
   5 H :    0.197880   -0.036192
   6 H :    0.183760   -0.051512
Sum of atomic charges       :   -0.0000000

LOEWDIN ATOMIC CHARGES AND SPIN DENSITIES
-----------------------------------------
   0 O :    0.080125    0.587798
   1 C :   -0.141041   -0.495648
   2 C :    0.115109   -0.012075
   3 H :   -0.060597    0.009486
   4 H :   -0.025199   -0.048271
   5 H :    0.006783   -0.015209
   6 H :    0.024820   -0.026082

  Mayer bond orders larger than 0.100000
B(  0-O ,  1-C ) :   1.1157 B(  1-C ,  2-C ) :   0.7896 B(  1-C ,  4-H ) :   1.0286
B(  2-C ,  3-H ) :   0.9508 B(  2-C ,  5-H ) :   0.9788 B(  2-C ,  6-H ) :   0.9933

Dispersion correction           -0.005439452
FINAL SINGLE POINT ENERGY      -153.755528278275

DIPOLE MOMENT
-------------

Method             : TDA/CIS
Type of density    : Electron Density
Level              : Relaxed density
State              :   2
Multiplicity       :   3
Irrep              :   0
Energy             :     0.0000000000000000 Eh
Relativity type    :
Basis              : AO
                                X                 Y                 Z
Electronic contribution:      0.918883133       3.465012881      -0.006740023
Nuclear contribution   :     -0.888864201      -4.025861782      -0.023876415
                        -----------------------------------------
Total Dipole Moment    :      0.030018932      -0.560848901      -0.030616438
                        -----------------------------------------
Magnitude (a.u.)       :      0.562485549
Magnitude (Debye)      :      1.429724643

Rotational constants in cm-1:             1.463571             0.331858             0.285286
Rotational constants in MHz :         43876.761689          9948.838486          8552.654711

                             ****ORCA TERMINATED NORMALLY****
TOTAL RUN TIME: 0 days 0 hours 0 minutes 16 seconds 887 msec
