                         Program Version 6.0.0  -   RELEASE  -
|  1> ! Engrad def2-TZVPPD wB97M-D3BJ
|  2> %pal nprocs 8 end%pal nprocs 64 end
|  3> %tddft Nroots 2 Iroot 1
|  4> sf true
|  5> end
|  6> *xyz 0 3
|  7> O   2.84952755 1.2733945 -0.50976771
|  8> O   -0.49568932 0.50470147 -1.97391336
|  9> O   1.32975735 -2.85782167 -1.64693912
| 10> O   -3.03924665 -1.4839419 1.19518817
| 11> N   0.664516 -1.94713451 0.33577357
| 12> N   -2.2176472 0.6101595 1.60259529
| 13> N   2.08852874 -0.79828745 -1.04552129
| 14> N   -1.86545525 -0.39578975 -0.43540546
| 15> C   1.28578669 0.29621352 0.95061328
| 16> C   -0.7445628 1.681624 0.06428895
| 17> C   0.65192256 -0.93315239 1.23759639
| 18> C   -1.46824914 1.68073026 1.20568461
| 19> C   1.47103143 1.30665793 2.01531849
| 20> C   -0.00073091 2.87640974 -0.42538751
| 21> C   2.10979411 0.33849249 -0.22422665
| 22> C   -0.98267876 0.58240468 -0.8772766
| 23> C   1.35648682 -1.93811947 -0.85464067
| 24> C   -2.41455505 -0.50659855 0.8220397
| 25> H   0.12636219 -1.07475126 2.15455468
| 26> H   -1.44392512 2.51259763 1.87960754
| 27> H   1.36522156 2.32095677 1.65115948
| 28> H   0.7714527 1.15717912 2.83570289
| 29> H   2.49367755 1.24572848 2.40418041
| 30> H   -0.44186748 3.20335385 -1.35626147
| 31> H   -0.05636311 3.67843013 0.30005352
| 32> H   1.0477951 2.6629155 -0.63011503
| 33> H   0.12640949 -2.77816445 0.52035181
| 34> H   -2.69935501 0.5964853 2.49209679
| 35> H   2.60582531 -0.72627038 -1.90573659
| 36> H   -2.00560799 -1.19030286 -1.03993253
| 37> *
| 38>
| 39>                          ****END OF INPUT****

CARTESIAN COORDINATES (ANGSTROEM)
---------------------------------
  O      2.849528    1.273394   -0.509768
  O     -0.495689    0.504701   -1.973913
  O      1.329757   -2.857822   -1.646939
  O     -3.039247   -1.483942    1.195188
  N      0.664516   -1.947135    0.335774
  N     -2.217647    0.610159    1.602595
  N      2.088529   -0.798287   -1.045521
  N     -1.865455   -0.395790   -0.435405
  C      1.285787    0.296214    0.950613
  C     -0.744563    1.681624    0.064289
  C      0.651923   -0.933152    1.237596
  C     -1.468249    1.680730    1.205685
  C      1.471031    1.306658    2.015318
  C     -0.000731    2.876410   -0.425388
  C      2.109794    0.338492   -0.224227
  C     -0.982679    0.582405   -0.877277
  C      1.356487   -1.938119   -0.854641
  C     -2.414555   -0.506599    0.822040
  H      0.126362   -1.074751    2.154555
  H     -1.443925    2.512598    1.879608
  H      1.365222    2.320957    1.651159
  H      0.771453    1.157179    2.835703
  H      2.493678    1.245728    2.404180
  H     -0.441867    3.203354   -1.356261
  H     -0.056363    3.678430    0.300054
  H      1.047795    2.662915   -0.630115
  H      0.126409   -2.778164    0.520352
  H     -2.699355    0.596485    2.492097
  H      2.605825   -0.726270   -1.905737
  H     -2.005608   -1.190303   -1.039933

 Total Charge           Charge          ....    0
 Multiplicity           Mult            ....    3
 Number of Electrons    NEL             ....  132
 Basis Dimension        Dim             ....  882

ORBITAL ENERGIES
----------------
                 SPIN UP ORBITALS
  NO   OCC          E(Eh)            E(eV)
   0   1.0000     -19.332873      -526.0742
   1   1.0000     -19.326575      -525.9028
   2   1.0000     -19.322592      -525.7945
   3   1.0000     -19.319973      -525.7232
   4   1.0000     -14.591929      -397.0666
   5   1.0000     -14.585492      -396.8914
   6   1.0000     -14.573392      -396.5622
   7   1.0000     -14.547047      -395.8453
   8   1.0000     -10.519150      -286.2406
   9   1.0000     -10.502648      -285.7916
  10   1.0000     -10.481611      -285.2191
  11   1.0000     -10.459464      -284.6165
  12   1.0000     -10.438885      -284.0565
  13   1.0000     -10.407984      -283.2156
  14   1.0000     -10.397539      -282.9314
  15   1.0000     -10.389112      -282.7021
  16   1.0000     -10.367462      -282.1130
  17   1.0000     -10.351724      -281.6847
  18   1.0000      -1.231071       -33.4991
  19   1.0000      -1.217744       -33.1365
  20   1.0000      -1.201681       -32.6994
  21   1.0000      -1.183614       -32.2078
  22   1.0000      -1.130595       -30.7651
  23   1.0000      -1.119788       -30.4710
  24   1.0000      -1.076423       -29.2910
  25   1.0000      -1.056828       -28.7577
  26   1.0000      -0.975092       -26.5336
  27   1.0000      -0.956198       -26.0195
  28   1.0000      -0.855212       -23.2715
  29   1.0000      -0.853807       -23.2333
  30   1.0000      -0.817761       -22.2524
  31   1.0000      -0.812720       -22.1152
  32   1.0000      -0.798402       -21.7256
  33   1.0000      -0.783722       -21.3261
  34   1.0000      -0.703140       -19.1334
  35   1.0000      -0.699775       -19.0419
  36   1.0000      -0.693143       -18.8614
  37   1.0000      -0.690651       -18.7936
  38   1.0000      -0.650244       -17.6941
  39   1.0000      -0.644874       -17.5479
  40   1.0000      -0.632155       -17.2018
  41   1.0000      -0.603883       -16.4325
  42   1.0000      -0.601884       -16.3781
  43   1.0000      -0.589721       -16.0471
  44   1.0000      -0.579498       -15.7689
  45   1.0000      -0.570389       -15.5211
  46   1.0000      -0.562204       -15.2984
  47   1.0000      -0.556778       -15.1507
  48   1.0000      -0.552809       -15.0427
  49   1.0000      -0.541060       -14.7230
  50   1.0000      -0.531991       -14.4762
  51   1.0000      -0.526109       -14.3162
  52   1.0000      -0.521934       -14.2025
  53   1.0000      -0.514953       -14.0126
  54   1.0000      -0.508557       -13.8385
  55   1.0000      -0.501909       -13.6576
  56   1.0000      -0.485056       -13.1991
  57   1.0000      -0.483180       -13.1480
  58   1.0000      -0.424057       -11.5392
  59   1.0000      -0.413611       -11.2549
  60   1.0000      -0.409472       -11.1423
  61   1.0000      -0.394478       -10.7343
  62   1.0000      -0.393334       -10.7031
  63   1.0000      -0.387044       -10.5320
  64   1.0000      -0.380458       -10.3528
  65   1.0000      -0.341075        -9.2811
  66   1.0000      -0.218641        -5.9495
  67   0.0000       0.008237         0.2241
  68   0.0000       0.016917         0.4603
  69   0.0000       0.029694         0.8080
  70   0.0000       0.036906         1.0043
  71   0.0000       0.040548         1.1034

                 SPIN DOWN ORBITALS
  NO   OCC          E(Eh)            E(eV)
   0   1.0000     -19.332599      -526.0668
   1   1.0000     -19.326852      -525.9104
   2   1.0000     -19.320597      -525.7402
   3   1.0000     -19.314124      -525.5640
   4   1.0000     -14.591194      -397.0466
   5   1.0000     -14.581119      -396.7724
   6   1.0000     -14.573424      -396.5630
   7   1.0000     -14.546241      -395.8233
   8   1.0000     -10.519152      -286.2407
   9   1.0000     -10.502943      -285.7996
  10   1.0000     -10.481483      -285.2156
  11   1.0000     -10.459384      -284.6143
  12   1.0000     -10.436952      -284.0039
  13   1.0000     -10.398566      -282.9594
  14   1.0000     -10.389554      -282.7141
  15   1.0000     -10.386992      -282.6444
  16   1.0000     -10.367924      -282.1255
  17   1.0000     -10.351655      -281.6829
  18   1.0000      -1.230571       -33.4856
  19   1.0000      -1.213416       -33.0187
  20   1.0000      -1.201770       -32.7018
  21   1.0000      -1.175021       -31.9739
  22   1.0000      -1.129175       -30.7264
  23   1.0000      -1.109808       -30.1994
  24   1.0000      -1.076013       -29.2798
  25   1.0000      -1.051914       -28.6240
  26   1.0000      -0.966968       -26.3125
  27   1.0000      -0.942149       -25.6372
  28   1.0000      -0.852688       -23.2028
  29   1.0000      -0.843580       -22.9550
  30   1.0000      -0.815903       -22.2019
  31   1.0000      -0.802936       -21.8490
  32   1.0000      -0.797108       -21.6904
  33   1.0000      -0.777462       -21.1558
  34   1.0000      -0.701927       -19.1004
  35   1.0000      -0.698339       -19.0028
  36   1.0000      -0.685858       -18.6632
  37   1.0000      -0.680334       -18.5128
  38   1.0000      -0.648756       -17.6536
  39   1.0000      -0.634873       -17.2758
  40   1.0000      -0.624901       -17.0044
  41   1.0000      -0.601523       -16.3683
  42   1.0000      -0.593046       -16.1376
  43   1.0000      -0.581382       -15.8202
  44   1.0000      -0.570787       -15.5319
  45   1.0000      -0.566688       -15.4204
  46   1.0000      -0.556826       -15.1520
  47   1.0000      -0.555108       -15.1053
  48   1.0000      -0.546165       -14.8619
  49   1.0000      -0.537695       -14.6314
  50   1.0000      -0.526187       -14.3183
  51   1.0000      -0.520759       -14.1706
  52   1.0000      -0.514401       -13.9976
  53   1.0000      -0.508079       -13.8255
  54   1.0000      -0.498330       -13.5603
  55   1.0000      -0.495168       -13.4742
  56   1.0000      -0.478437       -13.0189
  57   1.0000      -0.445463       -12.1217
  58   1.0000      -0.423428       -11.5221
  59   1.0000      -0.409025       -11.1301
  60   1.0000      -0.404647       -11.0110
  61   1.0000      -0.391686       -10.6583
  62   1.0000      -0.378206       -10.2915
  63   1.0000      -0.373743       -10.1701
  64   1.0000      -0.348305        -9.4779
  65   0.0000      -0.096661        -2.6303
  66   0.0000       0.008046         0.2189
  67   0.0000       0.022277         0.6062
  68   0.0000       0.026625         0.7245
  69   0.0000       0.033107         0.9009

----------------------------------------------------------------------------------------------------
          SPIN FLIP ABSORPTION SPECTRUM VIA TRANSITION ELECTRIC DIPOLE MOMENTS
----------------------------------------------------------------------------------------------------
     Transition      Energy     Energy  Wavelength fosc(D2)      D2        DX        DY        DZ
                      (eV)      (cm-1)    (nm)                 (au**2)    (au)      (au)      (au)
----------------------------------------------------------------------------------------------------
  1-3A  ->  2-3A    3.449242   27820.0   359.5   0.000506745   0.00600   0.02866   0.03761  -0.06132

Dispersion correction             ... done (  0.1 sec)

MULLIKEN ATOMIC CHARGES AND SPIN DENSITIES
------------------------------------------
   0 O :   -0.717600    0.025142
   1 O :   -0.646649    0.000362
   2 O :   -0.661560    0.007622
   3 O :   -0.675919    0.001220
   4 N :   -0.025846    0.043026
   5 N :   -0.001053    0.002744
   6 N :    0.012486   -0.000550
   7 N :   -0.031058    0.000781
   8 C :    1.153614    0.299547
   9 C :    0.421055    0.012398
  10 C :   -0.400812   -0.204326
  11 C :    0.197163   -0.000434
  12 C :   -1.531655   -0.029082
  13 C :   -1.521143    0.011998
  14 C :    0.245350   -0.182795
  15 C :    0.551530   -0.023227
  16 C :    0.522575    0.014295
  17 C :    0.446381   -0.001296
  18 H :    0.344255    0.017507
  19 H :    0.214988   -0.002892
  20 H :    0.257611   -0.004234
  21 H :    0.331534    0.004758
  22 H :    0.405674    0.009359
  23 H :    0.386409    0.000029
  24 H :    0.349348    0.001017
  25 H :    0.231341   -0.003482
  26 H :    0.037185   -0.000318
  27 H :    0.036851   -0.000275
  28 H :    0.027269    0.002429
  29 H :    0.040676   -0.001323
Sum of atomic charges       :    0.0000000

LOEWDIN ATOMIC CHARGES AND SPIN DENSITIES
-----------------------------------------
   0 O :    0.065902    0.022395
   1 O :    0.118741    0.000080
   2 O :    0.088684    0.006275
   3 O :    0.069803    0.001016
   4 N :    0.289183    0.018717
   5 N :    0.280878    0.003274
   6 N :    0.346228   -0.001549
   7 N :    0.336409   -0.000887
   8 C :   -0.149482   -0.033650
   9 C :   -0.160905   -0.000254
  10 C :    0.088742   -0.024760
  11 C :    0.034655    0.006836
  12 C :    0.164673   -0.003818
  13 C :    0.188583   -0.000056
  14 C :   -0.407448    0.006858
  15 C :   -0.413028   -0.001389
  16 C :   -0.470442    0.000115
  17 C :   -0.486759    0.000192
  18 H :    0.025841   -0.001749
  19 H :    0.033116    0.000908
  20 H :   -0.016865   -0.000359
  21 H :   -0.001586    0.000351
  22 H :    0.016164   -0.000708
  23 H :    0.003001   -0.000024
  24 H :   -0.003290   -0.000001
  25 H :   -0.020360    0.000110
  26 H :   -0.007024    0.001830
  27 H :   -0.007762    0.000207
  28 H :   -0.002605    0.000099
  29 H :   -0.003049   -0.000059

  Mayer bond orders larger than 0.100000
B(  0-O , 14-C ) :   1.3517 B(  1-O , 15-C ) :   1.4439 B(  2-O , 16-C ) :   1.5624
B(  3-O , 17-C ) :   1.5474 B(  4-N , 10-C ) :   0.9143 B(  4-N , 16-C ) :   0.9897
B(  4-N , 26-H ) :   1.1409 B(  5-N , 11-C ) :   0.9720 B(  5-N , 17-C ) :   1.0478
B(  5-N , 27-H ) :   1.1235 B(  6-N , 14-C ) :   1.0765 B(  6-N , 16-C ) :   0.9967
B(  6-N , 28-H ) :   1.1002 B(  7-N , 15-C ) :   1.0035 B(  7-N , 17-C ) :   0.9644
B(  7-N , 29-H ) :   1.0900 B(  8-C ,  9-C ) :   0.1408 B(  8-C , 10-C ) :   0.9200
B(  8-C , 12-C ) :   0.2203 B(  8-C , 14-C ) :   0.6134 B(  8-C , 15-C ) :  -0.1677
B(  8-C , 18-H ) :  -0.1184 B(  8-C , 20-H ) :  -0.1371 B(  8-C , 21-H ) :  -0.1092
B(  9-C , 11-C ) :   0.9835 B(  9-C , 13-C ) :   0.5151 B(  9-C , 15-C ) :   0.6619
B(  9-C , 24-H ) :  -0.1193 B( 10-C , 18-H ) :   1.0514 B( 11-C , 13-C ) :  -0.2310
B( 11-C , 19-H ) :   1.0899 B( 12-C , 20-H ) :   1.0374 B( 12-C , 21-H ) :   1.0513
B( 12-C , 22-H ) :   0.7987 B( 13-C , 23-H ) :   0.8288 B( 13-C , 24-H ) :   1.0581
B( 13-C , 25-H ) :   0.9697

Dispersion correction           -0.061688948
FINAL SINGLE POINT ENERGY      -908.901764908119

DIPOLE MOMENT
-------------

Method             : TDA/CIS
Type of density    : Electron Density
Level              : Relaxed density
State              :   1
Multiplicity       :   3
Irrep              :   0
Energy             :     0.0000000000000000 Eh
Relativity type    :
Basis              : AO
                                X                 Y                 Z
Electronic contribution:     -2.282906790     -10.004372273      -5.668952592
Nuclear contribution   :      1.380812818      10.842799836       7.977590511
                        -----------------------------------------
Total Dipole Moment    :     -0.902093972       0.838427563       2.308637919
                        -----------------------------------------
Magnitude (a.u.)       :      2.616590024
Magnitude (Debye)      :      6.650843290

Rotational constants in cm-1:             0.019624             0.015249             0.011888
Rotational constants in MHz :           588.322293           457.138622           356.381529

                             ****ORCA TERMINATED NORMALLY****
TOTAL RUN TIME: 0 days 0 hours 5 minutes 27 seconds 637 msec
