                         Program Version 6.0.0  -   RELEASE  -
|  1> ! Engrad def2-TZVPPD wB97M-D3BJ
|  2> %pal nprocs 8 end%pal nprocs 64 end
|  3> %tddft Nroots 2 Iroot 1
|  4> sf true
|  5> end
|  6> *xyz 0 3
|  7> O   2.92474443 0.49369964 -1.01902885
|  8> O   -0.3569709 1.54226263 -2.17831114
|  9> O   0.33641853 -3.12693654 -0.2670282
| 10> O   -3.06087644 -1.67322808 -0.49304033
| 11> N   0.35024527 -1.46662491 1.25919378
| 12> N   -2.05908346 -0.18721239 0.97106888
| 13> N   1.42145279 -1.18483298 -0.77221933
| 14> N   -1.3962747 -0.2564714 -1.26186646
| 15> C   1.66792227 0.48899779 0.90027995
| 16> C   -0.87368805 1.64144245 0.10246834
| 17> C   0.43651177 -0.11117107 1.58607653
| 18> C   -0.96390408 0.70503043 1.24159141
| 19> C   2.39992391 1.58015086 1.50844175
| 20> C   -0.59378586 3.07993836 0.22193748
| 21> C   2.08816876 -0.04617192 -0.34954871
| 22> C   -0.86566085 1.00674875 -1.21441135
| 23> C   0.65739679 -2.016144 0.0298392
| 24> C   -2.23982201 -0.80700637 -0.26504956
| 25> H   0.59696132 0.02386044 2.6878403
| 26> H   -1.13850358 1.28412487 2.15543556
| 27> H   3.13831431 1.85709145 0.80001083
| 28> H   1.79209806 2.49550029 1.68191766
| 29> H   2.90656528 1.33434891 2.43354358
| 30> H   -1.53306808 3.63080201 0.34203786
| 31> H   0.02870343 3.24223781 1.08867049
| 32> H   -0.11934942 3.44980924 -0.65231932
| 33> H   -0.28554851 -2.03777217 1.80561091
| 34> H   -2.57060568 -0.66371144 1.72065189
| 35> H   1.67337713 -1.48161225 -1.71098996
| 36> H   -1.56372583 -0.58711519 -2.19981065
| 37> *
| 38>
| 39>                          ****END OF INPUT****

CARTESIAN COORDINATES (ANGSTROEM)
---------------------------------
  O      2.924744    0.493700   -1.019029
  O     -0.356971    1.542263   -2.178311
  O      0.336419   -3.126937   -0.267028
  O     -3.060876   -1.673228   -0.493040
  N      0.350245   -1.466625    1.259194
  N     -2.059083   -0.187212    0.971069
  N      1.421453   -1.184833   -0.772219
  N     -1.396275   -0.256471   -1.261866
  C      1.667922    0.488998    0.900280
  C     -0.873688    1.641442    0.102468
  C      0.436512   -0.111171    1.586077
  C     -0.963904    0.705030    1.241591
  C      2.399924    1.580151    1.508442
  C     -0.593786    3.079938    0.221937
  C      2.088169   -0.046172   -0.349549
  C     -0.865661    1.006749   -1.214411
  C      0.657397   -2.016144    0.029839
  C     -2.239822   -0.807006   -0.265050
  H      0.596961    0.023860    2.687840
  H     -1.138504    1.284125    2.155436
  H      3.138314    1.857091    0.800011
  H      1.792098    2.495500    1.681918
  H      2.906565    1.334349    2.433544
  H     -1.533068    3.630802    0.342038
  H      0.028703    3.242238    1.088670
  H     -0.119349    3.449809   -0.652319
  H     -0.285549   -2.037772    1.805611
  H     -2.570606   -0.663711    1.720652
  H      1.673377   -1.481612   -1.710990
  H     -1.563726   -0.587115   -2.199811

 Total Charge           Charge          ....    0
 Multiplicity           Mult            ....    3
 Number of Electrons    NEL             ....  132
 Basis Dimension        Dim             ....  882

ORBITAL ENERGIES
----------------
                 SPIN UP ORBITALS
  NO   OCC          E(Eh)            E(eV)
   0   1.0000     -19.329571      -525.9844
   1   1.0000     -19.328297      -525.9497
   2   1.0000     -19.327001      -525.9144
   3   1.0000     -19.317738      -525.6624
   4   1.0000     -14.565941      -396.3594
   5   1.0000     -14.561842      -396.2479
   6   1.0000     -14.556644      -396.1064
   7   1.0000     -14.555140      -396.0655
   8   1.0000     -10.511685      -286.0375
   9   1.0000     -10.501452      -285.7590
  10   1.0000     -10.473776      -285.0059
  11   1.0000     -10.469430      -284.8877
  12   1.0000     -10.441435      -284.1259
  13   1.0000     -10.440429      -284.0985
  14   1.0000     -10.409225      -283.2494
  15   1.0000     -10.405792      -283.1560
  16   1.0000     -10.365438      -282.0579
  17   1.0000     -10.362869      -281.9880
  18   1.0000      -1.224426       -33.3183
  19   1.0000      -1.216147       -33.0930
  20   1.0000      -1.203629       -32.7524
  21   1.0000      -1.194967       -32.5167
  22   1.0000      -1.121189       -30.5091
  23   1.0000      -1.100492       -29.9459
  24   1.0000      -1.067491       -29.0479
  25   1.0000      -1.053604       -28.6700
  26   1.0000      -0.976310       -26.5667
  27   1.0000      -0.952562       -25.9205
  28   1.0000      -0.883154       -24.0318
  29   1.0000      -0.839397       -22.8411
  30   1.0000      -0.826908       -22.5013
  31   1.0000      -0.798924       -21.7398
  32   1.0000      -0.785991       -21.3879
  33   1.0000      -0.776502       -21.1297
  34   1.0000      -0.697213       -18.9721
  35   1.0000      -0.691073       -18.8050
  36   1.0000      -0.684992       -18.6396
  37   1.0000      -0.660840       -17.9824
  38   1.0000      -0.658718       -17.9246
  39   1.0000      -0.648948       -17.6588
  40   1.0000      -0.613067       -16.6824
  41   1.0000      -0.603545       -16.4233
  42   1.0000      -0.587929       -15.9984
  43   1.0000      -0.583268       -15.8715
  44   1.0000      -0.582158       -15.8413
  45   1.0000      -0.573216       -15.5980
  46   1.0000      -0.566065       -15.4034
  47   1.0000      -0.561705       -15.2848
  48   1.0000      -0.560391       -15.2490
  49   1.0000      -0.550218       -14.9722
  50   1.0000      -0.542703       -14.7677
  51   1.0000      -0.536561       -14.6006
  52   1.0000      -0.533931       -14.5290
  53   1.0000      -0.527040       -14.3415
  54   1.0000      -0.513772       -13.9804
  55   1.0000      -0.505356       -13.7514
  56   1.0000      -0.479998       -13.0614
  57   1.0000      -0.423609       -11.5270
  58   1.0000      -0.416230       -11.3262
  59   1.0000      -0.410897       -11.1811
  60   1.0000      -0.405624       -11.0376
  61   1.0000      -0.394685       -10.7399
  62   1.0000      -0.393186       -10.6991
  63   1.0000      -0.389067       -10.5871
  64   1.0000      -0.385223       -10.4825
  65   1.0000      -0.334142        -9.0925
  66   1.0000      -0.321480        -8.7479
  67   0.0000       0.006801         0.1851
  68   0.0000       0.030398         0.8272
  69   0.0000       0.032572         0.8863
  70   0.0000       0.038948         1.0598
  71   0.0000       0.054542         1.4842

                 SPIN DOWN ORBITALS
  NO   OCC          E(Eh)            E(eV)
   0   1.0000     -19.326743      -525.9074
   1   1.0000     -19.325521      -525.8742
   2   1.0000     -19.323437      -525.8175
   3   1.0000     -19.317564      -525.6576
   4   1.0000     -14.565239      -396.3403
   5   1.0000     -14.561538      -396.2396
   6   1.0000     -14.556280      -396.0965
   7   1.0000     -14.554711      -396.0538
   8   1.0000     -10.511697      -286.0378
   9   1.0000     -10.501474      -285.7596
  10   1.0000     -10.474704      -285.0312
  11   1.0000     -10.470482      -284.9163
  12   1.0000     -10.441014      -284.1144
  13   1.0000     -10.440162      -284.0912
  14   1.0000     -10.397988      -282.9436
  15   1.0000     -10.394202      -282.8406
  16   1.0000     -10.365954      -282.0719
  17   1.0000     -10.363518      -282.0057
  18   1.0000      -1.222443       -33.2644
  19   1.0000      -1.214056       -33.0361
  20   1.0000      -1.198164       -32.6037
  21   1.0000      -1.190613       -32.3982
  22   1.0000      -1.118581       -30.4381
  23   1.0000      -1.098045       -29.8793
  24   1.0000      -1.065771       -29.0011
  25   1.0000      -1.052055       -28.6279
  26   1.0000      -0.961618       -26.1670
  27   1.0000      -0.935798       -25.4644
  28   1.0000      -0.878911       -23.9164
  29   1.0000      -0.834565       -22.7097
  30   1.0000      -0.818188       -22.2640
  31   1.0000      -0.793451       -21.5909
  32   1.0000      -0.784719       -21.3533
  33   1.0000      -0.774926       -21.0868
  34   1.0000      -0.692471       -18.8431
  35   1.0000      -0.684161       -18.6170
  36   1.0000      -0.679128       -18.4800
  37   1.0000      -0.654894       -17.8206
  38   1.0000      -0.646097       -17.5812
  39   1.0000      -0.645106       -17.5542
  40   1.0000      -0.611319       -16.6348
  41   1.0000      -0.598899       -16.2969
  42   1.0000      -0.580887       -15.8067
  43   1.0000      -0.573505       -15.6059
  44   1.0000      -0.571181       -15.5426
  45   1.0000      -0.567147       -15.4329
  46   1.0000      -0.562325       -15.3016
  47   1.0000      -0.557321       -15.1655
  48   1.0000      -0.553151       -15.0520
  49   1.0000      -0.540270       -14.7015
  50   1.0000      -0.533893       -14.5280
  51   1.0000      -0.531749       -14.4696
  52   1.0000      -0.526210       -14.3189
  53   1.0000      -0.517106       -14.0712
  54   1.0000      -0.503534       -13.7019
  55   1.0000      -0.499927       -13.6037
  56   1.0000      -0.475234       -12.9318
  57   1.0000      -0.419323       -11.4103
  58   1.0000      -0.412582       -11.2269
  59   1.0000      -0.399797       -10.8790
  60   1.0000      -0.399026       -10.8580
  61   1.0000      -0.387277       -10.5383
  62   1.0000      -0.384582       -10.4650
  63   1.0000      -0.379797       -10.3348
  64   1.0000      -0.373318       -10.1585
  65   0.0000      -0.059008        -1.6057
  66   0.0000      -0.037481        -1.0199
  67   0.0000       0.006481         0.1764
  68   0.0000       0.030346         0.8258
  69   0.0000       0.032319         0.8794

----------------------------------------------------------------------------------------------------
          SPIN FLIP ABSORPTION SPECTRUM VIA TRANSITION ELECTRIC DIPOLE MOMENTS
----------------------------------------------------------------------------------------------------
     Transition      Energy     Energy  Wavelength fosc(D2)      D2        DX        DY        DZ
                      (eV)      (cm-1)    (nm)                 (au**2)    (au)      (au)      (au)
----------------------------------------------------------------------------------------------------
  1-3A  ->  2-3A    0.069416     559.9  17861.0   0.000000075   0.00004   0.00178   0.00592  -0.00247

Dispersion correction             ... done (  0.1 sec)

MULLIKEN ATOMIC CHARGES AND SPIN DENSITIES
------------------------------------------
   0 O :   -0.670305   -0.030525
   1 O :   -0.684661    0.017724
   2 O :   -0.625748   -0.001998
   3 O :   -0.640049   -0.000899
   4 N :   -0.306310    0.006032
   5 N :   -0.325984    0.001942
   6 N :    0.051632   -0.003597
   7 N :    0.059265    0.014182
   8 C :    0.765668    0.487241
   9 C :    0.324382    0.402112
  10 C :   -0.055613   -0.323866
  11 C :    0.430998   -0.133102
  12 C :   -1.216120    0.038593
  13 C :   -1.233957    0.005235
  14 C :    0.085917   -0.354139
  15 C :    0.135287   -0.224265
  16 C :    0.402737    0.024716
  17 C :    0.305773    0.008465
  18 H :    0.558971    0.003709
  19 H :    0.418652    0.007492
  20 H :    0.301449   -0.008269
  21 H :    0.270186    0.029940
  22 H :    0.349284    0.005842
  23 H :    0.324255    0.013280
  24 H :    0.377046    0.002950
  25 H :    0.300833    0.004151
  26 H :    0.085746    0.001411
  27 H :    0.106752    0.000445
  28 H :    0.035849    0.004435
  29 H :    0.068066    0.000764
Sum of atomic charges       :    0.0000000

LOEWDIN ATOMIC CHARGES AND SPIN DENSITIES
-----------------------------------------
   0 O :    0.112959   -0.026034
   1 O :    0.097474    0.015307
   2 O :    0.115201   -0.001456
   3 O :    0.094445   -0.000351
   4 N :    0.253645    0.000135
   5 N :    0.258762    0.001217
   6 N :    0.327747   -0.003328
   7 N :    0.323597    0.001112
   8 C :   -0.008112   -0.063084
   9 C :   -0.019294    0.082548
  10 C :   -0.097630   -0.000474
  11 C :   -0.103668    0.005992
  12 C :    0.193933   -0.012829
  13 C :    0.203267    0.011077
  14 C :   -0.442777   -0.017605
  15 C :   -0.430196    0.007318
  16 C :   -0.498685    0.000005
  17 C :   -0.444837   -0.000107
  18 H :    0.064424   -0.000003
  19 H :    0.050102    0.000242
  20 H :   -0.025854    0.000196
  21 H :    0.009637   -0.002958
  22 H :    0.012199   -0.003235
  23 H :    0.021455    0.004451
  24 H :   -0.027335    0.001332
  25 H :   -0.013363    0.000588
  26 H :   -0.014482   -0.000051
  27 H :   -0.009836    0.000157
  28 H :    0.004676   -0.000252
  29 H :   -0.007455    0.000091

  Mayer bond orders larger than 0.100000
B(  0-O , 14-C ) :   1.3269 B(  1-O , 15-C ) :   1.4304 B(  2-O , 16-C ) :   1.5542
B(  3-O , 17-C ) :   1.5437 B(  4-N ,  5-N ) :   0.1437 B(  4-N ,  8-C ) :   0.3059
B(  4-N , 10-C ) :   0.1522 B(  4-N , 16-C ) :   1.0598 B(  4-N , 26-H ) :   1.0624
B(  5-N ,  9-C ) :   0.3561 B(  5-N , 17-C ) :   1.1533 B(  5-N , 27-H ) :   1.0351
B(  6-N ,  8-C ) :  -0.1484 B(  6-N , 10-C ) :   0.1627 B(  6-N , 14-C ) :   1.0379
B(  6-N , 16-C ) :   0.9255 B(  6-N , 28-H ) :   1.1206 B(  7-N , 11-C ) :   0.1182
B(  7-N , 15-C ) :   0.9753 B(  7-N , 17-C ) :   0.9830 B(  7-N , 29-H ) :   1.0536
B(  8-C ,  9-C ) :   0.2720 B(  8-C , 12-C ) :   0.5484 B(  8-C , 14-C ) :   0.7130
B(  8-C , 16-C ) :   0.1013 B(  8-C , 18-H ) :  -0.1550 B(  8-C , 20-H ) :  -0.1515
B(  9-C , 11-C ) :   0.1693 B(  9-C , 13-C ) :   0.5376 B(  9-C , 15-C ) :   0.8807
B(  9-C , 25-H ) :  -0.1140 B( 10-C , 11-C ) :   0.7172 B( 10-C , 15-C ) :   0.1135
B( 10-C , 16-C ) :  -0.1640 B( 10-C , 18-H ) :   0.7518 B( 11-C , 15-C ) :  -0.1454
B( 11-C , 17-C ) :  -0.2309 B( 11-C , 19-H ) :   0.9523 B( 12-C , 20-H ) :   1.0967
B( 12-C , 21-H ) :   0.7945 B( 12-C , 22-H ) :   0.9176 B( 13-C , 23-H ) :   0.9405
B( 13-C , 24-H ) :   0.7250 B( 13-C , 25-H ) :   1.0276 B( 14-C , 15-C ) :   0.1410

Dispersion correction           -0.060292384
FINAL SINGLE POINT ENERGY      -908.788080272954

DIPOLE MOMENT
-------------

Method             : TDA/CIS
Type of density    : Electron Density
Level              : Relaxed density
State              :   1
Multiplicity       :   3
Irrep              :   0
Energy             :     0.0000000000000000 Eh
Relativity type    :
Basis              : AO
                                X                 Y                 Z
Electronic contribution:     -3.073299538     -10.631138021      -7.049069707
Nuclear contribution   :      2.848122184      12.100871527       9.699097785
                        -----------------------------------------
Total Dipole Moment    :     -0.225177354       1.469733505       2.650028079
                        -----------------------------------------
Magnitude (a.u.)       :      3.038662573
Magnitude (Debye)      :      7.723666451

Rotational constants in cm-1:             0.019328             0.016162             0.012858
Rotational constants in MHz :           579.435480           484.530067           385.461110

                             ****ORCA TERMINATED NORMALLY****
TOTAL RUN TIME: 0 days 0 hours 4 minutes 33 seconds 904 msec
