                         Program Version 6.0.0  -   RELEASE  -
|  1> ! Engrad def2-TZVPPD wB97M-D3BJ
|  2> %pal nprocs 8 end%pal nprocs 32 end
|  3> %tddft Nroots 2 Iroot 1
|  4> sf true
|  5> end
|  6> *xyz 0 3
|  7> O   0.06458649 1.34366141 0.25436267
|  8> C   0.69073244 0.32639513 -0.28539261
|  9> C   -0.08846746 -1.00202522 -0.00063474
| 10> H   0.64981702 -1.8096298 -0.0409122
| 11> H   1.67054717 0.54543151 -0.73816285
| 12> H   -0.95432673 -1.14685338 -0.54424796
| 13> H   -0.35204012 -0.86558628 1.06121657
| 14> *
| 15>
| 16>                          ****END OF INPUT****

CARTESIAN COORDINATES (ANGSTROEM)
---------------------------------
  O      0.064586    1.343661    0.254363
  C      0.690732    0.326395   -0.285393
  C     -0.088467   -1.002025   -0.000635
  H      0.649817   -1.809630   -0.040912
  H      1.670547    0.545432   -0.738163
  H     -0.954327   -1.146853   -0.544248
  H     -0.352040   -0.865586    1.061217

 Total Charge           Charge          ....    0
 Multiplicity           Mult            ....    3
 Number of Electrons    NEL             ....   24
 Basis Dimension        Dim             ....  182

ORBITAL ENERGIES
----------------
                 SPIN UP ORBITALS
  NO   OCC          E(Eh)            E(eV)
   0   1.0000     -19.417924      -528.3886
   1   1.0000     -10.398240      -282.9505
   2   1.0000     -10.366766      -282.0940
   3   1.0000      -1.204027       -32.7632
   4   1.0000      -0.870894       -23.6982
   5   1.0000      -0.725891       -19.7525
   6   1.0000      -0.618838       -16.8394
   7   1.0000      -0.576836       -15.6965
   8   1.0000      -0.558035       -15.1849
   9   1.0000      -0.518972       -14.1220
  10   1.0000      -0.497145       -13.5280
  11   1.0000      -0.447703       -12.1826
  12   1.0000      -0.253881        -6.9085
  13   0.0000       0.042684         1.1615
  14   0.0000       0.060456         1.6451
  15   0.0000       0.080400         2.1878
  16   0.0000       0.090028         2.4498
  17   0.0000       0.108274         2.9463

                 SPIN DOWN ORBITALS
  NO   OCC          E(Eh)            E(eV)
   0   1.0000     -19.389398      -527.6123
   1   1.0000     -10.386685      -282.6361
   2   1.0000     -10.365446      -282.0581
   3   1.0000      -1.138956       -30.9926
   4   1.0000      -0.854179       -23.2434
   5   1.0000      -0.684193       -18.6178
   6   1.0000      -0.569445       -15.4954
   7   1.0000      -0.551226       -14.9996
   8   1.0000      -0.509033       -13.8515
   9   1.0000      -0.498512       -13.5652
  10   1.0000      -0.453994       -12.3538
  11   0.0000      -0.073691        -2.0052
  12   0.0000       0.041574         1.1313
  13   0.0000       0.058754         1.5988
  14   0.0000       0.061122         1.6632
  15   0.0000       0.081125         2.2075

----------------------------------------------------------------------------------------------------
          SPIN FLIP ABSORPTION SPECTRUM VIA TRANSITION ELECTRIC DIPOLE MOMENTS
----------------------------------------------------------------------------------------------------
     Transition      Energy     Energy  Wavelength fosc(D2)      D2        DX        DY        DZ
                      (eV)      (cm-1)    (nm)                 (au**2)    (au)      (au)      (au)
----------------------------------------------------------------------------------------------------
  1-3A  ->  2-3A    3.408191   27488.9   363.8   0.000068646   0.00082   0.01256   0.02575   0.00123

Dispersion correction             ... done (  0.0 sec)

MULLIKEN ATOMIC CHARGES AND SPIN DENSITIES
------------------------------------------
   0 O :   -0.538356    0.034208
   1 C :    0.151135   -0.147681
   2 C :   -0.619765    0.038987
   3 H :    0.236220    0.001049
   4 H :    0.314652    0.068406
   5 H :    0.231828    0.002264
   6 H :    0.224286    0.002768
Sum of atomic charges       :   -0.0000000

LOEWDIN ATOMIC CHARGES AND SPIN DENSITIES
-----------------------------------------
   0 O :   -0.087095    0.002412
   1 C :   -0.047758   -0.001363
   2 C :    0.193150    0.001552
   3 H :   -0.019102   -0.000033
   4 H :    0.017416   -0.001984
   5 H :   -0.057281    0.000074
   6 H :    0.000671   -0.000658

  Mayer bond orders larger than 0.100000
B(  0-O ,  1-C ) :   1.7673 B(  1-C ,  2-C ) :   0.8171 B(  1-C ,  4-H ) :   0.9134
B(  2-C ,  3-H ) :   0.9946 B(  2-C ,  5-H ) :   0.9574 B(  2-C ,  6-H ) :   0.9506

Dispersion correction           -0.005479891
FINAL SINGLE POINT ENERGY      -153.887219150723

DIPOLE MOMENT
-------------

Method             : TDA/CIS
Type of density    : Electron Density
Level              : Relaxed density
State              :   1
Multiplicity       :   3
Irrep              :   0
Energy             :     0.0000000000000000 Eh
Relativity type    :
Basis              : AO
                                X                 Y                 Z
Electronic contribution:      0.319609441       2.755467913      -0.151077524
Nuclear contribution   :      0.157830976      -3.916201341      -0.273772258
                        -----------------------------------------
Total Dipole Moment    :      0.477440417      -1.160733428      -0.424849782
                        -----------------------------------------
Magnitude (a.u.)       :      1.325046708
Magnitude (Debye)      :      3.368001072

Rotational constants in cm-1:             1.466574             0.352102             0.299709
Rotational constants in MHz :         43966.777583         10555.759329          8985.057844

                             ****ORCA TERMINATED NORMALLY****
TOTAL RUN TIME: 0 days 0 hours 0 minutes 16 seconds 829 msec
