                         Program Version 6.0.0  -   RELEASE  -
|  1> ! Engrad wB97M-D3BJ def2-TZVPPD
|  2> %pal nprocs 8 end%pal nprocs 16 end
|  3> %tddft nroots 2 Iroot 2
|  4>  sf true
|  5> end
|  6> *xyz 0 3
|  7> O   1.5809124202213 0.98113110813638 -0.04220413213917
|  8> C   0.95978637926085 -0.01204021529837 0.21296972271874
|  9> C   -0.30799406392862 -0.6732524455381 -0.23336576250298
| 10> H   1.40979477365274 -0.66563685272446 1.00050777833198
| 11> H   -0.04156554408878 -1.67009522363837 -0.58340089971781
| 12> H   -0.85477550898554 -0.13767203420002 -1.00612376260264
| 13> H   -0.93121809487148 -0.79771858315405 0.65161705591189
| 14> *
| 15>
| 16>                          ****END OF INPUT****

CARTESIAN COORDINATES (ANGSTROEM)
---------------------------------
  O      1.580912    0.981131   -0.042204
  C      0.959786   -0.012040    0.212970
  C     -0.307994   -0.673252   -0.233366
  H      1.409795   -0.665637    1.000508
  H     -0.041566   -1.670095   -0.583401
  H     -0.854776   -0.137672   -1.006124
  H     -0.931218   -0.797719    0.651617

 Total Charge           Charge          ....    0
 Multiplicity           Mult            ....    3
 Number of Electrons    NEL             ....   24
 Basis Dimension        Dim             ....  182

ORBITAL ENERGIES
----------------
                 SPIN UP ORBITALS
  NO   OCC          E(Eh)            E(eV)
   0   1.0000     -19.405773      -528.0579
   1   1.0000     -10.380734      -282.4741
   2   1.0000     -10.370697      -282.2010
   3   1.0000      -1.242566       -33.8119
   4   1.0000      -0.888720       -24.1833
   5   1.0000      -0.715496       -19.4696
   6   1.0000      -0.629234       -17.1223
   7   1.0000      -0.589424       -16.0390
   8   1.0000      -0.580464       -15.7952
   9   1.0000      -0.517389       -14.0789
  10   1.0000      -0.516739       -14.0612
  11   1.0000      -0.424244       -11.5443
  12   1.0000      -0.217229        -5.9111
  13   0.0000       0.037929         1.0321
  14   0.0000       0.059762         1.6262
  15   0.0000       0.077579         2.1110
  16   0.0000       0.087415         2.3787
  17   0.0000       0.106255         2.8914

                 SPIN DOWN ORBITALS
  NO   OCC          E(Eh)            E(eV)
   0   1.0000     -19.378723      -527.3219
   1   1.0000     -10.370481      -282.1951
   2   1.0000     -10.368754      -282.1481
   3   1.0000      -1.186646       -32.2903
   4   1.0000      -0.869721       -23.6663
   5   1.0000      -0.669580       -18.2202
   6   1.0000      -0.585094       -15.9212
   7   1.0000      -0.541957       -14.7474
   8   1.0000      -0.535703       -14.5772
   9   1.0000      -0.497455       -13.5364
  10   1.0000      -0.471465       -12.8292
  11   0.0000      -0.081748        -2.2245
  12   0.0000       0.039029         1.0620
  13   0.0000       0.059426         1.6171
  14   0.0000       0.077152         2.0994
  15   0.0000       0.084898         2.3102

----------------------------------------------------------------------------------------------------
          SPIN FLIP ABSORPTION SPECTRUM VIA TRANSITION ELECTRIC DIPOLE MOMENTS
----------------------------------------------------------------------------------------------------
     Transition      Energy     Energy  Wavelength fosc(D2)      D2        DX        DY        DZ
                      (eV)      (cm-1)    (nm)                 (au**2)    (au)      (au)      (au)
----------------------------------------------------------------------------------------------------
  1-3A  ->  2-3A    4.615626   37227.5   268.6   0.000329329   0.00291  -0.02736   0.02687   0.03797

Dispersion correction             ... done (  0.0 sec)

MULLIKEN ATOMIC CHARGES AND SPIN DENSITIES
------------------------------------------
   0 O :   -0.276768    0.549236
   1 C :    0.238031   -0.600675
   2 C :   -0.706454    0.117688
   3 H :    0.079256    0.034647
   4 H :    0.209024   -0.051072
   5 H :    0.247402   -0.000753
   6 H :    0.209510   -0.049071
Sum of atomic charges       :    0.0000000

LOEWDIN ATOMIC CHARGES AND SPIN DENSITIES
-----------------------------------------
   0 O :    0.153914    0.364107
   1 C :   -0.258547   -0.329411
   2 C :    0.131568   -0.021429
   3 H :    0.021342    0.025551
   4 H :   -0.021196   -0.024121
   5 H :   -0.005891    0.009333
   6 H :   -0.021189   -0.024031

  Mayer bond orders larger than 0.100000
B(  0-O ,  1-C ) :   1.3059 B(  1-C ,  2-C ) :   0.5971 B(  1-C ,  3-H ) :   0.9894
B(  2-C ,  4-H ) :   1.0169 B(  2-C ,  5-H ) :   0.9284 B(  2-C ,  6-H ) :   1.0166

Dispersion correction           -0.005505791
FINAL SINGLE POINT ENERGY      -153.748862707940

DIPOLE MOMENT
-------------

Method             : TDA/CIS
Type of density    : Electron Density
Level              : Relaxed density
State              :   2
Multiplicity       :   3
Irrep              :   0
Energy             :     0.0000000000000000 Eh
Relativity type    :
Basis              : AO
                                X                 Y                 Z
Electronic contribution:      2.709766454       2.890615466      -0.092306427
Nuclear contribution   :     -3.165171623      -3.410901343       0.131406611
                        -----------------------------------------
Total Dipole Moment    :     -0.455405169      -0.520285877       0.039100185
                        -----------------------------------------
Magnitude (a.u.)       :      0.692546089
Magnitude (Debye)      :      1.760312264

Rotational constants in cm-1:             2.322131             0.310993             0.288841
Rotational constants in MHz :         69615.723409          9323.342113          8659.248190

                             ****ORCA TERMINATED NORMALLY****
TOTAL RUN TIME: 0 days 0 hours 0 minutes 16 seconds 385 msec
