                         Program Version 6.0.0  -   RELEASE  -
|  1> ! Engrad def2-TZVPPD wB97M-D3BJ
|  2> %pal nprocs 8 end%pal nprocs 64 end
|  3> %tddft
|  4>  Iroot 1 Nroots 3
|  5> sf true
|  6> end
|  7> *xyz 0 3
|  8> O   1.30018246 0.65885829 -0.38257312
|  9> C   0.43008902 0.26731473 0.53818689
| 10> C   -0.53366606 -0.80366079 0.09873771
| 11> H   -0.21080336 1.17158079 0.80437232
| 12> H   0.97409777 -0.03172947 1.42457923
| 13> H   -0.77097236 -0.75847318 -1.00105771
| 14> H   -0.62792939 -1.7673954 0.53251404
| 15> *
| 16>
| 17>                          ****END OF INPUT****

CARTESIAN COORDINATES (ANGSTROEM)
---------------------------------
  O      1.300182    0.658858   -0.382573
  C      0.430089    0.267315    0.538187
  C     -0.533666   -0.803661    0.098738
  H     -0.210803    1.171581    0.804372
  H      0.974098   -0.031729    1.424579
  H     -0.770972   -0.758473   -1.001058
  H     -0.627929   -1.767395    0.532514

 Total Charge           Charge          ....    0
 Multiplicity           Mult            ....    3
 Number of Electrons    NEL             ....   24
 Basis Dimension        Dim             ....  182

ORBITAL ENERGIES
----------------
                 SPIN UP ORBITALS
  NO   OCC          E(Eh)            E(eV)
   0   1.0000     -19.387923      -527.5722
   1   1.0000     -10.415349      -283.4160
   2   1.0000     -10.369190      -282.1600
   3   1.0000      -1.186423       -32.2842
   4   1.0000      -0.870369       -23.6839
   5   1.0000      -0.733947       -19.9717
   6   1.0000      -0.624088       -16.9823
   7   1.0000      -0.590842       -16.0776
   8   1.0000      -0.562146       -15.2968
   9   1.0000      -0.505767       -13.7626
  10   1.0000      -0.438607       -11.9351
  11   1.0000      -0.412210       -11.2168
  12   1.0000      -0.328219        -8.9313
  13   0.0000       0.041889         1.1399
  14   0.0000       0.061613         1.6766
  15   0.0000       0.077813         2.1174
  16   0.0000       0.086285         2.3479
  17   0.0000       0.111010         3.0207

                 SPIN DOWN ORBITALS
  NO   OCC          E(Eh)            E(eV)
   0   1.0000     -19.364750      -526.9416
   1   1.0000     -10.416636      -283.4511
   2   1.0000     -10.355601      -281.7902
   3   1.0000      -1.135644       -30.9024
   4   1.0000      -0.837007       -22.7761
   5   1.0000      -0.707075       -19.2405
   6   1.0000      -0.594328       -16.1725
   7   1.0000      -0.546892       -14.8817
   8   1.0000      -0.533371       -14.5138
   9   1.0000      -0.487836       -13.2747
  10   1.0000      -0.381878       -10.3914
  11   0.0000      -0.058229        -1.5845
  12   0.0000      -0.002549        -0.0694
  13   0.0000       0.041164         1.1201
  14   0.0000       0.061982         1.6866
  15   0.0000       0.077815         2.1175

----------------------------------------------------------------------------------------------------
          SPIN FLIP ABSORPTION SPECTRUM VIA TRANSITION ELECTRIC DIPOLE MOMENTS
----------------------------------------------------------------------------------------------------
     Transition      Energy     Energy  Wavelength fosc(D2)      D2        DX        DY        DZ
                      (eV)      (cm-1)    (nm)                 (au**2)    (au)      (au)      (au)
----------------------------------------------------------------------------------------------------
  1-3A  ->  2-3A    0.291851    2353.9  4248.2   0.000181023   0.02532  -0.08998  -0.13065  -0.01227
  1-3A  ->  3-3A    0.953479    7690.3  1300.3   0.008842976   0.37856   0.48994   0.26490  -0.26142

Dispersion correction             ... done (  0.2 sec)

MULLIKEN ATOMIC CHARGES AND SPIN DENSITIES
------------------------------------------
   0 O :   -0.472010   -0.527669
   1 C :    0.010722   -0.039146
   2 C :   -0.480656    0.453585
   3 H :    0.231579    0.098164
   4 H :    0.219632   -0.059574
   5 H :    0.254066    0.036309
   6 H :    0.236667    0.038332
Sum of atomic charges       :   -0.0000000

LOEWDIN ATOMIC CHARGES AND SPIN DENSITIES
-----------------------------------------
   0 O :   -0.027984   -0.520147
   1 C :   -0.333656    0.007108
   2 C :    0.347063    0.421270
   3 H :    0.057194    0.041011
   4 H :    0.027392   -0.047002
   5 H :   -0.006555    0.042603
   6 H :   -0.063454    0.055158

  Mayer bond orders larger than 0.100000
B(  0-O ,  1-C ) :   1.0201 B(  0-O ,  2-C ) :   0.3015 B(  1-C ,  2-C ) :   0.8069
B(  1-C ,  3-H ) :   0.9483 B(  1-C ,  4-H ) :   0.9265 B(  2-C ,  5-H ) :   0.9668
B(  2-C ,  6-H ) :   0.9682

Dispersion correction           -0.005518845
FINAL SINGLE POINT ENERGY      -153.756511789998

DIPOLE MOMENT
-------------

Method             : TDA/CIS
Type of density    : Electron Density
Level              : Relaxed density
State              :   1
Multiplicity       :   3
Irrep              :   0
Energy             :     0.0000000000000000 Eh
Relativity type    :
Basis              : AO
                                X                 Y                 Z
Electronic contribution:      1.332272389       0.828670617      -0.707657853
Nuclear contribution   :     -2.194888552      -1.521657553       1.363367571
                        -----------------------------------------
Total Dipole Moment    :     -0.862616163      -0.692986936       0.655709718
                        -----------------------------------------
Magnitude (a.u.)       :      1.286193132
Magnitude (Debye)      :      3.269243131

Rotational constants in cm-1:             1.468574             0.353381             0.310297
Rotational constants in MHz :         44026.750762         10594.085074          9302.459096

                             ****ORCA TERMINATED NORMALLY****
TOTAL RUN TIME: 0 days 0 hours 0 minutes 27 seconds 224 msec
