                         Program Version 6.0.0  -   RELEASE  -
|  1> ! Opt wB97M-D3BJ def2-TZVPPD
|  2> %pal nprocs 8 end %pal nprocs 64 end
|  3> %geom
|  4> Constraints
|  5>     {A 2 1 0 120.0 C }
|  6> end
|  7> MaxIter 500
|  8> end
|  9> *xyz 0 1
| 10> O   -0.0007 0.8141 0.0
| 11> C   0.7509 -0.4065 0.0
| 12> C   -0.7502 -0.4076 0.0
| 13> H   1.2625 -0.6786 0.9136
| 14> H   1.2625 -0.6787 -0.9136
| 15> H   -1.2614 -0.6806 -0.9136
| 16> H   -1.2614 -0.6805 0.9136
| 17> *
| 18>
| 19>                          ****END OF INPUT****
 Total Charge           Charge          ....    0
 Multiplicity           Mult            ....    1
 Number of Electrons    NEL             ....   24
Dispersion correction           -0.005774719
FINAL SINGLE POINT ENERGY      -153.620646245956
Dispersion correction             ... done (  0.1 sec)
Dispersion correction           -0.005663831
FINAL SINGLE POINT ENERGY      -153.703615737638
Dispersion correction             ... done (  0.1 sec)
Dispersion correction           -0.005590055
FINAL SINGLE POINT ENERGY      -153.725845099631
Dispersion correction             ... done (  0.1 sec)
FINAL SINGLE POINT ENERGY      -153.738313455050
FINAL SINGLE POINT ENERGY      -153.746019309634
FINAL SINGLE POINT ENERGY      -153.749492560271
FINAL SINGLE POINT ENERGY      -153.751683532007
FINAL SINGLE POINT ENERGY      -153.757110034748
FINAL SINGLE POINT ENERGY      -153.764377311255
FINAL SINGLE POINT ENERGY      -153.772742660241
FINAL SINGLE POINT ENERGY      -153.930990357842
FINAL SINGLE POINT ENERGY      -153.930997556221
FINAL SINGLE POINT ENERGY      -153.931001988548
FINAL SINGLE POINT ENERGY      -153.931005879230
FINAL SINGLE POINT ENERGY      -153.931007026386
FINAL SINGLE POINT ENERGY      -153.931007882333
FINAL SINGLE POINT ENERGY      -153.931008879663
Dispersion correction             ... done (  0.0 sec)
Dispersion correction           -0.005545846
FINAL SINGLE POINT ENERGY      -153.931009250229
Dispersion correction             ... done (  0.1 sec)
Dispersion correction           -0.005545874
FINAL SINGLE POINT ENERGY      -153.931009378112
Dispersion correction             ... done (  0.1 sec)
                    ***********************HURRAY********************

CARTESIAN COORDINATES (ANGSTROEM)
---------------------------------
  O      0.508110    1.327444    0.072029
  C      0.576466    0.178968   -0.283213
  C     -0.431440   -0.821830    0.210103
  H      0.073727   -1.634680    0.734101
  H      1.367467   -0.168813   -0.970202
  H     -0.956746   -1.271171   -0.634084
  H     -1.135384   -0.328320    0.871266

 Multiplicity           Mult            ....    1
 Number of Electrons    NEL             ....   24
 Basis Dimension        Dim             ....  182

ORBITAL ENERGIES
----------------

  NO   OCC          E(Eh)            E(eV)
   0   2.0000     -19.338033      -526.2146
   1   2.0000     -10.442993      -284.1683
   2   2.0000     -10.354525      -281.7609
   3   2.0000      -1.187271       -32.3073
   4   2.0000      -0.878853       -23.9148
   5   2.0000      -0.705547       -19.1989
   6   2.0000      -0.598650       -16.2901
   7   2.0000      -0.558428       -15.1956
   8   2.0000      -0.550435       -14.9781
   9   2.0000      -0.507600       -13.8125
  10   2.0000      -0.474013       -12.8985
  11   2.0000      -0.368383       -10.0242
  12   0.0000       0.038469         1.0468
  13   0.0000       0.052962         1.4412
  14   0.0000       0.059100         1.6082
  15   0.0000       0.084046         2.2870
  16   0.0000       0.086688         2.3589

MULLIKEN ATOMIC CHARGES
-----------------------
   0 O :   -0.474109
   1 C :    0.239596
   2 C :   -0.694475
   3 H :    0.222350
   4 H :    0.243586
   5 H :    0.222217
   6 H :    0.240835
Sum of atomic charges:   -0.0000000

LOEWDIN ATOMIC CHARGES
----------------------
   0 O :    0.061391
   1 C :   -0.215576
   2 C :    0.166483
   3 H :   -0.012878
   4 H :    0.023374
   5 H :   -0.012862
   6 H :   -0.009932

  Mayer bond orders larger than 0.100000
B(  0-O ,  1-C ) :   1.7711 B(  1-C ,  2-C ) :   0.7687 B(  1-C ,  4-H ) :   0.9826
B(  2-C ,  3-H ) :   0.9936 B(  2-C ,  5-H ) :   0.9933 B(  2-C ,  6-H ) :   0.9579

Dispersion correction           -0.005545872
FINAL SINGLE POINT ENERGY      -153.931009416206

DIPOLE MOMENT
-------------

Method             : SCF
Type of density    : Electron Density
Multiplicity       :   1
Irrep              :   0
Energy             :  -153.9254635437984575 Eh
Relativity type    :
Basis              : AO
                                X                 Y                 Z
Electronic contribution:      1.303518854       2.954337690      -0.198689208
Nuclear contribution   :     -1.391262333      -4.035554653      -0.021470532
                        -----------------------------------------
Total Dipole Moment    :     -0.087743479      -1.081216963      -0.220159740
                        -----------------------------------------
Magnitude (a.u.)       :      1.106887234
Magnitude (Debye)      :      2.813483759

Rotational constants in cm-1:             1.794775             0.352877             0.311750
Rotational constants in MHz :         53805.997049         10578.986806          9346.043173

                             ****ORCA TERMINATED NORMALLY****
TOTAL RUN TIME: 0 days 0 hours 11 minutes 9 seconds 562 msec
