                         Program Version 6.0.0  -   RELEASE  -
|  1> ! Opt wB97M-D3BJ def2-TZVPPD
|  2> %pal nprocs 8 end %pal nprocs 64 end
|  3> %geom
|  4> Constraints
|  5>     {A 2 1 0 66.10169491525424 C }
|  6> end
|  7> MaxIter 200
|  8> end
|  9> *xyz 0 1
| 10> O   0.16923004396346153 0.9036247964390461 0.0
| 11> C   0.7509 -0.4065 0.0
| 12> C   -0.7502 -0.4076 0.0
| 13> H   1.2625 -0.6786 0.9136
| 14> H   1.2625 -0.6787 -0.9136
| 15> H   -1.2614 -0.6806 -0.9136
| 16> H   -1.2614 -0.6805 0.9136
| 17> *
| 18>
| 19>                          ****END OF INPUT****
 Total Charge           Charge          ....    0
 Multiplicity           Mult            ....    1
 Number of Electrons    NEL             ....   24
Dispersion correction           -0.005178639
FINAL SINGLE POINT ENERGY      -153.874144199964
Dispersion correction             ... done (  0.1 sec)
Dispersion correction           -0.005222445
FINAL SINGLE POINT ENERGY      -153.882217708955
Dispersion correction             ... done (  0.1 sec)
Dispersion correction           -0.005242748
FINAL SINGLE POINT ENERGY      -153.883270510921
Dispersion correction             ... done (  0.1 sec)
FINAL SINGLE POINT ENERGY      -153.883353771644
Dispersion correction             ... done (  0.1 sec)
Dispersion correction           -0.005235213
FINAL SINGLE POINT ENERGY      -153.883390751578
Dispersion correction             ... done (  0.1 sec)
Dispersion correction           -0.005235640
FINAL SINGLE POINT ENERGY      -153.883394809200
Dispersion correction             ... done (  0.1 sec)
                    ***********************HURRAY********************

CARTESIAN COORDINATES (ANGSTROEM)
---------------------------------
  O      0.110680    0.831807   -0.000052
  C      0.724621   -0.407569    0.000079
  C     -0.705674   -0.468861   -0.000115
  H      1.263265   -0.668677    0.907516
  H      1.263148   -0.668917   -0.907390
  H     -1.242076   -0.623407   -0.923062
  H     -1.241834   -0.623251    0.923023

 Multiplicity           Mult            ....    1
 Number of Electrons    NEL             ....   24
 Basis Dimension        Dim             ....  182

ORBITAL ENERGIES
----------------

  NO   OCC          E(Eh)            E(eV)
   0   2.0000     -19.350040      -526.5414
   1   2.0000     -10.402560      -283.0681
   2   2.0000     -10.397345      -282.9261
   3   2.0000      -1.194554       -32.5055
   4   2.0000      -0.817938       -22.2572
   5   2.0000      -0.750072       -20.4105
   6   2.0000      -0.630349       -17.1527
   7   2.0000      -0.593663       -16.1544
   8   2.0000      -0.497463       -13.5367
   9   2.0000      -0.490834       -13.3563
  10   2.0000      -0.427350       -11.6288
  11   2.0000      -0.382931       -10.4201
  12   0.0000       0.041816         1.1379
  13   0.0000       0.058544         1.5931
  14   0.0000       0.072255         1.9662
  15   0.0000       0.077592         2.1114
  16   0.0000       0.113982         3.1016

MULLIKEN ATOMIC CHARGES
-----------------------
   0 O :   -0.392545
   1 C :   -0.135527
   2 C :   -0.212795
   3 H :    0.187389
   4 H :    0.187353
   5 H :    0.183076
   6 H :    0.183050
Sum of atomic charges:    0.0000000

LOEWDIN ATOMIC CHARGES
----------------------
   0 O :   -0.030644
   1 C :   -0.112270
   2 C :    0.093375
   3 H :    0.019019
   4 H :    0.019020
   5 H :    0.005751
   6 H :    0.005748

  Mayer bond orders larger than 0.100000
B(  0-O ,  1-C ) :   0.7785 B(  0-O ,  2-C ) :   0.8651 B(  1-C ,  2-C ) :   0.8167
B(  1-C ,  3-H ) :   1.0326 B(  1-C ,  4-H ) :   1.0327 B(  2-C ,  5-H ) :   1.0004
B(  2-C ,  6-H ) :   1.0004

Dispersion correction           -0.005236167
FINAL SINGLE POINT ENERGY      -153.883395714382

DIPOLE MOMENT
-------------

Method             : SCF
Type of density    : Electron Density
Multiplicity       :   1
Irrep              :   0
Energy             :  -153.8781595473313359 Eh
Relativity type    :
Basis              : AO
                                X                 Y                 Z
Electronic contribution:      0.043277999       1.598322709      -0.000158704
Nuclear contribution   :     -0.133053227      -2.427265253       0.000183429
                        -----------------------------------------
Total Dipole Moment    :     -0.089775228      -0.828942544       0.000024725
                        -----------------------------------------
Magnitude (a.u.)       :      0.833789742
Magnitude (Debye)      :      2.119325098

Rotational constants in cm-1:             0.861843             0.723474             0.466901
Rotational constants in MHz :         25837.415735         21689.197900         13997.325180

                             ****ORCA TERMINATED NORMALLY****
TOTAL RUN TIME: 0 days 0 hours 1 minutes 28 seconds 778 msec
