                         Program Version 6.0.0  -   RELEASE  -
|  1> ! Engrad def2-TZVPPD wB97M-D3BJ
|  2> %pal nprocs 8 end%pal nprocs 64 end
|  3> %tddft
|  4>  Iroot 2 Nroots 3
|  5> sf true
|  6> end
|  7> *xyz 0 3
|  8> O   3.42737991 -0.24782376 -0.01216437
|  9> O   -0.34857815 0.74154232 -2.74853594
| 10> O   -0.24491853 -2.72947802 -0.82235018
| 11> O   -3.51155165 -0.7302213 0.00773095
| 12> N   -0.27888074 -1.36265627 1.01486315
| 13> N   -2.02222474 0.7677714 0.80796965
| 14> N   1.50150527 -1.32598561 -0.475849
| 15> N   -1.87716854 -0.0172079 -1.32381015
| 16> C   1.60360926 0.12547325 1.39648447
| 17> C   -0.10662692 1.36248791 -0.46489177
| 18> C   0.15518432 -0.10639548 1.59415206
| 19> C   -0.6068862 1.08488539 0.887394
| 20> C   2.3222705 1.05238138 2.26575212
| 21> C   0.74956493 2.48779384 -0.63425508
| 22> C   2.26267259 -0.43710257 0.26589881
| 23> C   -0.7301147 0.73871518 -1.56458036
| 24> C   0.22638698 -1.86699402 -0.1658108
| 25> C   -2.48910793 -0.07377524 -0.1346667
| 26> H   -0.15750709 -0.09539358 2.61359993
| 27> H   -0.4052318 1.92307311 1.58288197
| 28> H   3.37970946 1.10428321 2.10839701
| 29> H   1.76142246 1.99684914 2.22043698
| 30> H   2.27935646 0.71380766 3.29491353
| 31> H   1.59378626 2.39245662 0.05402899
| 32> H   1.12678433 2.68980448 -1.67863115
| 33> H   0.0856649 3.31945428 -0.2776985
| 34> H   -1.2658386 -1.51356133 1.20198687
| 35> H   -2.48667995 0.67605342 1.75761733
| 36> H   1.97856218 -1.67069866 -1.29096524
| 37> H   -2.26931598 -0.52773095 -2.03808372
| 38> *
| 39>
| 40>                          ****END OF INPUT****

CARTESIAN COORDINATES (ANGSTROEM)
---------------------------------
  O      3.427380   -0.247824   -0.012164
  O     -0.348578    0.741542   -2.748536
  O     -0.244919   -2.729478   -0.822350
  O     -3.511552   -0.730221    0.007731
  N     -0.278881   -1.362656    1.014863
  N     -2.022225    0.767771    0.807970
  N      1.501505   -1.325986   -0.475849
  N     -1.877169   -0.017208   -1.323810
  C      1.603609    0.125473    1.396484
  C     -0.106627    1.362488   -0.464892
  C      0.155184   -0.106395    1.594152
  C     -0.606886    1.084885    0.887394
  C      2.322271    1.052381    2.265752
  C      0.749565    2.487794   -0.634255
  C      2.262673   -0.437103    0.265899
  C     -0.730115    0.738715   -1.564580
  C      0.226387   -1.866994   -0.165811
  C     -2.489108   -0.073775   -0.134667
  H     -0.157507   -0.095394    2.613600
  H     -0.405232    1.923073    1.582882
  H      3.379709    1.104283    2.108397
  H      1.761422    1.996849    2.220437
  H      2.279356    0.713808    3.294914
  H      1.593786    2.392457    0.054029
  H      1.126784    2.689804   -1.678631
  H      0.085665    3.319454   -0.277699
  H     -1.265839   -1.513561    1.201987
  H     -2.486680    0.676053    1.757617
  H      1.978562   -1.670699   -1.290965
  H     -2.269316   -0.527731   -2.038084

 Total Charge           Charge          ....    0
 Multiplicity           Mult            ....    3
 Number of Electrons    NEL             ....  132
 Basis Dimension        Dim             ....  882

ORBITAL ENERGIES
----------------
                 SPIN UP ORBITALS
  NO   OCC          E(Eh)            E(eV)
   0   1.0000     -19.332313      -526.0590
   1   1.0000     -19.331522      -526.0375
   2   1.0000     -19.325154      -525.8642
   3   1.0000     -19.313794      -525.5551
   4   1.0000     -14.571288      -396.5049
   5   1.0000     -14.561415      -396.2362
   6   1.0000     -14.556578      -396.1046
   7   1.0000     -14.555699      -396.0807
   8   1.0000     -10.507571      -285.9255
   9   1.0000     -10.498633      -285.6823
  10   1.0000     -10.479026      -285.1488
  11   1.0000     -10.475424      -285.0508
  12   1.0000     -10.449051      -284.3331
  13   1.0000     -10.444264      -284.2029
  14   1.0000     -10.417401      -283.4719
  15   1.0000     -10.415940      -283.4321
  16   1.0000     -10.382231      -282.5149
  17   1.0000     -10.377447      -282.3847
  18   1.0000      -1.230291       -33.4779
  19   1.0000      -1.222149       -33.2564
  20   1.0000      -1.203477       -32.7483
  21   1.0000      -1.186239       -32.2792
  22   1.0000      -1.129313       -30.7302
  23   1.0000      -1.101034       -29.9607
  24   1.0000      -1.070461       -29.1287
  25   1.0000      -1.053653       -28.6714
  26   1.0000      -1.002330       -27.2748
  27   1.0000      -0.972640       -26.4669
  28   1.0000      -0.898124       -24.4392
  29   1.0000      -0.848294       -23.0833
  30   1.0000      -0.841543       -22.8995
  31   1.0000      -0.812508       -22.1095
  32   1.0000      -0.787691       -21.4342
  33   1.0000      -0.781481       -21.2652
  34   1.0000      -0.711082       -19.3495
  35   1.0000      -0.699672       -19.0390
  36   1.0000      -0.691201       -18.8085
  37   1.0000      -0.681847       -18.5540
  38   1.0000      -0.670998       -18.2588
  39   1.0000      -0.647761       -17.6265
  40   1.0000      -0.625119       -17.0104
  41   1.0000      -0.607096       -16.5199
  42   1.0000      -0.600322       -16.3356
  43   1.0000      -0.591786       -16.1033
  44   1.0000      -0.584358       -15.9012
  45   1.0000      -0.577755       -15.7215
  46   1.0000      -0.573110       -15.5951
  47   1.0000      -0.569079       -15.4854
  48   1.0000      -0.562020       -15.2933
  49   1.0000      -0.557809       -15.1788
  50   1.0000      -0.552200       -15.0261
  51   1.0000      -0.539970       -14.6933
  52   1.0000      -0.536680       -14.6038
  53   1.0000      -0.526968       -14.3395
  54   1.0000      -0.514209       -13.9923
  55   1.0000      -0.509338       -13.8598
  56   1.0000      -0.499403       -13.5894
  57   1.0000      -0.425965       -11.5911
  58   1.0000      -0.419103       -11.4044
  59   1.0000      -0.412336       -11.2202
  60   1.0000      -0.407673       -11.0933
  61   1.0000      -0.401669       -10.9300
  62   1.0000      -0.395646       -10.7661
  63   1.0000      -0.391086       -10.6420
  64   1.0000      -0.384485       -10.4624
  65   1.0000      -0.343887        -9.3576
  66   1.0000      -0.331932        -9.0323
  67   0.0000       0.003223         0.0877
  68   0.0000       0.027380         0.7450
  69   0.0000       0.031274         0.8510
  70   0.0000       0.038561         1.0493
  71   0.0000       0.054007         1.4696

                 SPIN DOWN ORBITALS
  NO   OCC          E(Eh)            E(eV)
   0   1.0000     -19.327029      -525.9152
   1   1.0000     -19.326824      -525.9096
   2   1.0000     -19.325101      -525.8627
   3   1.0000     -19.313652      -525.5512
   4   1.0000     -14.570731      -396.4897
   5   1.0000     -14.561225      -396.2311
   6   1.0000     -14.555530      -396.0761
   7   1.0000     -14.555290      -396.0696
   8   1.0000     -10.507636      -285.9273
   9   1.0000     -10.498679      -285.6836
  10   1.0000     -10.480122      -285.1786
  11   1.0000     -10.476412      -285.0777
  12   1.0000     -10.448422      -284.3160
  13   1.0000     -10.443966      -284.1948
  14   1.0000     -10.406628      -283.1787
  15   1.0000     -10.404831      -283.1299
  16   1.0000     -10.382621      -282.5255
  17   1.0000     -10.378002      -282.3998
  18   1.0000      -1.229093       -33.4453
  19   1.0000      -1.220737       -33.2179
  20   1.0000      -1.197595       -32.5882
  21   1.0000      -1.179704       -32.1014
  22   1.0000      -1.126332       -30.6491
  23   1.0000      -1.098478       -29.8911
  24   1.0000      -1.068000       -29.0618
  25   1.0000      -1.051485       -28.6124
  26   1.0000      -0.988851       -26.9080
  27   1.0000      -0.956339       -26.0233
  28   1.0000      -0.892817       -24.2948
  29   1.0000      -0.842345       -22.9214
  30   1.0000      -0.832234       -22.6462
  31   1.0000      -0.807306       -21.9679
  32   1.0000      -0.785912       -21.3858
  33   1.0000      -0.779481       -21.2108
  34   1.0000      -0.705829       -19.2066
  35   1.0000      -0.694986       -18.9115
  36   1.0000      -0.683754       -18.6059
  37   1.0000      -0.676269       -18.4022
  38   1.0000      -0.657501       -17.8915
  39   1.0000      -0.643722       -17.5166
  40   1.0000      -0.621591       -16.9144
  41   1.0000      -0.602306       -16.3896
  42   1.0000      -0.591570       -16.0974
  43   1.0000      -0.583931       -15.8896
  44   1.0000      -0.576150       -15.6778
  45   1.0000      -0.572199       -15.5703
  46   1.0000      -0.566908       -15.4264
  47   1.0000      -0.561905       -15.2902
  48   1.0000      -0.556044       -15.1307
  49   1.0000      -0.548055       -14.9133
  50   1.0000      -0.546653       -14.8752
  51   1.0000      -0.530745       -14.4423
  52   1.0000      -0.528650       -14.3853
  53   1.0000      -0.517955       -14.0943
  54   1.0000      -0.504748       -13.7349
  55   1.0000      -0.502049       -13.6615
  56   1.0000      -0.493465       -13.4279
  57   1.0000      -0.423046       -11.5117
  58   1.0000      -0.414296       -11.2736
  59   1.0000      -0.407182       -11.0800
  60   1.0000      -0.394408       -10.7324
  61   1.0000      -0.390034       -10.6134
  62   1.0000      -0.385127       -10.4798
  63   1.0000      -0.382541       -10.4095
  64   1.0000      -0.376716       -10.2510
  65   0.0000      -0.064447        -1.7537
  66   0.0000      -0.059357        -1.6152
  67   0.0000       0.002878         0.0783
  68   0.0000       0.027435         0.7465
  69   0.0000       0.030993         0.8434

----------------------------------------------------------------------------------------------------
          SPIN FLIP ABSORPTION SPECTRUM VIA TRANSITION ELECTRIC DIPOLE MOMENTS
----------------------------------------------------------------------------------------------------
     Transition      Energy     Energy  Wavelength fosc(D2)      D2        DX        DY        DZ
                      (eV)      (cm-1)    (nm)                 (au**2)    (au)      (au)      (au)
----------------------------------------------------------------------------------------------------
  1-3A  ->  2-1A    0.015472     124.8  80136.3   0.000002610   0.00689  -0.07442   0.00837  -0.03574
  1-3A  ->  3-3A    1.946555   15700.0   636.9   0.000105123   0.00220   0.02306  -0.02539  -0.03206

Dispersion correction             ... done (  0.1 sec)

MULLIKEN ATOMIC CHARGES AND SPIN DENSITIES
------------------------------------------
   0 O :   -0.687590   -0.028528
   1 O :   -0.717858    0.036963
   2 O :   -0.593604   -0.001069
   3 O :   -0.679419   -0.000938
   4 N :   -0.279636   -0.008164
   5 N :   -0.394935   -0.000663
   6 N :    0.043830   -0.001845
   7 N :    0.138893    0.002653
   8 C :    0.201307    0.335496
   9 C :    0.504014    0.263897
  10 C :    0.308009   -0.173237
  11 C :    0.518451   -0.090880
  12 C :   -1.340949   -0.023246
  13 C :   -1.349881    0.031178
  14 C :    0.323611   -0.266903
  15 C :    0.079127   -0.127251
  16 C :    0.374281    0.018149
  17 C :    0.343632    0.006171
  18 H :    0.583385   -0.011475
  19 H :    0.470542    0.001744
  20 H :    0.270779   -0.002668
  21 H :    0.377316    0.011321
  22 H :    0.366810    0.002090
  23 H :    0.212126    0.008320
  24 H :    0.323018   -0.000587
  25 H :    0.346884    0.013378
  26 H :    0.138089    0.000987
  27 H :    0.189933    0.000863
  28 H :    0.004463    0.002536
  29 H :   -0.074629    0.001708
Sum of atomic charges       :   -0.0000000

LOEWDIN ATOMIC CHARGES AND SPIN DENSITIES
-----------------------------------------
   0 O :    0.094592   -0.026751
   1 O :    0.076876    0.031777
   2 O :    0.134724   -0.001037
   3 O :    0.079466   -0.000922
   4 N :    0.291979   -0.001123
   5 N :    0.259819    0.000313
   6 N :    0.342651   -0.002452
   7 N :    0.357546    0.001165
   8 C :   -0.048019   -0.076491
   9 C :   -0.083805    0.083487
  10 C :   -0.090020   -0.005482
  11 C :   -0.114211    0.002564
  12 C :    0.196270   -0.012565
  13 C :    0.194203    0.013207
  14 C :   -0.437376   -0.018615
  15 C :   -0.366208    0.010286
  16 C :   -0.484325   -0.000150
  17 C :   -0.551221   -0.000489
  18 H :    0.045811   -0.000412
  19 H :    0.065221    0.000655
  20 H :   -0.002698    0.000178
  21 H :    0.005137   -0.003490
  22 H :    0.007264   -0.002936
  23 H :   -0.006977    0.002988
  24 H :    0.049161   -0.000032
  25 H :    0.044542    0.006366
  26 H :   -0.037528   -0.000112
  27 H :    0.036026    0.000082
  28 H :   -0.011956   -0.000229
  29 H :   -0.046944    0.000219

  Mayer bond orders larger than 0.100000
B(  0-O , 14-C ) :   1.3584 B(  1-O , 15-C ) :   1.2459 B(  2-O , 16-C ) :   1.5941
B(  3-O , 17-C ) :   1.5516 B(  4-N ,  8-C ) :   0.2417 B(  4-N , 10-C ) :   0.3259
B(  4-N , 16-C ) :   0.9498 B(  4-N , 18-H ) :  -0.1186 B(  4-N , 26-H ) :   0.9958
B(  5-N ,  9-C ) :   0.3125 B(  5-N , 10-C ) :   0.1056 B(  5-N , 17-C ) :   1.1857
B(  5-N , 27-H ) :   0.9572 B(  6-N , 10-C ) :   0.1293 B(  6-N , 14-C ) :   1.0432
B(  6-N , 16-C ) :   0.8783 B(  6-N , 28-H ) :   1.1251 B(  7-N , 11-C ) :   0.1562
B(  7-N , 15-C ) :   0.9392 B(  7-N , 17-C ) :   0.9433 B(  7-N , 29-H ) :   1.1617
B(  8-C ,  9-C ) :   0.1819 B(  8-C , 10-C ) :   0.5245 B(  8-C , 11-C ) :   0.1946
B(  8-C , 12-C ) :   0.5009 B(  8-C , 14-C ) :   0.7176 B(  8-C , 16-C ) :   0.1037
B(  8-C , 18-H ) :  -0.1867 B(  8-C , 20-H ) :  -0.1095 B(  9-C , 11-C ) :   0.1479
B(  9-C , 13-C ) :   0.3784 B(  9-C , 15-C ) :   0.9176 B(  9-C , 19-H ) :  -0.1972
B( 10-C , 11-C ) :   0.5700 B( 10-C , 12-C ) :  -0.1272 B( 10-C , 16-C ) :  -0.1297
B( 10-C , 18-H ) :   0.7596 B( 11-C , 13-C ) :  -0.3421 B( 11-C , 15-C ) :  -0.2741
B( 11-C , 17-C ) :  -0.1631 B( 11-C , 19-H ) :   1.0138 B( 11-C , 23-H ) :  -0.1193
B( 12-C , 20-H ) :   1.0627 B( 12-C , 21-H ) :   0.7786 B( 12-C , 22-H ) :   0.9642
B( 13-C , 23-H ) :   1.1307 B( 13-C , 24-H ) :   0.9918 B( 13-C , 25-H ) :   0.8422

Dispersion correction           -0.062718900
FINAL SINGLE POINT ENERGY      -908.778328832636

DIPOLE MOMENT
-------------

Method             : TDA/CIS
Type of density    : Electron Density
Level              : Relaxed density
State              :   2
Multiplicity       :   3
Irrep              :   0
Energy             :     0.0000000000000000 Eh
Relativity type    :
Basis              : AO
                                X                 Y                 Z
Electronic contribution:     -5.098896178      -8.844117825      -6.632065325
Nuclear contribution   :      5.337882285      10.769834018       9.169236861
                        -----------------------------------------
Total Dipole Moment    :      0.238986107       1.925716193       2.537171536
                        -----------------------------------------
Magnitude (a.u.)       :      3.194172290
Magnitude (Debye)      :      8.118940738

Rotational constants in cm-1:             0.022181             0.013941             0.013299
Rotational constants in MHz :           664.975176           417.935091           398.679941

                             ****ORCA TERMINATED NORMALLY****
TOTAL RUN TIME: 0 days 0 hours 5 minutes 35 seconds 457 msec
