                         Program Version 6.0.0  -   RELEASE  -
|  1> ! Engrad def2-TZVPPD wB97M-D3BJ
|  2> %pal nprocs 8 end%pal nprocs 64 end
|  3> %tddft
|  4>  Iroot 2 Nroots 3
|  5> sf true
|  6> end
|  7> *xyz 0 3
|  8> O   3.32622252 1.02770254 -0.11729523
|  9> O   -1.0580723 0.7615235 -2.59423526
| 10> O   0.66213285 -2.60524387 -1.32889288
| 11> O   -3.32082798 -1.67024611 0.52730177
| 12> N   0.29844441 -1.48299832 0.65867466
| 13> N   -2.1555455 0.19780612 1.11756533
| 14> N   1.96483876 -0.71512716 -0.7919327
| 15> N   -1.9977214 -0.6038303 -1.02253302
| 16> C   1.59492272 0.48090928 1.31816871
| 17> C   -0.62906262 1.3004784 -0.35271635
| 18> C   0.28004014 -0.21893201 1.45030179
| 19> C   -0.85593988 0.75948573 1.02890967
| 20> C   2.0351119 1.4915101 2.31920861
| 21> C   0.25190158 2.41125048 -0.66281547
| 22> C   2.36651799 0.26009071 0.08098029
| 23> C   -1.25474096 0.51349231 -1.36054796
| 24> C   0.95741322 -1.7141433 -0.55227041
| 25> C   -2.58050575 -0.77023293 0.25058071
| 26> H   0.15162748 -0.37917749 2.54593863
| 27> H   -0.72760502 1.66903373 1.78306055
| 28> H   1.24660366 2.07406612 2.80042363
| 29> H   2.63825757 1.01794278 3.07569516
| 30> H   2.66294548 2.20100385 1.8142475
| 31> H   -0.15226524 3.22516855 -1.26015946
| 32> H   0.59721672 2.92144024 0.2328992
| 33> H   1.08614205 2.13851301 -1.24008034
| 34> H   -0.38862191 -2.17256247 0.87531427
| 35> H   -2.5085141 0.14152272 2.09097392
| 36> H   2.13747465 -0.57107987 -1.82600056
| 37> H   -2.31817007 -1.18612246 -1.78125645
| 38> *
| 39>
| 40>                          ****END OF INPUT****

CARTESIAN COORDINATES (ANGSTROEM)
---------------------------------
  O      3.326223    1.027703   -0.117295
  O     -1.058072    0.761524   -2.594235
  O      0.662133   -2.605244   -1.328893
  O     -3.320828   -1.670246    0.527302
  N      0.298444   -1.482998    0.658675
  N     -2.155546    0.197806    1.117565
  N      1.964839   -0.715127   -0.791933
  N     -1.997721   -0.603830   -1.022533
  C      1.594923    0.480909    1.318169
  C     -0.629063    1.300478   -0.352716
  C      0.280040   -0.218932    1.450302
  C     -0.855940    0.759486    1.028910
  C      2.035112    1.491510    2.319209
  C      0.251902    2.411250   -0.662815
  C      2.366518    0.260091    0.080980
  C     -1.254741    0.513492   -1.360548
  C      0.957413   -1.714143   -0.552270
  C     -2.580506   -0.770233    0.250581
  H      0.151627   -0.379177    2.545939
  H     -0.727605    1.669034    1.783061
  H      1.246604    2.074066    2.800424
  H      2.638258    1.017943    3.075695
  H      2.662945    2.201004    1.814248
  H     -0.152265    3.225169   -1.260159
  H      0.597217    2.921440    0.232899
  H      1.086142    2.138513   -1.240080
  H     -0.388622   -2.172562    0.875314
  H     -2.508514    0.141523    2.090974
  H      2.137475   -0.571080   -1.826001
  H     -2.318170   -1.186122   -1.781256

 Total Charge           Charge          ....    0
 Multiplicity           Mult            ....    3
 Number of Electrons    NEL             ....  132
 Basis Dimension        Dim             ....  882

ORBITAL ENERGIES
----------------
                 SPIN UP ORBITALS
  NO   OCC          E(Eh)            E(eV)
   0   1.0000     -19.334593      -526.1210
   1   1.0000     -19.333135      -526.0813
   2   1.0000     -19.330767      -526.0169
   3   1.0000     -19.328869      -525.9653
   4   1.0000     -14.573625      -396.5685
   5   1.0000     -14.566599      -396.3773
   6   1.0000     -14.562261      -396.2593
   7   1.0000     -14.562020      -396.2527
   8   1.0000     -10.519850      -286.2597
   9   1.0000     -10.511245      -286.0255
  10   1.0000     -10.486023      -285.3392
  11   1.0000     -10.475821      -285.0616
  12   1.0000     -10.451622      -284.4031
  13   1.0000     -10.449598      -284.3480
  14   1.0000     -10.420056      -283.5442
  15   1.0000     -10.418119      -283.4914
  16   1.0000     -10.373357      -282.2734
  17   1.0000     -10.365905      -282.0706
  18   1.0000      -1.226953       -33.3871
  19   1.0000      -1.212424       -32.9917
  20   1.0000      -1.187761       -32.3206
  21   1.0000      -1.175440       -31.9853
  22   1.0000      -1.124152       -30.5897
  23   1.0000      -1.097512       -29.8648
  24   1.0000      -1.060378       -28.8544
  25   1.0000      -1.051707       -28.6184
  26   1.0000      -0.986680       -26.8489
  27   1.0000      -0.955630       -26.0040
  28   1.0000      -0.890569       -24.2336
  29   1.0000      -0.848951       -23.1011
  30   1.0000      -0.827574       -22.5194
  31   1.0000      -0.798144       -21.7186
  32   1.0000      -0.782937       -21.3048
  33   1.0000      -0.778402       -21.1814
  34   1.0000      -0.701558       -19.0904
  35   1.0000      -0.696355       -18.9488
  36   1.0000      -0.690807       -18.7978
  37   1.0000      -0.676575       -18.4105
  38   1.0000      -0.656304       -17.8589
  39   1.0000      -0.638982       -17.3876
  40   1.0000      -0.625253       -17.0140
  41   1.0000      -0.598889       -16.2966
  42   1.0000      -0.590149       -16.0588
  43   1.0000      -0.584899       -15.9159
  44   1.0000      -0.575124       -15.6499
  45   1.0000      -0.569510       -15.4972
  46   1.0000      -0.566799       -15.4234
  47   1.0000      -0.564847       -15.3703
  48   1.0000      -0.560346       -15.2478
  49   1.0000      -0.557415       -15.1680
  50   1.0000      -0.547206       -14.8902
  51   1.0000      -0.539799       -14.6887
  52   1.0000      -0.533068       -14.5055
  53   1.0000      -0.524880       -14.2827
  54   1.0000      -0.506808       -13.7909
  55   1.0000      -0.502055       -13.6616
  56   1.0000      -0.487963       -13.2781
  57   1.0000      -0.429314       -11.6822
  58   1.0000      -0.422377       -11.4934
  59   1.0000      -0.413543       -11.2531
  60   1.0000      -0.409763       -11.1502
  61   1.0000      -0.402516       -10.9530
  62   1.0000      -0.395215       -10.7543
  63   1.0000      -0.390387       -10.6230
  64   1.0000      -0.380059       -10.3419
  65   1.0000      -0.342796        -9.3279
  66   1.0000      -0.330793        -9.0013
  67   0.0000       0.005892         0.1603
  68   0.0000       0.030268         0.8236
  69   0.0000       0.032574         0.8864
  70   0.0000       0.036163         0.9840
  71   0.0000       0.053626         1.4592

                 SPIN DOWN ORBITALS
  NO   OCC          E(Eh)            E(eV)
   0   1.0000     -19.334545      -526.1197
   1   1.0000     -19.330597      -526.0123
   2   1.0000     -19.328428      -525.9533
   3   1.0000     -19.322846      -525.8014
   4   1.0000     -14.573061      -396.5531
   5   1.0000     -14.566230      -396.3673
   6   1.0000     -14.561950      -396.2508
   7   1.0000     -14.561904      -396.2495
   8   1.0000     -10.519883      -286.2606
   9   1.0000     -10.511290      -286.0268
  10   1.0000     -10.487130      -285.3693
  11   1.0000     -10.477030      -285.0945
  12   1.0000     -10.451231      -284.3925
  13   1.0000     -10.449336      -284.3409
  14   1.0000     -10.408558      -283.2313
  15   1.0000     -10.407359      -283.1986
  16   1.0000     -10.373918      -282.2887
  17   1.0000     -10.366389      -282.0838
  18   1.0000      -1.226317       -33.3698
  19   1.0000      -1.211491       -32.9663
  20   1.0000      -1.181822       -32.1590
  21   1.0000      -1.168223       -31.7890
  22   1.0000      -1.120850       -30.4999
  23   1.0000      -1.095134       -29.8001
  24   1.0000      -1.057793       -28.7840
  25   1.0000      -1.050084       -28.5742
  26   1.0000      -0.973663       -26.4947
  27   1.0000      -0.938793       -25.5459
  28   1.0000      -0.885460       -24.0946
  29   1.0000      -0.843419       -22.9506
  30   1.0000      -0.818769       -22.2798
  31   1.0000      -0.793793       -21.6002
  32   1.0000      -0.781053       -21.2535
  33   1.0000      -0.775958       -21.1149
  34   1.0000      -0.695597       -18.9282
  35   1.0000      -0.690941       -18.8015
  36   1.0000      -0.684661       -18.6306
  37   1.0000      -0.671053       -18.2603
  38   1.0000      -0.644248       -17.5309
  39   1.0000      -0.635825       -17.3017
  40   1.0000      -0.621720       -16.9179
  41   1.0000      -0.593106       -16.1392
  42   1.0000      -0.584067       -15.8933
  43   1.0000      -0.578445       -15.7403
  44   1.0000      -0.571034       -15.5386
  45   1.0000      -0.563222       -15.3260
  46   1.0000      -0.560198       -15.2438
  47   1.0000      -0.557613       -15.1734
  48   1.0000      -0.552459       -15.0332
  49   1.0000      -0.547839       -14.9075
  50   1.0000      -0.540545       -14.7090
  51   1.0000      -0.532417       -14.4878
  52   1.0000      -0.526484       -14.3263
  53   1.0000      -0.513230       -13.9657
  54   1.0000      -0.498844       -13.5742
  55   1.0000      -0.493170       -13.4198
  56   1.0000      -0.482356       -13.1256
  57   1.0000      -0.425682       -11.5834
  58   1.0000      -0.419470       -11.4144
  59   1.0000      -0.407111       -11.0780
  60   1.0000      -0.398439       -10.8421
  61   1.0000      -0.390450       -10.6247
  62   1.0000      -0.385920       -10.5014
  63   1.0000      -0.382882       -10.4188
  64   1.0000      -0.368604       -10.0302
  65   0.0000      -0.062022        -1.6877
  66   0.0000      -0.053644        -1.4597
  67   0.0000       0.005553         0.1511
  68   0.0000       0.030085         0.8187
  69   0.0000       0.032569         0.8862

----------------------------------------------------------------------------------------------------
          SPIN FLIP ABSORPTION SPECTRUM VIA TRANSITION ELECTRIC DIPOLE MOMENTS
----------------------------------------------------------------------------------------------------
     Transition      Energy     Energy  Wavelength fosc(D2)      D2        DX        DY        DZ
                      (eV)      (cm-1)    (nm)                 (au**2)    (au)      (au)      (au)
----------------------------------------------------------------------------------------------------
  1-3A  ->  2-3A    0.034015     274.4  36449.4   0.000000622   0.00075  -0.02631  -0.00593  -0.00441
  1-3A  ->  3-3A    1.704917   13751.1   727.2   0.000627410   0.01502  -0.01837  -0.03900   0.11473

Dispersion correction             ... done (  0.1 sec)

MULLIKEN ATOMIC CHARGES AND SPIN DENSITIES
------------------------------------------
   0 O :   -0.685409   -0.166131
   1 O :   -0.717904    0.218870
   2 O :   -0.616045   -0.002642
   3 O :   -0.614858    0.001232
   4 N :   -0.196852   -0.018670
   5 N :   -0.323086    0.011530
   6 N :   -0.005968   -0.001503
   7 N :    0.066882    0.012389
   8 C :    0.963454    0.135218
   9 C :   -0.370461    0.330969
  10 C :    0.087789   -0.329890
  11 C :    0.880805    0.065562
  12 C :   -1.409900   -0.050728
  13 C :   -1.370842    0.003450
  14 C :   -0.079465   -0.406161
  15 C :    0.473210    0.114624
  16 C :    0.395235    0.030060
  17 C :    0.256635   -0.006179
  18 H :    0.432911   -0.040713
  19 H :    0.498904    0.027821
  20 H :    0.326073   -0.001078
  21 H :    0.408019    0.006470
  22 H :    0.324188   -0.007454
  23 H :    0.366300    0.026900
  24 H :    0.302049   -0.001941
  25 H :    0.260708    0.042304
  26 H :    0.023456    0.003837
  27 H :    0.143582   -0.000577
  28 H :    0.138448    0.002708
  29 H :    0.042140   -0.000278
Sum of atomic charges       :    0.0000000

LOEWDIN ATOMIC CHARGES AND SPIN DENSITIES
-----------------------------------------
   0 O :    0.039650   -0.148598
   1 O :    0.052101    0.192955
   2 O :    0.089942   -0.002401
   3 O :    0.106957    0.001240
   4 N :    0.292909   -0.004885
   5 N :    0.253055    0.001972
   6 N :    0.306846   -0.010541
   7 N :    0.324604    0.009596
   8 C :   -0.016151   -0.474407
   9 C :   -0.036976    0.445386
  10 C :   -0.102158   -0.032994
  11 C :   -0.158160    0.023413
  12 C :    0.190328   -0.067129
  13 C :    0.203064    0.068455
  14 C :   -0.429173   -0.077013
  15 C :   -0.360838    0.071177
  16 C :   -0.432871    0.000654
  17 C :   -0.495462   -0.000768
  18 H :    0.072326   -0.007313
  19 H :    0.110668    0.007935
  20 H :    0.000829   -0.005947
  21 H :    0.005872   -0.022888
  22 H :   -0.014926   -0.003920
  23 H :    0.020964    0.018736
  24 H :    0.005939   -0.002732
  25 H :   -0.021857    0.020082
  26 H :   -0.053618   -0.000734
  27 H :    0.008721   -0.000175
  28 H :    0.042389   -0.000253
  29 H :   -0.004974    0.001097

  Mayer bond orders larger than 0.100000
B(  0-O , 14-C ) :   1.4270 B(  1-O , 15-C ) :   1.2664 B(  2-O , 16-C ) :   1.5773
B(  3-O , 17-C ) :   1.6435 B(  4-N ,  8-C ) :   0.2195 B(  4-N ,  9-C ) :   0.1509
B(  4-N , 10-C ) :   0.3621 B(  4-N , 16-C ) :   0.9991 B(  4-N , 26-H ) :   1.0874
B(  5-N ,  9-C ) :   0.4960 B(  5-N , 11-C ) :  -0.2935 B(  5-N , 17-C ) :   1.2261
B(  5-N , 19-H ) :  -0.1206 B(  5-N , 27-H ) :   0.9711 B(  6-N ,  8-C ) :  -0.1547
B(  6-N , 10-C ) :   0.1231 B(  6-N , 14-C ) :   1.0393 B(  6-N , 16-C ) :   0.8669
B(  6-N , 28-H ) :   1.0324 B(  7-N , 11-C ) :   0.1557 B(  7-N , 15-C ) :   1.1309
B(  7-N , 17-C ) :   0.9529 B(  7-N , 29-H ) :   1.0918 B(  8-C ,  9-C ) :   0.1190
B(  8-C , 10-C ) :   0.5550 B(  8-C , 11-C ) :   0.2068 B(  8-C , 12-C ) :   0.5406
B(  8-C , 14-C ) :   0.4118 B(  8-C , 18-H ) :  -0.1236 B(  9-C , 10-C ) :   0.3446
B(  9-C , 11-C ) :  -0.3653 B(  9-C , 13-C ) :   0.4319 B(  9-C , 15-C ) :   0.9074
B(  9-C , 19-H ) :  -0.2634 B(  9-C , 24-H ) :  -0.1371 B( 10-C , 11-C ) :   0.6306
B( 10-C , 14-C ) :   0.2116 B( 10-C , 16-C ) :  -0.1215 B( 10-C , 18-H ) :   0.8929
B( 10-C , 19-H ) :  -0.1420 B( 11-C , 13-C ) :  -0.1213 B( 11-C , 15-C ) :  -0.1401
B( 11-C , 17-C ) :  -0.2054 B( 11-C , 18-H ) :  -0.1135 B( 11-C , 19-H ) :   0.9888
B( 12-C , 20-H ) :   0.8761 B( 12-C , 21-H ) :   0.8252 B( 12-C , 22-H ) :   0.9974
B( 13-C , 23-H ) :   0.8737 B( 13-C , 24-H ) :   1.0539 B( 13-C , 25-H ) :   0.9297
B( 14-C , 16-C ) :  -0.1129

Dispersion correction           -0.060927409
FINAL SINGLE POINT ENERGY      -908.774071628945

DIPOLE MOMENT
-------------

Method             : TDA/CIS
Type of density    : Electron Density
Level              : Relaxed density
State              :   2
Multiplicity       :   3
Irrep              :   0
Energy             :     0.0000000000000000 Eh
Relativity type    :
Basis              : AO
                                X                 Y                 Z
Electronic contribution:     -4.450196909      -9.457338952      -6.260221682
Nuclear contribution   :      4.236444585      10.832282784       8.733051581
                        -----------------------------------------
Total Dipole Moment    :     -0.213752323       1.374943831       2.472829899
                        -----------------------------------------
Magnitude (a.u.)       :      2.837436925
Magnitude (Debye)      :      7.212191501

Rotational constants in cm-1:             0.021775             0.013275             0.012596
Rotational constants in MHz :           652.789933           397.974437           377.631558

                             ****ORCA TERMINATED NORMALLY****
TOTAL RUN TIME: 0 days 0 hours 9 minutes 32 seconds 882 msec
