                         Program Version 6.0.0  -   RELEASE  -
|  1> ! EnGrad wB97M-D3BJ def2-TZVPPD
|  2> %pal nprocs 8 end%pal nprocs 16 end
|  3> %tddft
|  4>  sf true
|  5>  nroots 2 Iroot 2 end
|  6> *xyz 0 3
|  7> O   0.51508681625758 1.28934485073917 0.12121253717557
|  8> C   0.61119385806842 0.15529304793617 -0.27864678620899
|  9> C   -0.44404820079021 -0.81344220846747 0.19424949256621
| 10> H   0.01284610159224 -1.64908190434861 0.72744643704873
| 11> H   1.4173912875361 -0.17521008800623 -0.95262416599709
| 12> H   -0.97938373804364 -1.24211097156296 -0.65486257350654
| 13> H   -1.13088612462049 -0.28319272629006 0.84322505892212
| 14> *
| 15>
| 16>                          ****END OF INPUT****

CARTESIAN COORDINATES (ANGSTROEM)
---------------------------------
  O      0.515087    1.289345    0.121213
  C      0.611194    0.155293   -0.278647
  C     -0.444048   -0.813442    0.194249
  H      0.012846   -1.649082    0.727446
  H      1.417391   -0.175210   -0.952624
  H     -0.979384   -1.242111   -0.654863
  H     -1.130886   -0.283193    0.843225

 Total Charge           Charge          ....    0
 Multiplicity           Mult            ....    3
 Number of Electrons    NEL             ....   24
 Basis Dimension        Dim             ....  182

ORBITAL ENERGIES
----------------
                 SPIN UP ORBITALS
  NO   OCC          E(Eh)            E(eV)
   0   1.0000     -19.411001      -528.2002
   1   1.0000     -10.380227      -282.4603
   2   1.0000     -10.366230      -282.0795
   3   1.0000      -1.247016       -33.9330
   4   1.0000      -0.877502       -23.8780
   5   1.0000      -0.720440       -19.6042
   6   1.0000      -0.638214       -17.3667
   7   1.0000      -0.583437       -15.8761
   8   1.0000      -0.582325       -15.8459
   9   1.0000      -0.514158       -13.9909
  10   1.0000      -0.510968       -13.9041
  11   1.0000      -0.436436       -11.8760
  12   1.0000      -0.223628        -6.0852
  13   0.0000       0.042417         1.1542
  14   0.0000       0.060470         1.6455
  15   0.0000       0.079367         2.1597
  16   0.0000       0.088372         2.4047
  17   0.0000       0.108621         2.9557

                 SPIN DOWN ORBITALS
  NO   OCC          E(Eh)            E(eV)
   0   1.0000     -19.382995      -527.4381
   1   1.0000     -10.369860      -282.1782
   2   1.0000     -10.363879      -282.0155
   3   1.0000      -1.188412       -32.3383
   4   1.0000      -0.857876       -23.3440
   5   1.0000      -0.676949       -18.4207
   6   1.0000      -0.585666       -15.9368
   7   1.0000      -0.540114       -14.6972
   8   1.0000      -0.533398       -14.5145
   9   1.0000      -0.501502       -13.6466
  10   1.0000      -0.469998       -12.7893
  11   0.0000      -0.080635        -2.1942
  12   0.0000       0.042313         1.1514
  13   0.0000       0.060123         1.6360
  14   0.0000       0.079654         2.1675
  15   0.0000       0.082523         2.2456

----------------------------------------------------------------------------------------------------
          SPIN FLIP ABSORPTION SPECTRUM VIA TRANSITION ELECTRIC DIPOLE MOMENTS
----------------------------------------------------------------------------------------------------
     Transition      Energy     Energy  Wavelength fosc(D2)      D2        DX        DY        DZ
                      (eV)      (cm-1)    (nm)                 (au**2)    (au)      (au)      (au)
----------------------------------------------------------------------------------------------------
  1-3A  ->  2-3A    4.433466   35758.3   279.7   0.000005334   0.00005  -0.00398   0.00157  -0.00555

Dispersion correction             ... done (  0.0 sec)

MULLIKEN ATOMIC CHARGES AND SPIN DENSITIES
------------------------------------------
   0 O :   -0.244966    0.616119
   1 C :    0.197286   -0.643008
   2 C :   -0.687832    0.127366
   3 H :    0.192325   -0.041981
   4 H :    0.113990   -0.012688
   5 H :    0.191883   -0.043263
   6 H :    0.237313   -0.002545
Sum of atomic charges       :    0.0000000

LOEWDIN ATOMIC CHARGES AND SPIN DENSITIES
-----------------------------------------
   0 O :    0.155560    0.426192
   1 C :   -0.245870   -0.375003
   2 C :    0.141804    0.000861
   3 H :   -0.016846   -0.014399
   4 H :   -0.003658   -0.025955
   5 H :   -0.016909   -0.014543
   6 H :   -0.014081    0.002846

  Mayer bond orders larger than 0.100000
B(  0-O ,  1-C ) :   1.2578 B(  1-C ,  2-C ) :   0.6689 B(  1-C ,  4-H ) :   1.0235
B(  2-C ,  3-H ) :   0.9976 B(  2-C ,  5-H ) :   0.9973 B(  2-C ,  6-H ) :   0.9487

Dispersion correction           -0.005552249
FINAL SINGLE POINT ENERGY      -153.757934635034

DIPOLE MOMENT
-------------

Method             : TDA/CIS
Type of density    : Electron Density
Level              : Relaxed density
State              :   2
Multiplicity       :   3
Irrep              :   0
Energy             :     0.0000000000000000 Eh
Relativity type    :
Basis              : AO
                                X                 Y                 Z
Electronic contribution:      1.301954415       3.381550583       0.055720050
Nuclear contribution   :     -1.448217255      -3.922799529      -0.108730480
                        -----------------------------------------
Total Dipole Moment    :     -0.146262840      -0.541248946      -0.053010430
                        -----------------------------------------
Magnitude (a.u.)       :      0.563163693
Magnitude (Debye)      :      1.431448350

Rotational constants in cm-1:             1.705082             0.363151             0.316744
Rotational constants in MHz :         51117.085689         10887.000767          9495.733244

                             ****ORCA TERMINATED NORMALLY****
TOTAL RUN TIME: 0 days 0 hours 0 minutes 16 seconds 193 msec
