                         Program Version 6.0.0  -   RELEASE  -
|  1> ! Engrad def2-TZVPPD wB97M-D3BJ
|  2> %pal nprocs 8 end%pal nprocs 64 end
|  3> %tddft
|  4>  Iroot 1 Nroots 3
|  5> sf true
|  6> end
|  7> *xyz 0 3
|  8> O   0.8539223 -0.40103278 1.00771917
|  9> C   0.41938604 -0.3371047 -0.35883795
| 10> C   -0.13816625 0.99708841 -0.49521312
| 11> H   -0.31024805 -1.11518972 -0.65176607
| 12> H   1.24322916 -0.63146075 -1.06977758
| 13> H   0.06679031 1.58870507 -1.34099533
| 14> H   -0.61599284 1.33057911 0.3576603
| 15> *
| 16>
| 17>                          ****END OF INPUT****

CARTESIAN COORDINATES (ANGSTROEM)
---------------------------------
  O      0.853922   -0.401033    1.007719
  C      0.419386   -0.337105   -0.358838
  C     -0.138166    0.997088   -0.495213
  H     -0.310248   -1.115190   -0.651766
  H      1.243229   -0.631461   -1.069778
  H      0.066790    1.588705   -1.340995
  H     -0.615993    1.330579    0.357660

 Total Charge           Charge          ....    0
 Multiplicity           Mult            ....    3
 Number of Electrons    NEL             ....   24
 Basis Dimension        Dim             ....  182

ORBITAL ENERGIES
----------------
                 SPIN UP ORBITALS
  NO   OCC          E(Eh)            E(eV)
   0   1.0000     -19.392547      -527.6980
   1   1.0000     -10.414807      -283.4013
   2   1.0000     -10.356183      -281.8061
   3   1.0000      -1.149674       -31.2842
   4   1.0000      -0.884895       -24.0792
   5   1.0000      -0.742834       -20.2135
   6   1.0000      -0.605201       -16.4684
   7   1.0000      -0.593207       -16.1420
   8   1.0000      -0.542572       -14.7641
   9   1.0000      -0.517975       -14.0948
  10   1.0000      -0.447793       -12.1851
  11   1.0000      -0.422185       -11.4882
  12   1.0000      -0.317363        -8.6359
  13   0.0000       0.041167         1.1202
  14   0.0000       0.061418         1.6713
  15   0.0000       0.080073         2.1789
  16   0.0000       0.085219         2.3189
  17   0.0000       0.112062         3.0494

                 SPIN DOWN ORBITALS
  NO   OCC          E(Eh)            E(eV)
   0   1.0000     -19.368160      -527.0344
   1   1.0000     -10.416272      -283.4412
   2   1.0000     -10.342920      -281.4452
   3   1.0000      -1.092762       -29.7356
   4   1.0000      -0.851463       -23.1695
   5   1.0000      -0.718305       -19.5461
   6   1.0000      -0.588426       -16.0119
   7   1.0000      -0.542036       -14.7496
   8   1.0000      -0.521900       -14.2016
   9   1.0000      -0.490465       -13.3462
  10   1.0000      -0.388887       -10.5821
  11   0.0000      -0.057163        -1.5555
  12   0.0000       0.005511         0.1500
  13   0.0000       0.039923         1.0864
  14   0.0000       0.061404         1.6709
  15   0.0000       0.079989         2.1766

----------------------------------------------------------------------------------------------------
          SPIN FLIP ABSORPTION SPECTRUM VIA TRANSITION ELECTRIC DIPOLE MOMENTS
----------------------------------------------------------------------------------------------------
     Transition      Energy     Energy  Wavelength fosc(D2)      D2        DX        DY        DZ
                      (eV)      (cm-1)    (nm)                 (au**2)    (au)      (au)      (au)
----------------------------------------------------------------------------------------------------
  1-3A  ->  2-3A    0.461679    3723.7  2685.5   0.000285043   0.02520   0.02009   0.07194  -0.14008
  1-3A  ->  3-3A    1.279746   10321.8   968.8   0.068662992   2.18998   0.68737  -0.95603   0.89639

Dispersion correction             ... done (  0.2 sec)

MULLIKEN ATOMIC CHARGES AND SPIN DENSITIES
------------------------------------------
   0 O :   -0.479220   -0.205269
   1 C :   -0.026862   -0.024247
   2 C :   -0.440118    0.229115
   3 H :    0.219308   -0.001239
   4 H :    0.228143   -0.069572
   5 H :    0.214811    0.040627
   6 H :    0.283937    0.030585
Sum of atomic charges       :   -0.0000000

LOEWDIN ATOMIC CHARGES AND SPIN DENSITIES
-----------------------------------------
   0 O :   -0.090508   -0.219400
   1 C :   -0.266021   -0.027497
   2 C :    0.394001    0.251516
   3 H :    0.021994   -0.010276
   4 H :    0.041722   -0.055169
   5 H :   -0.038307    0.031199
   6 H :   -0.062881    0.029626

  Mayer bond orders larger than 0.100000
B(  0-O ,  1-C ) :   0.8921 B(  0-O ,  2-C ) :   0.5128 B(  1-C ,  2-C ) :   0.8485
B(  1-C ,  3-H ) :   0.9856 B(  1-C ,  4-H ) :   0.9540 B(  2-C ,  5-H ) :   0.9638
B(  2-C ,  6-H ) :   0.9365

Dispersion correction           -0.005588577
FINAL SINGLE POINT ENERGY      -153.757385604529

DIPOLE MOMENT
-------------

Method             : TDA/CIS
Type of density    : Electron Density
Level              : Relaxed density
State              :   1
Multiplicity       :   3
Irrep              :   0
Energy             :     0.0000000000000000 Eh
Relativity type    :
Basis              : AO
                                X                 Y                 Z
Electronic contribution:      0.508577413      -0.311951208       1.506498583
Nuclear contribution   :     -1.117664464       0.863899692      -2.791115324
                        -----------------------------------------
Total Dipole Moment    :     -0.609087051       0.551948484      -1.284616742
                        -----------------------------------------
Magnitude (a.u.)       :      1.525081748
Magnitude (Debye)      :      3.876449737

Rotational constants in cm-1:             1.235635             0.389297             0.319015
Rotational constants in MHz :         37043.413108         11670.818026          9563.837775

                             ****ORCA TERMINATED NORMALLY****
TOTAL RUN TIME: 0 days 0 hours 0 minutes 27 seconds 186 msec
