                         Program Version 6.0.0  -   RELEASE  -
|  1> ! Engrad def2-TZVPPD wB97M-D3BJ
|  2> %pal nprocs 8 end%pal nprocs 64 end
|  3> %tddft
|  4>  Iroot 2 Nroots 3
|  5> sf true
|  6> end
|  7> *xyz 0 3
|  8> O   3.40764366 0.63719279 -0.0432053
|  9> O   -0.88423055 0.79767871 -2.79447612
| 10> O   0.48649468 -2.86242267 -0.90082414
| 11> O   -3.65407382 -1.07580191 0.42165683
| 12> N   0.13384549 -1.52629426 0.88132955
| 13> N   -2.16182002 0.4878087 1.03506854
| 14> N   1.89419629 -0.92427864 -0.66971602
| 15> N   -2.16538592 -0.29862151 -1.17111791
| 16> C   1.60991595 0.35434951 1.37717156
| 17> C   -0.44501054 1.31267805 -0.52235629
| 18> C   0.28897353 -0.24142141 1.51288386
| 19> C   -0.74511427 0.93763779 0.90235983
| 20> C   2.23984038 1.1364014 2.41010427
| 21> C   0.56152109 2.40572926 -0.96315321
| 22> C   2.36949273 0.02833943 0.22597103
| 23> C   -1.10688952 0.59268038 -1.64607519
| 24> C   0.78913268 -1.86314141 -0.31310979
| 25> C   -2.74060238 -0.39144387 0.09764149
| 26> H   0.03413454 -0.39384507 2.54479494
| 27> H   -0.43934695 1.67593032 1.55872116
| 28> H   1.75516275 1.94376629 2.97269695
| 29> H   2.59236501 0.62134572 3.31672629
| 30> H   3.17888609 1.63229531 2.08712776
| 31> H   0.66827728 2.47813826 -2.0192628
| 32> H   0.05058129 3.32274022 -0.52502641
| 33> H   1.42587638 2.20928839 -0.46724666
| 34> H   -0.37260877 -2.15987866 1.48090855
| 35> H   -2.390371 0.01888604 1.98342818
| 36> H   2.47886936 -1.05917044 -1.4669384
| 37> H   -2.51614854 -0.93470981 -1.84170622
| 38> *
| 39>
| 40>                          ****END OF INPUT****

CARTESIAN COORDINATES (ANGSTROEM)
---------------------------------
  O      3.407644    0.637193   -0.043205
  O     -0.884231    0.797679   -2.794476
  O      0.486495   -2.862423   -0.900824
  O     -3.654074   -1.075802    0.421657
  N      0.133845   -1.526294    0.881330
  N     -2.161820    0.487809    1.035069
  N      1.894196   -0.924279   -0.669716
  N     -2.165386   -0.298622   -1.171118
  C      1.609916    0.354350    1.377172
  C     -0.445011    1.312678   -0.522356
  C      0.288974   -0.241421    1.512884
  C     -0.745114    0.937638    0.902360
  C      2.239840    1.136401    2.410104
  C      0.561521    2.405729   -0.963153
  C      2.369493    0.028339    0.225971
  C     -1.106890    0.592680   -1.646075
  C      0.789133   -1.863141   -0.313110
  C     -2.740602   -0.391444    0.097641
  H      0.034135   -0.393845    2.544795
  H     -0.439347    1.675930    1.558721
  H      1.755163    1.943766    2.972697
  H      2.592365    0.621346    3.316726
  H      3.178886    1.632295    2.087128
  H      0.668277    2.478138   -2.019263
  H      0.050581    3.322740   -0.525026
  H      1.425876    2.209288   -0.467247
  H     -0.372609   -2.159879    1.480909
  H     -2.390371    0.018886    1.983428
  H      2.478869   -1.059170   -1.466938
  H     -2.516149   -0.934710   -1.841706

 Total Charge           Charge          ....    0
 Multiplicity           Mult            ....    3
 Number of Electrons    NEL             ....  132
 Basis Dimension        Dim             ....  882

ORBITAL ENERGIES
----------------
                 SPIN UP ORBITALS
  NO   OCC          E(Eh)            E(eV)
   0   1.0000     -19.342325      -526.3314
   1   1.0000     -19.337361      -526.1963
   2   1.0000     -19.332885      -526.0745
   3   1.0000     -19.323883      -525.8296
   4   1.0000     -14.571382      -396.5075
   5   1.0000     -14.565636      -396.3511
   6   1.0000     -14.557694      -396.1350
   7   1.0000     -14.553776      -396.0284
   8   1.0000     -10.525893      -286.4241
   9   1.0000     -10.501734      -285.7667
  10   1.0000     -10.485788      -285.3328
  11   1.0000     -10.478759      -285.1415
  12   1.0000     -10.441479      -284.1271
  13   1.0000     -10.441185      -284.1191
  14   1.0000     -10.417513      -283.4749
  15   1.0000     -10.415671      -283.4248
  16   1.0000     -10.375545      -282.3329
  17   1.0000     -10.362341      -281.9736
  18   1.0000      -1.224099       -33.3094
  19   1.0000      -1.221243       -33.2317
  20   1.0000      -1.212801       -33.0020
  21   1.0000      -1.198649       -32.6169
  22   1.0000      -1.111723       -30.2515
  23   1.0000      -1.086840       -29.5744
  24   1.0000      -1.055892       -28.7323
  25   1.0000      -1.039340       -28.2819
  26   1.0000      -0.983402       -26.7597
  27   1.0000      -0.945211       -25.7205
  28   1.0000      -0.879845       -23.9418
  29   1.0000      -0.842026       -22.9127
  30   1.0000      -0.824141       -22.4260
  31   1.0000      -0.801457       -21.8088
  32   1.0000      -0.774844       -21.0846
  33   1.0000      -0.762319       -20.7438
  34   1.0000      -0.703434       -19.1414
  35   1.0000      -0.691849       -18.8262
  36   1.0000      -0.672580       -18.3018
  37   1.0000      -0.664070       -18.0703
  38   1.0000      -0.650173       -17.6921
  39   1.0000      -0.642273       -17.4771
  40   1.0000      -0.611245       -16.6328
  41   1.0000      -0.604798       -16.4574
  42   1.0000      -0.588792       -16.0219
  43   1.0000      -0.587692       -15.9919
  44   1.0000      -0.581474       -15.8227
  45   1.0000      -0.573088       -15.5945
  46   1.0000      -0.567072       -15.4308
  47   1.0000      -0.564840       -15.3701
  48   1.0000      -0.559624       -15.2281
  49   1.0000      -0.556630       -15.1467
  50   1.0000      -0.552250       -15.0275
  51   1.0000      -0.541379       -14.7317
  52   1.0000      -0.528938       -14.3931
  53   1.0000      -0.515474       -14.0268
  54   1.0000      -0.505532       -13.7562
  55   1.0000      -0.498765       -13.5721
  56   1.0000      -0.496010       -13.4971
  57   1.0000      -0.427006       -11.6194
  58   1.0000      -0.422975       -11.5097
  59   1.0000      -0.414165       -11.2700
  60   1.0000      -0.410145       -11.1606
  61   1.0000      -0.404650       -11.0111
  62   1.0000      -0.396206       -10.7813
  63   1.0000      -0.394861       -10.7447
  64   1.0000      -0.380707       -10.3596
  65   1.0000      -0.345042        -9.3891
  66   1.0000      -0.315529        -8.5860
  67   0.0000       0.006284         0.1710
  68   0.0000       0.027439         0.7466
  69   0.0000       0.034530         0.9396
  70   0.0000       0.036662         0.9976
  71   0.0000       0.055137         1.5004

                 SPIN DOWN ORBITALS
  NO   OCC          E(Eh)            E(eV)
   0   1.0000     -19.338611      -526.2304
   1   1.0000     -19.337296      -526.1946
   2   1.0000     -19.327757      -525.9350
   3   1.0000     -19.323721      -525.8252
   4   1.0000     -14.570670      -396.4881
   5   1.0000     -14.565373      -396.3439
   6   1.0000     -14.557028      -396.1169
   7   1.0000     -14.553224      -396.0134
   8   1.0000     -10.525940      -286.4254
   9   1.0000     -10.501797      -285.7684
  10   1.0000     -10.486695      -285.3575
  11   1.0000     -10.479760      -285.1688
  12   1.0000     -10.441044      -284.1152
  13   1.0000     -10.440355      -284.0965
  14   1.0000     -10.406072      -283.1636
  15   1.0000     -10.405019      -283.1350
  16   1.0000     -10.376214      -282.3511
  17   1.0000     -10.362672      -281.9826
  18   1.0000      -1.222333       -33.2614
  19   1.0000      -1.220217       -33.2038
  20   1.0000      -1.208698       -32.8903
  21   1.0000      -1.191875       -32.4326
  22   1.0000      -1.108622       -30.1671
  23   1.0000      -1.084508       -29.5110
  24   1.0000      -1.053586       -28.6695
  25   1.0000      -1.037581       -28.2340
  26   1.0000      -0.969067       -26.3697
  27   1.0000      -0.928996       -25.2793
  28   1.0000      -0.874459       -23.7952
  29   1.0000      -0.836062       -22.7504
  30   1.0000      -0.817078       -22.2338
  31   1.0000      -0.795335       -21.6422
  32   1.0000      -0.772039       -21.0082
  33   1.0000      -0.760487       -20.6939
  34   1.0000      -0.697493       -18.9798
  35   1.0000      -0.687056       -18.6957
  36   1.0000      -0.666697       -18.1418
  37   1.0000      -0.657163       -17.8823
  38   1.0000      -0.646744       -17.5988
  39   1.0000      -0.630372       -17.1533
  40   1.0000      -0.606312       -16.4986
  41   1.0000      -0.596942       -16.2436
  42   1.0000      -0.584327       -15.9003
  43   1.0000      -0.581820       -15.8321
  44   1.0000      -0.575551       -15.6615
  45   1.0000      -0.568753       -15.4765
  46   1.0000      -0.563365       -15.3299
  47   1.0000      -0.559221       -15.2172
  48   1.0000      -0.554594       -15.0913
  49   1.0000      -0.546754       -14.8779
  50   1.0000      -0.540892       -14.7184
  51   1.0000      -0.529883       -14.4188
  52   1.0000      -0.518132       -14.0991
  53   1.0000      -0.506161       -13.7733
  54   1.0000      -0.498863       -13.5748
  55   1.0000      -0.493729       -13.4350
  56   1.0000      -0.489485       -13.3196
  57   1.0000      -0.424031       -11.5385
  58   1.0000      -0.419407       -11.4126
  59   1.0000      -0.407472       -11.0879
  60   1.0000      -0.396768       -10.7966
  61   1.0000      -0.392167       -10.6714
  62   1.0000      -0.390489       -10.6257
  63   1.0000      -0.389680       -10.6037
  64   1.0000      -0.366209        -9.9650
  65   0.0000      -0.067230        -1.8294
  66   0.0000      -0.045155        -1.2287
  67   0.0000       0.006151         0.1674
  68   0.0000       0.027134         0.7384
  69   0.0000       0.034822         0.9476

----------------------------------------------------------------------------------------------------
          SPIN FLIP ABSORPTION SPECTRUM VIA TRANSITION ELECTRIC DIPOLE MOMENTS
----------------------------------------------------------------------------------------------------
     Transition      Energy     Energy  Wavelength fosc(D2)      D2        DX        DY        DZ
                      (eV)      (cm-1)    (nm)                 (au**2)    (au)      (au)      (au)
----------------------------------------------------------------------------------------------------
  1-3A  ->  2-3A    0.110081     887.9  11263.0   0.000036245   0.01344  -0.10913   0.00327  -0.03898
  1-3A  ->  3-1A    1.969904   15888.4   629.4   0.050765693   1.05188  -0.94064   0.02510  -0.40798

Dispersion correction             ... done (  0.1 sec)

MULLIKEN ATOMIC CHARGES AND SPIN DENSITIES
------------------------------------------
   0 O :   -0.708390    0.062928
   1 O :   -0.608048   -0.044612
   2 O :   -0.604907   -0.000431
   3 O :   -0.602278    0.000396
   4 N :   -0.166887    0.000534
   5 N :   -0.436619   -0.008970
   6 N :    0.085374   -0.008633
   7 N :    0.045753   -0.011051
   8 C :    0.239724    0.289392
   9 C :    0.339401    0.276900
  10 C :    0.308386   -0.062378
  11 C :   -0.084739   -0.227930
  12 C :   -1.302345    0.013569
  13 C :   -1.154676   -0.023993
  14 C :    0.188813   -0.057319
  15 C :    0.162363   -0.244846
  16 C :    0.314071   -0.001313
  17 C :    0.452574    0.011971
  18 H :    0.682941    0.003311
  19 H :    0.717280   -0.018481
  20 H :    0.299031    0.010016
  21 H :    0.316842    0.013337
  22 H :    0.278949    0.000997
  23 H :    0.282937   -0.002653
  24 H :    0.389838    0.009018
  25 H :    0.284329    0.014714
  26 H :    0.045803    0.000695
  27 H :    0.226189    0.001938
  28 H :    0.019164   -0.000751
  29 H :   -0.010874    0.003647
Sum of atomic charges       :   -0.0000000

LOEWDIN ATOMIC CHARGES AND SPIN DENSITIES
-----------------------------------------
   0 O :    0.066479    0.055270
   1 O :    0.112902   -0.038479
   2 O :    0.105328   -0.000063
   3 O :    0.105156    0.000447
   4 N :    0.281545    0.000644
   5 N :    0.234881    0.000428
   6 N :    0.357780   -0.005704
   7 N :    0.338437   -0.009644
   8 C :   -0.091297    0.148285
   9 C :    0.027295   -0.150198
  10 C :   -0.095307   -0.000495
  11 C :   -0.052754   -0.005781
  12 C :    0.178151    0.027315
  13 C :    0.253614   -0.017641
  14 C :   -0.435564    0.021404
  15 C :   -0.392716   -0.030469
  16 C :   -0.397787   -0.000963
  17 C :   -0.520489   -0.000249
  18 H :    0.043320   -0.000772
  19 H :   -0.008509   -0.000531
  20 H :    0.006848    0.005846
  21 H :    0.015533    0.011006
  22 H :    0.016210    0.000388
  23 H :   -0.016402    0.000519
  24 H :    0.046767   -0.007055
  25 H :   -0.092996   -0.002901
  26 H :   -0.024789    0.000322
  27 H :    0.022400    0.000182
  28 H :   -0.033648   -0.000296
  29 H :   -0.050389   -0.000813

  Mayer bond orders larger than 0.100000
B(  0-O , 14-C ) :   1.2850 B(  1-O , 15-C ) :   1.3747 B(  2-O , 16-C ) :   1.5874
B(  3-O , 17-C ) :   1.5880 B(  4-N ,  8-C ) :   0.2311 B(  4-N ,  9-C ) :   0.1019
B(  4-N , 10-C ) :   0.4258 B(  4-N , 16-C ) :   1.0350 B(  4-N , 26-H ) :   1.1181
B(  5-N ,  9-C ) :   0.3088 B(  5-N , 11-C ) :   0.1515 B(  5-N , 17-C ) :   1.0642
B(  5-N , 19-H ) :  -0.1950 B(  5-N , 27-H ) :   0.8545 B(  6-N ,  8-C ) :  -0.1675
B(  6-N , 10-C ) :   0.1181 B(  6-N , 14-C ) :   1.1320 B(  6-N , 16-C ) :   0.9672
B(  6-N , 28-H ) :   1.1203 B(  7-N , 11-C ) :   0.1298 B(  7-N , 15-C ) :   0.9418
B(  7-N , 17-C ) :   0.9427 B(  7-N , 29-H ) :   1.1482 B(  8-C ,  9-C ) :   0.1474
B(  8-C , 10-C ) :   0.4877 B(  8-C , 11-C ) :   0.3514 B(  8-C , 12-C ) :   0.5726
B(  8-C , 14-C ) :   1.0120 B(  8-C , 18-H ) :  -0.1282 B(  8-C , 22-H ) :  -0.1059
B(  9-C , 11-C ) :   0.4872 B(  9-C , 13-C ) :   0.7362 B(  9-C , 15-C ) :   0.6332
B(  9-C , 19-H ) :  -0.1616 B( 10-C , 11-C ) :   0.5531 B( 10-C , 12-C ) :  -0.1875
B( 10-C , 14-C ) :  -0.3277 B( 10-C , 16-C ) :  -0.1580 B( 10-C , 18-H ) :   0.6066
B( 11-C , 17-C ) :  -0.1709 B( 11-C , 19-H ) :   0.5712 B( 12-C , 20-H ) :   0.8905
B( 12-C , 21-H ) :   0.9051 B( 12-C , 22-H ) :   0.9903 B( 13-C , 23-H ) :   1.0722
B( 13-C , 24-H ) :   0.8637 B( 13-C , 25-H ) :   0.7936

Dispersion correction           -0.058374038
FINAL SINGLE POINT ENERGY      -908.744978927122

DIPOLE MOMENT
-------------

Method             : TDA/CIS
Type of density    : Electron Density
Level              : Relaxed density
State              :   2
Multiplicity       :   3
Irrep              :   0
Energy             :     0.0000000000000000 Eh
Relativity type    :
Basis              : AO
                                X                 Y                 Z
Electronic contribution:     -5.493223694      -8.392177524      -6.863227730
Nuclear contribution   :      6.138474682       9.220945601       9.218645870
                        -----------------------------------------
Total Dipole Moment    :      0.645250988       0.828768077       2.355418141
                        -----------------------------------------
Magnitude (a.u.)       :      2.578992047
Magnitude (Debye)      :      6.555276828

Rotational constants in cm-1:             0.020907             0.012480             0.012293
Rotational constants in MHz :           626.788059           374.150645           368.534452

                             ****ORCA TERMINATED NORMALLY****
TOTAL RUN TIME: 0 days 0 hours 4 minutes 59 seconds 6 msec
