                         Program Version 6.0.0  -   RELEASE  -
|  1> ! Opt wB97M-D3BJ def2-TZVPPD
|  2> %pal nprocs 8 end %pal nprocs 64 end
|  3> %geom
|  4> Constraints
|  5>     {A 2 1 0 140.0 C }
|  6> end
|  7> MaxIter 500
|  8> end
|  9> *xyz 0 1
| 10> O   -0.0007 0.8141 0.0
| 11> C   0.7509 -0.4065 0.0
| 12> C   -0.7502 -0.4076 0.0
| 13> H   1.2625 -0.6786 0.9136
| 14> H   1.2625 -0.6787 -0.9136
| 15> H   -1.2614 -0.6806 -0.9136
| 16> H   -1.2614 -0.6805 0.9136
| 17> *
| 18>
| 19>                          ****END OF INPUT****
 Total Charge           Charge          ....    0
 Multiplicity           Mult            ....    1
 Number of Electrons    NEL             ....   24
Dispersion correction           -0.005694920
FINAL SINGLE POINT ENERGY      -153.486650130746
Dispersion correction             ... done (  0.3 sec)
Dispersion correction           -0.005628478
FINAL SINGLE POINT ENERGY      -153.646308607830
Dispersion correction             ... done (  0.1 sec)
Dispersion correction           -0.005578484
FINAL SINGLE POINT ENERGY      -153.697395766793
Dispersion correction             ... done (  0.2 sec)
FINAL SINGLE POINT ENERGY      -153.717540291218
FINAL SINGLE POINT ENERGY      -153.725069847465
FINAL SINGLE POINT ENERGY      -153.730451925156
FINAL SINGLE POINT ENERGY      -153.735020872026
FINAL SINGLE POINT ENERGY      -153.736661742758
FINAL SINGLE POINT ENERGY      -153.737463166086
FINAL SINGLE POINT ENERGY      -153.739097138480
FINAL SINGLE POINT ENERGY      -153.921899268925
FINAL SINGLE POINT ENERGY      -153.921910274238
FINAL SINGLE POINT ENERGY      -153.921920289512
FINAL SINGLE POINT ENERGY      -153.921933199371
FINAL SINGLE POINT ENERGY      -153.921956330041
FINAL SINGLE POINT ENERGY      -153.921993896771
FINAL SINGLE POINT ENERGY      -153.922036631228
Dispersion correction             ... done (  0.2 sec)
Dispersion correction           -0.005501326
FINAL SINGLE POINT ENERGY      -153.922062497105
Dispersion correction             ... done (  0.2 sec)
Dispersion correction           -0.005501747
FINAL SINGLE POINT ENERGY      -153.922067449190
Dispersion correction             ... done (  0.1 sec)
                    ***********************HURRAY********************

CARTESIAN COORDINATES (ANGSTROEM)
---------------------------------
  O      0.811982    1.379017    0.001273
  C      0.525423    0.233596    0.208539
  C     -0.462556   -0.801515   -0.237288
  H      1.171157   -0.273054    0.970744
  H      0.116686   -1.643751   -0.613135
  H     -1.177893   -0.472645   -0.988129
  H     -0.982599   -1.140049    0.657996

 Multiplicity           Mult            ....    1
 Number of Electrons    NEL             ....   24
 Basis Dimension        Dim             ....  182

ORBITAL ENERGIES
----------------

  NO   OCC          E(Eh)            E(eV)
   0   2.0000     -19.343186      -526.3548
   1   2.0000     -10.445523      -284.2371
   2   2.0000     -10.366724      -282.0929
   3   2.0000      -1.190495       -32.3950
   4   2.0000      -0.896150       -24.3855
   5   2.0000      -0.696138       -18.9429
   6   2.0000      -0.596122       -16.2213
   7   2.0000      -0.566703       -15.4208
   8   2.0000      -0.561299       -15.2737
   9   2.0000      -0.510965       -13.9041
  10   2.0000      -0.481293       -13.0966
  11   2.0000      -0.362681        -9.8691
  12   0.0000       0.034195         0.9305
  13   0.0000       0.057932         1.5764
  14   0.0000       0.059213         1.6113
  15   0.0000       0.081341         2.2134
  16   0.0000       0.085083         2.3152

MULLIKEN ATOMIC CHARGES
-----------------------
   0 O :   -0.468182
   1 C :    0.228373
   2 C :   -0.688199
   3 H :    0.208652
   4 H :    0.239683
   5 H :    0.240382
   6 H :    0.239292
Sum of atomic charges:   -0.0000000

LOEWDIN ATOMIC CHARGES
----------------------
   0 O :    0.077970
   1 C :   -0.245923
   2 C :    0.172634
   3 H :    0.019654
   4 H :   -0.007361
   5 H :   -0.009757
   6 H :   -0.007217

  Mayer bond orders larger than 0.100000
B(  0-O ,  1-C ) :   1.7718 B(  1-C ,  2-C ) :   0.7505 B(  1-C ,  3-H ) :   1.0114
B(  2-C ,  4-H ) :   0.9863 B(  2-C ,  5-H ) :   0.9620 B(  2-C ,  6-H ) :   0.9863

Dispersion correction           -0.005501736
FINAL SINGLE POINT ENERGY      -153.922068275156

DIPOLE MOMENT
-------------

Method             : SCF
Type of density    : Electron Density
Multiplicity       :   1
Irrep              :   0
Energy             :  -153.9165665386902617 Eh
Relativity type    :
Basis              : AO
                                X                 Y                 Z
Electronic contribution:      1.486926928       3.167788597       0.030340430
Nuclear contribution   :     -1.907044052      -4.290125849       0.051216988
                        -----------------------------------------
Total Dipole Moment    :     -0.420117124      -1.122337251       0.081557419
                        -----------------------------------------
Magnitude (a.u.)       :      1.201162319
Magnitude (Debye)      :      3.053111979

Rotational constants in cm-1:             2.398194             0.306814             0.286349
Rotational constants in MHz :         71896.052412          9198.045662          8584.523193

                             ****ORCA TERMINATED NORMALLY****
TOTAL RUN TIME: 0 days 0 hours 11 minutes 27 seconds 789 msec
