                         Program Version 6.0.0  -   RELEASE  -
|  1> ! Engrad def2-TZVPPD wB97M-D3BJ
|  2> %pal nprocs 8 end%pal nprocs 64 end
|  3> %tddft
|  4>  Iroot 1 Nroots 3
|  5> sf true
|  6> end
|  7> *xyz 0 3
|  8> O   1.09702258 -0.88510998 -0.01606243
|  9> C   0.51883852 0.22886293 0.52752543
| 10> C   -0.489444 0.92999564 -0.32967149
| 11> H   1.26313073 1.00653496 0.85269245
| 12> H   0.07125264 -0.1807115 1.57808795
| 13> H   -0.56698187 2.00556998 -0.30405213
| 14> H   -1.05350849 0.30944876 -1.07302784
| 15> *
| 16>
| 17>                          ****END OF INPUT****

CARTESIAN COORDINATES (ANGSTROEM)
---------------------------------
  O      1.097023   -0.885110   -0.016062
  C      0.518839    0.228863    0.527525
  C     -0.489444    0.929996   -0.329671
  H      1.263131    1.006535    0.852692
  H      0.071253   -0.180711    1.578088
  H     -0.566982    2.005570   -0.304052
  H     -1.053508    0.309449   -1.073028

 Total Charge           Charge          ....    0
 Multiplicity           Mult            ....    3
 Number of Electrons    NEL             ....   24
 Basis Dimension        Dim             ....  182

ORBITAL ENERGIES
----------------
                 SPIN UP ORBITALS
  NO   OCC          E(Eh)            E(eV)
   0   1.0000     -19.390861      -527.6521
   1   1.0000     -10.427253      -283.7400
   2   1.0000     -10.373820      -282.2860
   3   1.0000      -1.168555       -31.7980
   4   1.0000      -0.871679       -23.7196
   5   1.0000      -0.724470       -19.7138
   6   1.0000      -0.605508       -16.4767
   7   1.0000      -0.589735       -16.0475
   8   1.0000      -0.551247       -15.0002
   9   1.0000      -0.512164       -13.9367
  10   1.0000      -0.440892       -11.9973
  11   1.0000      -0.412741       -11.2313
  12   1.0000      -0.322936        -8.7875
  13   0.0000       0.040845         1.1114
  14   0.0000       0.059609         1.6221
  15   0.0000       0.078564         2.1378
  16   0.0000       0.084904         2.3104
  17   0.0000       0.109745         2.9863

                 SPIN DOWN ORBITALS
  NO   OCC          E(Eh)            E(eV)
   0   1.0000     -19.367721      -527.0225
   1   1.0000     -10.429026      -283.7882
   2   1.0000     -10.360580      -281.9257
   3   1.0000      -1.116336       -30.3770
   4   1.0000      -0.839347       -22.8398
   5   1.0000      -0.697487       -18.9796
   6   1.0000      -0.582276       -15.8445
   7   1.0000      -0.534556       -14.5460
   8   1.0000      -0.528841       -14.3905
   9   1.0000      -0.494738       -13.4625
  10   1.0000      -0.384073       -10.4512
  11   0.0000      -0.056259        -1.5309
  12   0.0000      -0.003285        -0.0894
  13   0.0000       0.040479         1.1015
  14   0.0000       0.059860         1.6289
  15   0.0000       0.078365         2.1324

----------------------------------------------------------------------------------------------------
          SPIN FLIP ABSORPTION SPECTRUM VIA TRANSITION ELECTRIC DIPOLE MOMENTS
----------------------------------------------------------------------------------------------------
     Transition      Energy     Energy  Wavelength fosc(D2)      D2        DX        DY        DZ
                      (eV)      (cm-1)    (nm)                 (au**2)    (au)      (au)      (au)
----------------------------------------------------------------------------------------------------
  1-3A  ->  2-3A    0.201943    1628.8  6139.6   0.000770382   0.15571  -0.17841   0.32933  -0.12418
  1-3A  ->  3-3A    0.767740    6192.2  1614.9   0.013474024   0.71635   0.54639  -0.63853  -0.10041

Dispersion correction             ... done (  0.2 sec)

MULLIKEN ATOMIC CHARGES AND SPIN DENSITIES
------------------------------------------
   0 O :   -0.460583   -0.047873
   1 C :   -0.029819   -0.034842
   2 C :   -0.335734    0.029916
   3 H :    0.212042   -0.023230
   4 H :    0.228085    0.083357
   5 H :    0.186283   -0.014914
   6 H :    0.199725    0.007587
Sum of atomic charges       :    0.0000000

LOEWDIN ATOMIC CHARGES AND SPIN DENSITIES
-----------------------------------------
   0 O :   -0.075065   -0.069522
   1 C :   -0.311481    0.007992
   2 C :    0.305373    0.027465
   3 H :    0.050400   -0.018177
   4 H :    0.111701    0.049737
   5 H :   -0.063914   -0.001327
   6 H :   -0.017013    0.003832

  Mayer bond orders larger than 0.100000
B(  0-O ,  1-C ) :   1.0146 B(  0-O ,  2-C ) :   0.2648 B(  1-C ,  2-C ) :   0.9535
B(  1-C ,  3-H ) :   0.9020 B(  1-C ,  4-H ) :   0.8907 B(  2-C ,  5-H ) :   0.9994
B(  2-C ,  6-H ) :   0.9687

Dispersion correction           -0.005449608
FINAL SINGLE POINT ENERGY      -153.753295154522

DIPOLE MOMENT
-------------

Method             : TDA/CIS
Type of density    : Electron Density
Level              : Relaxed density
State              :   1
Multiplicity       :   3
Irrep              :   0
Energy             :     0.0000000000000000 Eh
Relativity type    :
Basis              : AO
                                X                 Y                 Z
Electronic contribution:      1.176869824      -1.590758055      -0.384408231
Nuclear contribution   :     -1.758741579       2.683495604       0.716225448
                        -----------------------------------------
Total Dipole Moment    :     -0.581871755       1.092737549       0.331817217
                        -----------------------------------------
Magnitude (a.u.)       :      1.281699168
Magnitude (Debye)      :      3.257820381

Rotational constants in cm-1:             1.441312             0.341898             0.297239
Rotational constants in MHz :         43209.433428         10249.847190          8910.994060

                             ****ORCA TERMINATED NORMALLY****
TOTAL RUN TIME: 0 days 0 hours 0 minutes 26 seconds 471 msec
