                         Program Version 6.0.0  -   RELEASE  -
|  1> ! Engrad def2-TZVPPD wB97M-D3BJ
|  2> %pal nprocs 8 end%pal nprocs 64 end
|  3> %tddft
|  4> Iroot 0 Nroots 3
|  5> sf true
|  6> end
|  7> *xyz 0 3
|  8> O   2.4673762674863 1.25214756145363 -0.37507793554929
|  9> O   -0.75650307757471 0.82261894134795 -2.36023150498943
| 10> O   0.53362038299425 -2.66870560152075 -1.60345493345098
| 11> O   -2.37843543359779 -1.54885265510851 1.16082047428132
| 12> N   0.65887438435207 -2.16421765701979 0.61229761486912
| 13> N   -1.90305927941033 0.65863150121782 1.44993366078766
| 14> N   1.6120192800559 -0.76577955223117 -0.95141586182816
| 15> N   -1.63373548320142 -0.31718125575068 -0.61217506907423
| 16> C   1.52550751317688 -0.07150693121421 1.35345751447861
| 17> C   -0.93885022885611 1.97378762937393 -0.2908389919866
| 18> C   0.91566967107949 -1.23857871926471 1.59515924956536
| 19> C   -1.36030510139859 1.83108520181148 0.97042622504276
| 20> C   1.81182857079593 0.95509441022737 2.40011384610186
| 21> C   -0.3079849982764 3.21552347769676 -0.83056181160358
| 22> C   1.92317530032551 0.22631052415822 -0.02326240137996
| 23> C   -1.08602971287285 0.8313959470633 -1.19544156820724
| 24> C   0.90909981567178 -1.92867367314246 -0.72176978681712
| 25> C   -2.00645069603037 -0.48893163638994 0.6999392098732
| 26> H   0.57879769518558 -1.51841618385888 2.58179948518537
| 27> H   -1.29220690319041 2.63162404716285 1.69129938813562
| 28> H   1.35036395425148 1.90528225318945 2.13493686733698
| 29> H   1.43715744337304 0.6355840073029 3.37014185318226
| 30> H   2.8812738254737 1.14007719393199 2.4809348121071
| 31> H   -0.83999404323334 3.56245272575778 -1.71379209661856
| 32> H   -0.30883435379667 4.00496311071512 -0.08245339580756
| 33> H   0.71999706878031 3.01149817779088 -1.12420811511774
| 34> H   0.04049121548264 -2.93448588723802 0.79990308199897
| 35> H   -2.17000240609812 0.56948420909641 2.41311267419974
| 36> H   1.75879124324897 -0.5324512779058 -1.92196505660214
| 37> H   -1.68905191419676 -1.13477988865298 -1.20302742811335
| 38> *
| 39>
| 40>                          ****END OF INPUT****

CARTESIAN COORDINATES (ANGSTROEM)
---------------------------------
  O      2.467376    1.252148   -0.375078
  O     -0.756503    0.822619   -2.360232
  O      0.533620   -2.668706   -1.603455
  O     -2.378435   -1.548853    1.160820
  N      0.658874   -2.164218    0.612298
  N     -1.903059    0.658632    1.449934
  N      1.612019   -0.765780   -0.951416
  N     -1.633735   -0.317181   -0.612175
  C      1.525508   -0.071507    1.353458
  C     -0.938850    1.973788   -0.290839
  C      0.915670   -1.238579    1.595159
  C     -1.360305    1.831085    0.970426
  C      1.811829    0.955094    2.400114
  C     -0.307985    3.215523   -0.830562
  C      1.923175    0.226311   -0.023262
  C     -1.086030    0.831396   -1.195442
  C      0.909100   -1.928674   -0.721770
  C     -2.006451   -0.488932    0.699939
  H      0.578798   -1.518416    2.581799
  H     -1.292207    2.631624    1.691299
  H      1.350364    1.905282    2.134937
  H      1.437157    0.635584    3.370142
  H      2.881274    1.140077    2.480935
  H     -0.839994    3.562453   -1.713792
  H     -0.308834    4.004963   -0.082453
  H      0.719997    3.011498   -1.124208
  H      0.040491   -2.934486    0.799903
  H     -2.170002    0.569484    2.413113
  H      1.758791   -0.532451   -1.921965
  H     -1.689052   -1.134780   -1.203027

 Total Charge           Charge          ....    0
 Multiplicity           Mult            ....    3
 Number of Electrons    NEL             ....  132
 Basis Dimension        Dim             ....  882

ORBITAL ENERGIES
----------------
                 SPIN UP ORBITALS
  NO   OCC          E(Eh)            E(eV)
   0   1.0000     -19.332118      -526.0537
   1   1.0000     -19.327076      -525.9165
   2   1.0000     -19.322401      -525.7893
   3   1.0000     -19.318641      -525.6869
   4   1.0000     -14.592376      -397.0787
   5   1.0000     -14.584252      -396.8577
   6   1.0000     -14.570302      -396.4781
   7   1.0000     -14.548962      -395.8974
   8   1.0000     -10.514131      -286.1040
   9   1.0000     -10.509080      -285.9666
  10   1.0000     -10.477981      -285.1203
  11   1.0000     -10.456625      -284.5392
  12   1.0000     -10.431049      -283.8433
  13   1.0000     -10.408263      -283.2232
  14   1.0000     -10.395318      -282.8710
  15   1.0000     -10.379398      -282.4378
  16   1.0000     -10.372388      -282.2470
  17   1.0000     -10.348016      -281.5838
  18   1.0000      -1.228033       -33.4165
  19   1.0000      -1.223841       -33.3024
  20   1.0000      -1.193046       -32.4644
  21   1.0000      -1.189063       -32.3561
  22   1.0000      -1.124557       -30.6008
  23   1.0000      -1.122800       -30.5529
  24   1.0000      -1.069747       -29.1093
  25   1.0000      -1.059896       -28.8412
  26   1.0000      -0.975360       -26.5409
  27   1.0000      -0.955404       -25.9979
  28   1.0000      -0.858462       -23.3599
  29   1.0000      -0.845273       -23.0010
  30   1.0000      -0.810054       -22.0427
  31   1.0000      -0.808567       -22.0022
  32   1.0000      -0.794044       -21.6070
  33   1.0000      -0.788228       -21.4488
  34   1.0000      -0.700612       -19.0646
  35   1.0000      -0.694724       -18.9044
  36   1.0000      -0.691442       -18.8151
  37   1.0000      -0.690452       -18.7881
  38   1.0000      -0.644379       -17.5344
  39   1.0000      -0.639272       -17.3955
  40   1.0000      -0.628264       -17.0959
  41   1.0000      -0.600192       -16.3321
  42   1.0000      -0.596737       -16.2380
  43   1.0000      -0.593224       -16.1425
  44   1.0000      -0.572617       -15.5817
  45   1.0000      -0.569022       -15.4839
  46   1.0000      -0.567135       -15.4325
  47   1.0000      -0.555487       -15.1156
  48   1.0000      -0.549956       -14.9651
  49   1.0000      -0.548839       -14.9347
  50   1.0000      -0.531693       -14.4681
  51   1.0000      -0.521399       -14.1880
  52   1.0000      -0.516753       -14.0616
  53   1.0000      -0.513501       -13.9731
  54   1.0000      -0.510692       -13.8966
  55   1.0000      -0.496544       -13.5116
  56   1.0000      -0.493183       -13.4202
  57   1.0000      -0.476405       -12.9636
  58   1.0000      -0.420661       -11.4468
  59   1.0000      -0.418677       -11.3928
  60   1.0000      -0.404501       -11.0070
  61   1.0000      -0.403581       -10.9820
  62   1.0000      -0.389042       -10.5864
  63   1.0000      -0.386149       -10.5076
  64   1.0000      -0.385051       -10.4778
  65   1.0000      -0.346994        -9.4422
  66   1.0000      -0.207974        -5.6593
  67   0.0000       0.012179         0.3314
  68   0.0000       0.020931         0.5696
  69   0.0000       0.033112         0.9010
  70   0.0000       0.039778         1.0824
  71   0.0000       0.042106         1.1458

                 SPIN DOWN ORBITALS
  NO   OCC          E(Eh)            E(eV)
   0   1.0000     -19.330134      -525.9997
   1   1.0000     -19.327035      -525.9154
   2   1.0000     -19.322375      -525.7886
   3   1.0000     -19.312421      -525.5177
   4   1.0000     -14.587061      -396.9341
   5   1.0000     -14.584084      -396.8531
   6   1.0000     -14.570308      -396.4782
   7   1.0000     -14.548038      -395.8722
   8   1.0000     -10.514137      -286.1042
   9   1.0000     -10.509481      -285.9775
  10   1.0000     -10.477983      -285.1204
  11   1.0000     -10.456181      -284.5272
  12   1.0000     -10.431005      -283.8421
  13   1.0000     -10.398788      -282.9654
  14   1.0000     -10.385082      -282.5924
  15   1.0000     -10.379369      -282.4370
  16   1.0000     -10.372868      -282.2601
  17   1.0000     -10.347991      -281.5832
  18   1.0000      -1.226816       -33.3834
  19   1.0000      -1.220513       -33.2119
  20   1.0000      -1.192909       -32.4607
  21   1.0000      -1.179825       -32.1047
  22   1.0000      -1.122616       -30.5479
  23   1.0000      -1.113425       -30.2978
  24   1.0000      -1.069659       -29.1069
  25   1.0000      -1.054283       -28.6885
  26   1.0000      -0.955563       -26.0022
  27   1.0000      -0.951208       -25.8837
  28   1.0000      -0.847660       -23.0660
  29   1.0000      -0.844774       -22.9875
  30   1.0000      -0.809230       -22.0203
  31   1.0000      -0.797861       -21.7109
  32   1.0000      -0.793964       -21.6049
  33   1.0000      -0.781369       -21.2621
  34   1.0000      -0.694614       -18.9014
  35   1.0000      -0.691075       -18.8051
  36   1.0000      -0.688767       -18.7423
  37   1.0000      -0.682497       -18.5717
  38   1.0000      -0.642153       -17.4739
  39   1.0000      -0.630891       -17.1674
  40   1.0000      -0.622259       -16.9325
  41   1.0000      -0.596745       -16.2383
  42   1.0000      -0.589279       -16.0351
  43   1.0000      -0.584847       -15.9145
  44   1.0000      -0.567115       -15.4320
  45   1.0000      -0.563209       -15.3257
  46   1.0000      -0.554666       -15.0932
  47   1.0000      -0.549104       -14.9419
  48   1.0000      -0.546250       -14.8642
  49   1.0000      -0.543753       -14.7963
  50   1.0000      -0.523177       -14.2364
  51   1.0000      -0.515316       -14.0225
  52   1.0000      -0.513191       -13.9646
  53   1.0000      -0.506113       -13.7720
  54   1.0000      -0.501332       -13.6419
  55   1.0000      -0.495089       -13.4721
  56   1.0000      -0.477068       -12.9817
  57   1.0000      -0.444486       -12.0951
  58   1.0000      -0.419330       -11.4106
  59   1.0000      -0.414692       -11.2843
  60   1.0000      -0.403782       -10.9875
  61   1.0000      -0.386251       -10.5104
  62   1.0000      -0.379956       -10.3391
  63   1.0000      -0.377614       -10.2754
  64   1.0000      -0.345972        -9.4144
  65   0.0000      -0.106721        -2.9040
  66   0.0000       0.011216         0.3052
  67   0.0000       0.021768         0.5923
  68   0.0000       0.031274         0.8510
  69   0.0000       0.038196         1.0394

MULLIKEN ATOMIC CHARGES AND SPIN POPULATIONS
--------------------------------------------
   0 O :   -0.683096    0.228957
   1 O :   -0.658424    0.000883
   2 O :   -0.616953    0.073700
   3 O :   -0.668589    0.002069
   4 N :    0.026084    0.220368
   5 N :    0.020366    0.015151
   6 N :    0.009419    0.045416
   7 N :    0.056062    0.003223
   8 C :    0.835133    0.182358
   9 C :    0.804189   -0.015499
  10 C :   -0.199161    1.018747
  11 C :   -0.195678    0.019217
  12 C :   -1.338144    0.000359
  13 C :   -1.383332   -0.003564
  14 C :    0.459836    0.200812
  15 C :    0.490729    0.003507
  16 C :    0.335473   -0.039086
  17 C :    0.445866   -0.007289
  18 H :    0.111368    0.018712
  19 H :    0.153983    0.002707
  20 H :    0.237646    0.020003
  21 H :    0.340626    0.007194
  22 H :    0.343770    0.018731
  23 H :    0.333973    0.000149
  24 H :    0.336566    0.000111
  25 H :    0.228376   -0.001498
  26 H :    0.066402   -0.017080
  27 H :    0.025279    0.000605
  28 H :    0.041892   -0.003057
  29 H :    0.040336    0.004093
Sum of atomic charges         :    0.0000000

LOEWDIN ATOMIC CHARGES AND SPIN POPULATIONS
-------------------------------------------
   0 O :    0.081496    0.207744
   1 O :    0.102283    0.000789
   2 O :    0.105944    0.065112
   3 O :    0.070428    0.002727
   4 N :    0.303702    0.239314
   5 N :    0.282883    0.009058
   6 N :    0.317880    0.035177
   7 N :    0.344389    0.000087
   8 C :   -0.106726    0.533061
   9 C :   -0.133781    0.002651
  10 C :   -0.003103    0.537005
  11 C :    0.047397    0.005434
  12 C :    0.206179    0.068887
  13 C :    0.183622    0.001391
  14 C :   -0.417927    0.139143
  15 C :   -0.392106    0.000236
  16 C :   -0.481310    0.025654
  17 C :   -0.488746    0.004342
  18 H :    0.013057    0.061164
  19 H :    0.035791    0.000688
  20 H :   -0.004764    0.018756
  21 H :   -0.005887    0.000204
  22 H :    0.010719    0.020415
  23 H :    0.000449    0.000221
  24 H :   -0.005917    0.000093
  25 H :   -0.011583    0.000832
  26 H :   -0.012841    0.014735
  27 H :   -0.020197    0.000718
  28 H :   -0.010300    0.004360
  29 H :   -0.011031    0.000003

  Mayer bond orders larger than 0.100000
B(  0-O , 14-C ) :   1.3365 B(  1-O , 15-C ) :   1.4495 B(  2-O , 16-C ) :   1.5808
B(  3-O , 17-C ) :   1.5316 B(  4-N , 10-C ) :   0.9904 B(  4-N , 16-C ) :   0.9759
B(  4-N , 26-H ) :   1.0910 B(  5-N , 11-C ) :   0.9519 B(  5-N , 17-C ) :   1.0361
B(  5-N , 27-H ) :   1.1295 B(  6-N , 14-C ) :   0.9084 B(  6-N , 16-C ) :   0.9036
B(  6-N , 28-H ) :   1.1057 B(  7-N , 15-C ) :   0.9741 B(  7-N , 16-C ) :   0.1204
B(  7-N , 17-C ) :   0.9428 B(  7-N , 29-H ) :   1.1135 B(  8-C , 10-C ) :   0.1191
B(  8-C , 12-C ) :   0.3957 B(  8-C , 14-C ) :   1.0148 B(  8-C , 18-H ) :  -0.1973
B(  9-C , 11-C ) :   1.1710 B(  9-C , 13-C ) :   0.3612 B(  9-C , 15-C ) :   0.7986
B(  9-C , 19-H ) :  -0.1074 B(  9-C , 25-H ) :  -0.1014 B( 10-C , 14-C ) :  -0.1254
B( 10-C , 18-H ) :   1.2953 B( 11-C , 13-C ) :  -0.1333 B( 11-C , 19-H ) :   1.1368
B( 12-C , 20-H ) :   0.9929 B( 12-C , 21-H ) :   0.9937 B( 12-C , 22-H ) :   0.9189
B( 13-C , 23-H ) :   0.9397 B( 13-C , 24-H ) :   0.9931 B( 13-C , 25-H ) :   1.0038

----------------------------------------------------------------------------------------------------
          SPIN FLIP ABSORPTION SPECTRUM VIA TRANSITION ELECTRIC DIPOLE MOMENTS
----------------------------------------------------------------------------------------------------
     Transition      Energy     Energy  Wavelength fosc(D2)      D2        DX        DY        DZ
                      (eV)      (cm-1)    (nm)                 (au**2)    (au)      (au)      (au)
----------------------------------------------------------------------------------------------------
  1-3A  ->  2-3A    4.291405   34612.5   288.9   0.001627326   0.01548   0.05049   0.08997  -0.06953
  1-3A  ->  3-1A    5.550340   44766.5   223.4   0.529808768   3.89620   0.87916   1.72961  -0.36292

Dispersion correction           -0.058481579
FINAL SINGLE POINT ENERGY      -908.796899730883

DIPOLE MOMENT
-------------

Method             : SCF
Type of density    : Electron Density
Multiplicity       :   3
Irrep              :   0
Energy             :  -908.7384181517975321 Eh
Relativity type    :
Basis              : AO
                                X                 Y                 Z
Electronic contribution:     -2.739199828      -9.526120021      -5.726044227
Nuclear contribution   :      2.338805983      10.386253025       8.207437518
                        -----------------------------------------
Total Dipole Moment    :     -0.400393845       0.860133004       2.481393291
                        -----------------------------------------
Magnitude (a.u.)       :      2.656587412
Magnitude (Debye)      :      6.752508571

Rotational constants in cm-1:             0.017132             0.015555             0.013852
Rotational constants in MHz :           513.609405           466.340627           415.271427

                             ****ORCA TERMINATED NORMALLY****
TOTAL RUN TIME: 0 days 0 hours 4 minutes 42 seconds 637 msec
