                         Program Version 6.0.0  -   RELEASE  -
|  1> ! Engrad wB97M-D3BJ def2-TZVPPD
|  2> %pal nprocs 8 end%pal nprocs 16 end
|  3> %tddft nroots 2 Iroot 2
|  4>  sf true
|  5> end
|  6> *xyz 0 3
|  7> O   0.31205911829959 0.91214556674276 -0.00031728875893
|  8> C   0.73103004831287 -0.37331077910073 -6.503120067e-05
|  9> C   -0.6765851063264 -0.53014318506491 -7.905414865e-05
| 10> H   1.26821774981087 -0.69598666841189 0.8955624652775
| 11> H   1.26841615380092 -0.69628446710186 -0.89546640626502
| 12> H   -1.22084358906884 -0.57658367744553 -0.92801461542208
| 13> H   -1.22008294486082 -0.57536145110033 0.92837993051786
| 14> *
| 15>
| 16>                          ****END OF INPUT****

CARTESIAN COORDINATES (ANGSTROEM)
---------------------------------
  O      0.312059    0.912146   -0.000317
  C      0.731030   -0.373311   -0.000065
  C     -0.676585   -0.530143   -0.000079
  H      1.268218   -0.695987    0.895562
  H      1.268416   -0.696284   -0.895466
  H     -1.220844   -0.576584   -0.928015
  H     -1.220083   -0.575361    0.928380

 Total Charge           Charge          ....    0
 Multiplicity           Mult            ....    3
 Number of Electrons    NEL             ....   24
 Basis Dimension        Dim             ....  182

ORBITAL ENERGIES
----------------
                 SPIN UP ORBITALS
  NO   OCC          E(Eh)            E(eV)
   0   1.0000     -19.428545      -528.6776
   1   1.0000     -10.409782      -283.2646
   2   1.0000     -10.334685      -281.2211
   3   1.0000      -1.243083       -33.8260
   4   1.0000      -0.860015       -23.4022
   5   1.0000      -0.751088       -20.4381
   6   1.0000      -0.659118       -17.9355
   7   1.0000      -0.623124       -16.9561
   8   1.0000      -0.550820       -14.9886
   9   1.0000      -0.499427       -13.5901
  10   1.0000      -0.470207       -12.7950
  11   1.0000      -0.453906       -12.3514
  12   1.0000      -0.218823        -5.9545
  13   0.0000       0.039765         1.0821
  14   0.0000       0.063409         1.7255
  15   0.0000       0.071894         1.9563
  16   0.0000       0.085651         2.3307
  17   0.0000       0.114059         3.1037

                 SPIN DOWN ORBITALS
  NO   OCC          E(Eh)            E(eV)
   0   1.0000     -19.397221      -527.8252
   1   1.0000     -10.410662      -283.2885
   2   1.0000     -10.322792      -280.8975
   3   1.0000      -1.178223       -32.0611
   4   1.0000      -0.825346       -22.4588
   5   1.0000      -0.731295       -19.8996
   6   1.0000      -0.610973       -16.6254
   7   1.0000      -0.586814       -15.9680
   8   1.0000      -0.521016       -14.1776
   9   1.0000      -0.471011       -12.8169
  10   1.0000      -0.405960       -11.0467
  11   0.0000      -0.088872        -2.4183
  12   0.0000       0.036658         0.9975
  13   0.0000       0.052446         1.4271
  14   0.0000       0.061850         1.6830
  15   0.0000       0.068741         1.8705

----------------------------------------------------------------------------------------------------
          SPIN FLIP ABSORPTION SPECTRUM VIA TRANSITION ELECTRIC DIPOLE MOMENTS
----------------------------------------------------------------------------------------------------
     Transition      Energy     Energy  Wavelength fosc(D2)      D2        DX        DY        DZ
                      (eV)      (cm-1)    (nm)                 (au**2)    (au)      (au)      (au)
----------------------------------------------------------------------------------------------------
  1-3A  ->  2-3A    4.246976   34254.2   291.9   0.002543893   0.02445  -0.00005  -0.00007  -0.15636

Dispersion correction             ... done (  0.0 sec)

MULLIKEN ATOMIC CHARGES AND SPIN DENSITIES
------------------------------------------
   0 O :   -0.289904    0.603771
   1 C :    0.148800    0.259280
   2 C :   -0.346308   -0.529176
   3 H :    0.205292    0.023889
   4 H :    0.205174    0.023773
   5 H :    0.038324   -0.190887
   6 H :    0.038623   -0.190649
Sum of atomic charges       :    0.0000000

LOEWDIN ATOMIC CHARGES AND SPIN DENSITIES
-----------------------------------------
   0 O :    0.109154    0.602141
   1 C :   -0.162017    0.048282
   2 C :    0.125518   -0.505082
   3 H :    0.035503    0.021277
   4 H :    0.035513    0.021289
   5 H :   -0.071852   -0.093985
   6 H :   -0.071818   -0.093922

  Mayer bond orders larger than 0.100000
B(  0-O ,  1-C ) :   0.8007 B(  0-O ,  2-C ) :   0.4622 B(  1-C ,  2-C ) :   0.5933
B(  1-C ,  3-H ) :   0.9884 B(  1-C ,  4-H ) :   0.9882 B(  2-C ,  5-H ) :   1.1589
B(  2-C ,  6-H ) :   1.1588 B(  5-H ,  6-H ) :   0.1066

Dispersion correction           -0.005299364
FINAL SINGLE POINT ENERGY      -153.682599758837

DIPOLE MOMENT
-------------

Method             : TDA/CIS
Type of density    : Electron Density
Level              : Relaxed density
State              :   2
Multiplicity       :   3
Irrep              :   0
Energy             :     0.0000000000000000 Eh
Relativity type    :
Basis              : AO
                                X                 Y                 Z
Electronic contribution:      0.984489657       2.412803698      -0.001122729
Nuclear contribution   :     -0.396750424      -2.474132403       0.000970524
                        -----------------------------------------
Total Dipole Moment    :      0.587739233      -0.061328705      -0.000152204
                        -----------------------------------------
Magnitude (a.u.)       :      0.590930317
Magnitude (Debye)      :      1.502025497

Rotational constants in cm-1:             0.950558             0.603782             0.432832
Rotational constants in MHz :         28497.020091         18100.917761         12975.965046

                             ****ORCA TERMINATED NORMALLY****
TOTAL RUN TIME: 0 days 0 hours 0 minutes 17 seconds 816 msec
