                         Program Version 6.0.0  -   RELEASE  -
|  1> ! opt def2-TZVPPD wB97M-D3BJ
|  2> %pal nprocs 8 end%pal nprocs 32 end
|  3> %geom Constraints
|  4> {B 9 8 3.1 C}
|  5> {A 8 9 11 79.71428571428571 C}
|  6> end
|  7> MaxIter 300
|  8> end
|  9> *xyz 0 1
| 10> O   2.98579685529314 0.88758230159078 -0.86184571092411
| 11> O   -0.03983205397054 0.68929041702508 -2.10362336723772
| 12> O   0.93431434349854 -3.13274393337945 -0.68767288184107
| 13> O   -3.75829998830163 -0.84727300865116 -0.0472717177755
| 14> N   0.21184538946282 -1.54604804365365 0.7617588924445
| 15> N   -2.13631993928911 0.03188773433438 1.27350571071531
| 16> N   2.02598672506387 -1.14318467211666 -0.64531219127023
| 17> N   -1.91814233924584 0.03137116037665 -1.04498946748291
| 18> C   1.18097737274226 0.71693507080484 0.70173889017321
| 19> C   -0.20686880480777 1.27024627933494 0.21345042231937
| 20> C   0.41441080275909 -0.34173258966541 1.52336266615173
| 21> C   -0.82922175114212 0.58960593673968 1.44434972027296
| 22> C   1.92822011286806 1.69488653817281 1.5963734975385
| 23> C   -0.37809776891576 2.77134929626422 0.04819649358288
| 24> C   2.1403947470937 0.1972384729179 -0.35038567829864
| 25> C   -0.67361678962426 0.6214190571346 -1.0793014500539
| 26> C   1.04142578622994 -2.02697492875068 -0.21027082435993
| 27> C   -2.68467002550422 -0.30396816036989 0.07167054343891
| 28> H   0.80817443950001 -0.54572267081061 2.51895215321335
| 29> H   -0.83785272399001 1.27240685039143 2.28901317073582
| 30> H   2.31167340578204 2.52284411740894 1.00913016264629
| 31> H   1.28982602448342 2.08257620823614 2.38710022492991
| 32> H   2.77390820759972 1.19140411795486 2.06045858523949
| 33> H   -1.41857211141493 3.00964947214868 -0.16882755561625
| 34> H   -0.09065531563179 3.29799318042223 0.95389844358819
| 35> H   0.23426221611057 3.12492645074476 -0.77764887675592
| 36> H   -0.46772570547622 -2.21560145172536 1.0787081584806
| 37> H   -2.71769301149571 -0.17090724573546 2.06627440900372
| 38> H   2.60065167263658 -1.49057255715425 -1.3966820077142
| 39> H   -2.27169977231386 -0.32388339999036 -1.91951041514436
| 40> *
| 41>
| 42>                          ****END OF INPUT****
 Total Charge           Charge          ....    0
 Multiplicity           Mult            ....    1
 Number of Electrons    NEL             ....  132
Dispersion correction           -0.052810731
FINAL SINGLE POINT ENERGY      -908.635429204863
Dispersion correction             ... done (  0.0 sec)
Dispersion correction           -0.053460729
FINAL SINGLE POINT ENERGY      -908.665701416865
Dispersion correction             ... done (  0.0 sec)
Dispersion correction           -0.054121814
FINAL SINGLE POINT ENERGY      -908.684872963687
Dispersion correction             ... done (  0.0 sec)
FINAL SINGLE POINT ENERGY      -908.699861319512
FINAL SINGLE POINT ENERGY      -908.707586546096
FINAL SINGLE POINT ENERGY      -908.715200451756
FINAL SINGLE POINT ENERGY      -908.744278838582
FINAL SINGLE POINT ENERGY      -908.797967350754
FINAL SINGLE POINT ENERGY      -908.835067061230
FINAL SINGLE POINT ENERGY      -908.853057247658
FINAL SINGLE POINT ENERGY      -908.931617132626
FINAL SINGLE POINT ENERGY      -908.931931632771
FINAL SINGLE POINT ENERGY      -908.932102936279
FINAL SINGLE POINT ENERGY      -908.932286475194
FINAL SINGLE POINT ENERGY      -908.932418672144
FINAL SINGLE POINT ENERGY      -908.932521846658
FINAL SINGLE POINT ENERGY      -908.932578021443
Dispersion correction             ... done (  0.0 sec)
Dispersion correction           -0.060881635
FINAL SINGLE POINT ENERGY      -908.932598484017
Dispersion correction             ... done (  0.0 sec)
Dispersion correction           -0.060858393
FINAL SINGLE POINT ENERGY      -908.932603825934
Dispersion correction             ... done (  0.0 sec)
                    ***********************HURRAY********************

CARTESIAN COORDINATES (ANGSTROEM)
---------------------------------
  O      2.614009    1.147602   -0.522889
  O     -0.578727    0.871977   -2.279054
  O      0.669800   -2.844726   -1.485155
  O     -2.571167   -1.632059    0.948171
  N      0.577818   -2.073311    0.655536
  N     -1.993956    0.517357    1.425434
  N      1.710757   -0.883447   -0.958510
  N     -1.630138   -0.333976   -0.677602
  C      1.372168    0.107441    1.209261
  C     -0.799786    1.865833   -0.132631
  C      0.744135   -1.029382    1.535800
  C     -1.351847    1.681507    1.070805
  C      1.632444    1.220186    2.172033
  C     -0.086487    3.114067   -0.540977
  C      1.960316    0.205456   -0.127269
  C     -0.969623    0.812254   -1.135389
  C      0.963312   -2.003665   -0.665977
  C     -2.107545   -0.569560    0.588979
  H      0.321998   -1.192171    2.515831
  H     -1.302091    2.430962    1.845714
  H      1.363717    2.178328    1.734267
  H      1.068910    1.076159    3.091814
  H      2.691432    1.274047    2.419288
  H     -0.556826    3.549911   -1.420072
  H     -0.100076    3.845440    0.264364
  H      0.946567    2.892702   -0.800410
  H     -0.063720   -2.816431    0.874323
  H     -2.361506    0.388531    2.350403
  H      1.990863   -0.784346   -1.922027
  H     -1.702151   -1.101684   -1.329460

 Multiplicity           Mult            ....    1
 Number of Electrons    NEL             ....  132
 Basis Dimension        Dim             ....  882

ORBITAL ENERGIES
----------------

  NO   OCC          E(Eh)            E(eV)
   0   2.0000     -19.330369      -526.0061
   1   2.0000     -19.324252      -525.8396
   2   2.0000     -19.320285      -525.7317
   3   2.0000     -19.319148      -525.7007
   4   2.0000     -14.587549      -396.9474
   5   2.0000     -14.574846      -396.6017
   6   2.0000     -14.572261      -396.5314
   7   2.0000     -14.563583      -396.2953
   8   2.0000     -10.516818      -286.1772
   9   2.0000     -10.505791      -285.8771
  10   2.0000     -10.479813      -285.1702
  11   2.0000     -10.475667      -285.0574
  12   2.0000     -10.431485      -283.8551
  13   2.0000     -10.428774      -283.7814
  14   2.0000     -10.380214      -282.4600
  15   2.0000     -10.378933      -282.4251
  16   2.0000     -10.361677      -281.9556
  17   2.0000     -10.349538      -281.6253
  18   2.0000      -1.229742       -33.4630
  19   2.0000      -1.219273       -33.1781
  20   2.0000      -1.195413       -32.5288
  21   2.0000      -1.189407       -32.3654
  22   2.0000      -1.125731       -30.6327
  23   2.0000      -1.116468       -30.3806
  24   2.0000      -1.072177       -29.1754
  25   2.0000      -1.063909       -28.9504
  26   2.0000      -0.960559       -26.1381
  27   2.0000      -0.953208       -25.9381
  28   2.0000      -0.849017       -23.1029
  29   2.0000      -0.846760       -23.0415
  30   2.0000      -0.812259       -22.1027
  31   2.0000      -0.807264       -21.9668
  32   2.0000      -0.796347       -21.6697
  33   2.0000      -0.787925       -21.4405
  34   2.0000      -0.697171       -18.9710
  35   2.0000      -0.693906       -18.8821
  36   2.0000      -0.691212       -18.8088
  37   2.0000      -0.687750       -18.7146
  38   2.0000      -0.644394       -17.5349
  39   2.0000      -0.640648       -17.4329
  40   2.0000      -0.634339       -17.2612
  41   2.0000      -0.598804       -16.2943
  42   2.0000      -0.596554       -16.2331
  43   2.0000      -0.591399       -16.0928
  44   2.0000      -0.569771       -15.5043
  45   2.0000      -0.566637       -15.4190
  46   2.0000      -0.559910       -15.2359
  47   2.0000      -0.551129       -14.9970
  48   2.0000      -0.550220       -14.9722
  49   2.0000      -0.543990       -14.8027
  50   2.0000      -0.520236       -14.1564
  51   2.0000      -0.518106       -14.0984
  52   2.0000      -0.514907       -14.0113
  53   2.0000      -0.512782       -13.9535
  54   2.0000      -0.505321       -13.7505
  55   2.0000      -0.497111       -13.5271
  56   2.0000      -0.480425       -13.0730
  57   2.0000      -0.471749       -12.8369
  58   2.0000      -0.422119       -11.4864
  59   2.0000      -0.412048       -11.2124
  60   2.0000      -0.406213       -11.0536
  61   2.0000      -0.395939       -10.7740
  62   2.0000      -0.388287       -10.5658
  63   2.0000      -0.383829       -10.4445
  64   2.0000      -0.351761        -9.5719
  65   2.0000      -0.339386        -9.2352
  66   0.0000       0.009688         0.2636
  67   0.0000       0.017151         0.4667
  68   0.0000       0.024001         0.6531
  69   0.0000       0.034203         0.9307
  70   0.0000       0.040179         1.0933

MULLIKEN ATOMIC CHARGES
-----------------------
   0 O :   -0.676004
   1 O :   -0.662839
   2 O :   -0.649550
   3 O :   -0.670284
   4 N :   -0.058895
   5 N :    0.004088
   6 N :    0.047581
   7 N :    0.035734
   8 C :    0.972639
   9 C :    0.549780
  10 C :    0.066003
  11 C :    0.072270
  12 C :   -1.508888
  13 C :   -1.494273
  14 C :    0.186952
  15 C :    0.597576
  16 C :    0.387358
  17 C :    0.435468
  18 H :    0.181975
  19 H :    0.169805
  20 H :    0.235976
  21 H :    0.330599
  22 H :    0.379657
  23 H :    0.382306
  24 H :    0.326035
  25 H :    0.225831
  26 H :    0.063411
  27 H :    0.019885
  28 H :    0.028272
  29 H :    0.021532
Sum of atomic charges:    0.0000000

LOEWDIN ATOMIC CHARGES
----------------------
   0 O :    0.090550
   1 O :    0.104730
   2 O :    0.087534
   3 O :    0.074362
   4 N :    0.278992
   5 N :    0.284462
   6 N :    0.345237
   7 N :    0.347505
   8 C :   -0.145064
   9 C :   -0.142921
  10 C :    0.042101
  11 C :    0.038696
  12 C :    0.177943
  13 C :    0.183607
  14 C :   -0.398162
  15 C :   -0.392310
  16 C :   -0.483595
  17 C :   -0.492713
  18 H :    0.040833
  19 H :    0.039772
  20 H :   -0.017911
  21 H :   -0.003703
  22 H :    0.005105
  23 H :    0.002703
  24 H :   -0.004501
  25 H :   -0.016618
  26 H :   -0.021199
  27 H :   -0.018638
  28 H :   -0.001660
  29 H :   -0.005140

  Mayer bond orders larger than 0.100000
B(  0-O , 14-C ) :   1.4512 B(  1-O , 15-C ) :   1.4251 B(  2-O , 16-C ) :   1.5644
B(  3-O , 17-C ) :   1.5409 B(  4-N , 10-C ) :   0.8200 B(  4-N , 16-C ) :   1.0122
B(  4-N , 26-H ) :   1.1138 B(  5-N , 11-C ) :   0.9590 B(  5-N , 17-C ) :   1.0344
B(  5-N , 27-H ) :   1.1323 B(  6-N , 14-C ) :   1.0376 B(  6-N , 16-C ) :   0.9143
B(  6-N , 28-H ) :   1.1041 B(  7-N , 15-C ) :   0.9749 B(  7-N , 17-C ) :   0.9371
B(  7-N , 29-H ) :   1.1241 B(  8-C , 10-C ) :   1.0519 B(  8-C , 12-C ) :   0.3430
B(  8-C , 14-C ) :   0.6544 B(  8-C , 20-H ) :  -0.1043 B(  8-C , 21-H ) :  -0.1001
B(  9-C , 11-C ) :   1.1693 B(  9-C , 13-C ) :   0.3402 B(  9-C , 15-C ) :   0.7129
B(  9-C , 24-H ) :  -0.1151 B( 10-C , 12-C ) :  -0.1925 B( 10-C , 18-H ) :   1.1297
B( 11-C , 13-C ) :  -0.2396 B( 11-C , 19-H ) :   1.1162 B( 12-C , 14-C ) :  -0.1026
B( 12-C , 20-H ) :   1.0123 B( 12-C , 21-H ) :   1.0304 B( 12-C , 22-H ) :   0.8760
B( 13-C , 23-H ) :   0.8630 B( 13-C , 24-H ) :   1.0716 B( 13-C , 25-H ) :   0.9895

Dispersion correction           -0.060870414
FINAL SINGLE POINT ENERGY      -908.932605705515

DIPOLE MOMENT
-------------

Method             : SCF
Type of density    : Electron Density
Multiplicity       :   1
Irrep              :   0
Energy             :  -908.8717352919687755 Eh
Relativity type    :
Basis              : AO
                                X                 Y                 Z
Electronic contribution:     -2.664551159     -10.102317697      -6.003339251
Nuclear contribution   :      2.057506956      11.027553783       8.521221859
                        -----------------------------------------
Total Dipole Moment    :     -0.607044202       0.925236087       2.517882608
                        -----------------------------------------
Magnitude (a.u.)       :      2.750326763
Magnitude (Debye)      :      6.990775066

Rotational constants in cm-1:             0.017340             0.016772             0.013563
Rotational constants in MHz :           519.852546           502.826495           406.605789

                             ****ORCA TERMINATED NORMALLY****
TOTAL RUN TIME: 0 days 1 hours 17 minutes 39 seconds 26 msec
