                         Program Version 6.0.0  -   RELEASE  -
|  1> ! Opt wB97M-D3BJ def2-TZVPPD
|  2> %pal nprocs 8 end %pal nprocs 64 end
|  3> %geom
|  4> Constraints
|  5>     {A 2 1 0 71.81818181818181 C }
|  6> end
|  7> MaxIter 500
|  8> end
|  9> *xyz 0 1
| 10> O   -0.0007 0.8141 0.0
| 11> C   0.7509 -0.4065 0.0
| 12> C   -0.7502 -0.4076 0.0
| 13> H   1.2625 -0.6786 0.9136
| 14> H   1.2625 -0.6787 -0.9136
| 15> H   -1.2614 -0.6806 -0.9136
| 16> H   -1.2614 -0.6805 0.9136
| 17> *
| 18>
| 19>                          ****END OF INPUT****
 Total Charge           Charge          ....    0
 Multiplicity           Mult            ....    1
 Number of Electrons    NEL             ....   24
Dispersion correction           -0.005269211
FINAL SINGLE POINT ENERGY      -153.866553616592
Dispersion correction             ... done (  0.1 sec)
Dispersion correction           -0.005245730
FINAL SINGLE POINT ENERGY      -153.870637245097
Dispersion correction             ... done (  0.1 sec)
Dispersion correction           -0.005237752
FINAL SINGLE POINT ENERGY      -153.871853837903
Dispersion correction             ... done (  0.1 sec)
FINAL SINGLE POINT ENERGY      -153.872019692082
FINAL SINGLE POINT ENERGY      -153.872087577517
Dispersion correction             ... done (  0.1 sec)
Dispersion correction           -0.005242024
FINAL SINGLE POINT ENERGY      -153.872097352913
Dispersion correction             ... done (  0.1 sec)
Dispersion correction           -0.005242691
FINAL SINGLE POINT ENERGY      -153.872099130374
Dispersion correction             ... done (  0.1 sec)
                    ***********************HURRAY********************

CARTESIAN COORDINATES (ANGSTROEM)
---------------------------------
  O      0.109473    0.856043   -0.000196
  C      0.682025   -0.382681    0.000075
  C     -0.728479   -0.546508   -0.000087
  H      1.233226   -0.652114    0.901204
  H      1.233007   -0.652200   -0.901194
  H     -1.263701   -0.671043   -0.926390
  H     -1.263350   -0.669898    0.926589

 Multiplicity           Mult            ....    1
 Number of Electrons    NEL             ....   24
 Basis Dimension        Dim             ....  182

ORBITAL ENERGIES
----------------

  NO   OCC          E(Eh)            E(eV)
   0   2.0000     -19.347717      -526.4781
   1   2.0000     -10.407834      -283.2116
   2   2.0000     -10.396696      -282.9085
   3   2.0000      -1.180978       -32.1361
   4   2.0000      -0.831069       -22.6145
   5   2.0000      -0.744373       -20.2554
   6   2.0000      -0.628922       -17.1138
   7   2.0000      -0.590946       -16.0804
   8   2.0000      -0.499260       -13.5855
   9   2.0000      -0.494399       -13.4533
  10   2.0000      -0.420345       -11.4382
  11   2.0000      -0.378645       -10.3035
  12   0.0000       0.039867         1.0848
  13   0.0000       0.057024         1.5517
  14   0.0000       0.065087         1.7711
  15   0.0000       0.077192         2.1005
  16   0.0000       0.109691         2.9849

MULLIKEN ATOMIC CHARGES
-----------------------
   0 O :   -0.410177
   1 C :   -0.115284
   2 C :   -0.251994
   3 H :    0.196616
   4 H :    0.196586
   5 H :    0.192085
   6 H :    0.192167
Sum of atomic charges:   -0.0000000

LOEWDIN ATOMIC CHARGES
----------------------
   0 O :   -0.028354
   1 C :   -0.186437
   2 C :    0.166318
   3 H :    0.022582
   4 H :    0.022582
   5 H :    0.001661
   6 H :    0.001647

  Mayer bond orders larger than 0.100000
B(  0-O ,  1-C ) :   0.7350 B(  0-O ,  2-C ) :   0.8969 B(  1-C ,  2-C ) :   0.8007
B(  1-C ,  3-H ) :   1.0438 B(  1-C ,  4-H ) :   1.0437 B(  2-C ,  5-H ) :   0.9872
B(  2-C ,  6-H ) :   0.9872

Dispersion correction           -0.005242834
FINAL SINGLE POINT ENERGY      -153.872099444403

DIPOLE MOMENT
-------------

Method             : SCF
Type of density    : Electron Density
Multiplicity       :   1
Irrep              :   0
Energy             :  -153.8668566107912454 Eh
Relativity type    :
Basis              : AO
                                X                 Y                 Z
Electronic contribution:      0.015016235       1.554334826      -0.000338347
Nuclear contribution   :     -0.152266885      -2.457845661       0.000456212
                        -----------------------------------------
Total Dipole Moment    :     -0.137250650      -0.903510835       0.000117865
                        -----------------------------------------
Magnitude (a.u.)       :      0.913876132
Magnitude (Debye)      :      2.322888524

Rotational constants in cm-1:             0.899302             0.668110             0.452658
Rotational constants in MHz :         26960.403561         20029.439909         13570.347325

                             ****ORCA TERMINATED NORMALLY****
TOTAL RUN TIME: 0 days 0 hours 1 minutes 47 seconds 519 msec
