                         Program Version 6.0.0  -   RELEASE  -
|  1> ! Engrad def2-TZVPPD wB97M-D3BJ
|  2> %pal nprocs 8 end%pal nprocs 32 end
|  3>  %tddft nroots 2 Iroot 2
|  4> sf true
|  5> end
|  6> *xyz 0 3
|  7> O   4.05963441879086 0.13965121070777 0.34304807325018
|  8> O   -1.71485150588565 1.52144052663339 -2.38216363146146
|  9> O   1.14313983819435 -3.01562714925954 -1.08496419584927
| 10> O   -3.62917934474847 -1.35088967540953 0.50766851685516
| 11> N   0.2978795757181 -1.27024872881976 0.09636060429949
| 12> N   -1.98520657184272 -0.00868053887028 1.31505404180488
| 13> N   2.58992543662275 -1.48463693978563 -0.24431579486433
| 14> N   -2.42069171388814 -0.11246939980744 -0.96887231596893
| 15> C   1.81831081041637 0.40567292785697 1.01717332221407
| 16> C   -0.91933734279951 1.57171116857694 -0.15995766524655
| 17> C   0.46454982168682 -0.26796706832603 1.12865324366273
| 18> C   -0.72816339524013 0.70357191017153 1.10077944814444
| 19> C   2.10036970417407 1.65524943695618 1.72415699866695
| 20> C   -0.64034742142197 3.0073363686342 -0.09805737170182
| 21> C   2.91913504442019 -0.28663535799479 0.36030743318468
| 22> C   -1.67689297948767 1.0247133047604 -1.27387192409007
| 23> C   1.31514287561412 -2.00237434585913 -0.4480663588253
| 24> C   -2.74333985821116 -0.54981158765202 0.31027212148906
| 25> H   0.44378006145207 -0.7718303596408 2.11814598628037
| 26> H   -0.60669380285919 1.38992315790452 1.93931585332559
| 27> H   3.16568299362762 1.75201931620338 1.91239133551885
| 28> H   1.80676500494928 2.53367908562908 1.12026907989681
| 29> H   1.53302363493788 1.73704410028967 2.65377434116799
| 30> H   -1.20426049308233 3.47892649330321 0.71620685216813
| 31> H   0.41593114740443 3.20407510385025 0.15052784508542
| 32> H   -0.88682702919285 3.49288891513643 -1.03631534630765
| 33> H   -0.57252354051638 -1.77389219332076 0.08095457691956
| 34> H   -2.22088589344374 -0.35619751676956 2.22803959908133
| 35> H   3.3326428412217 -1.97438625670627 -0.71704074167504
| 36> H   -3.00411231661075 -0.47725590839241 -1.70487392702528
| 37> *
| 38>
| 39>                          ****END OF INPUT****

CARTESIAN COORDINATES (ANGSTROEM)
---------------------------------
  O      4.059634    0.139651    0.343048
  O     -1.714852    1.521441   -2.382164
  O      1.143140   -3.015627   -1.084964
  O     -3.629179   -1.350890    0.507669
  N      0.297880   -1.270249    0.096361
  N     -1.985207   -0.008681    1.315054
  N      2.589925   -1.484637   -0.244316
  N     -2.420692   -0.112469   -0.968872
  C      1.818311    0.405673    1.017173
  C     -0.919337    1.571711   -0.159958
  C      0.464550   -0.267967    1.128653
  C     -0.728163    0.703572    1.100779
  C      2.100370    1.655249    1.724157
  C     -0.640347    3.007336   -0.098057
  C      2.919135   -0.286635    0.360307
  C     -1.676893    1.024713   -1.273872
  C      1.315143   -2.002374   -0.448066
  C     -2.743340   -0.549812    0.310272
  H      0.443780   -0.771830    2.118146
  H     -0.606694    1.389923    1.939316
  H      3.165683    1.752019    1.912391
  H      1.806765    2.533679    1.120269
  H      1.533024    1.737044    2.653774
  H     -1.204260    3.478926    0.716207
  H      0.415931    3.204075    0.150528
  H     -0.886827    3.492889   -1.036315
  H     -0.572524   -1.773892    0.080955
  H     -2.220886   -0.356198    2.228040
  H      3.332643   -1.974386   -0.717041
  H     -3.004112   -0.477256   -1.704874

 Total Charge           Charge          ....    0
 Multiplicity           Mult            ....    3
 Number of Electrons    NEL             ....  132
 Basis Dimension        Dim             ....  882

ORBITAL ENERGIES
----------------
                 SPIN UP ORBITALS
  NO   OCC          E(Eh)            E(eV)
   0   1.0000     -19.338889      -526.2379
   1   1.0000     -19.334556      -526.1200
   2   1.0000     -19.325648      -525.8776
   3   1.0000     -19.317998      -525.6694
   4   1.0000     -14.568590      -396.4315
   5   1.0000     -14.565794      -396.3554
   6   1.0000     -14.563508      -396.2932
   7   1.0000     -14.558226      -396.1495
   8   1.0000     -10.511195      -286.0242
   9   1.0000     -10.504375      -285.8386
  10   1.0000     -10.485350      -285.3209
  11   1.0000     -10.483105      -285.2598
  12   1.0000     -10.452850      -284.4365
  13   1.0000     -10.449781      -284.3530
  14   1.0000     -10.423943      -283.6499
  15   1.0000     -10.422472      -283.6099
  16   1.0000     -10.378512      -282.4137
  17   1.0000     -10.378026      -282.4004
  18   1.0000      -1.225589       -33.3500
  19   1.0000      -1.219709       -33.1900
  20   1.0000      -1.202404       -32.7191
  21   1.0000      -1.197873       -32.5958
  22   1.0000      -1.122531       -30.5456
  23   1.0000      -1.100361       -29.9424
  24   1.0000      -1.070699       -29.1352
  25   1.0000      -1.059753       -28.8374
  26   1.0000      -0.984932       -26.8014
  27   1.0000      -0.960829       -26.1455
  28   1.0000      -0.899522       -24.4772
  29   1.0000      -0.845004       -22.9937
  30   1.0000      -0.833602       -22.6835
  31   1.0000      -0.801637       -21.8136
  32   1.0000      -0.789032       -21.4707
  33   1.0000      -0.785507       -21.3747
  34   1.0000      -0.704871       -19.1805
  35   1.0000      -0.701951       -19.1011
  36   1.0000      -0.691902       -18.8276
  37   1.0000      -0.681763       -18.5517
  38   1.0000      -0.648461       -17.6455
  39   1.0000      -0.643599       -17.5132
  40   1.0000      -0.627778       -17.0827
  41   1.0000      -0.607778       -16.5385
  42   1.0000      -0.600542       -16.3416
  43   1.0000      -0.588791       -16.0218
  44   1.0000      -0.581306       -15.8181
  45   1.0000      -0.578907       -15.7529
  46   1.0000      -0.571582       -15.5535
  47   1.0000      -0.565289       -15.3823
  48   1.0000      -0.562148       -15.2968
  49   1.0000      -0.560813       -15.2605
  50   1.0000      -0.554396       -15.0859
  51   1.0000      -0.547463       -14.8972
  52   1.0000      -0.537651       -14.6302
  53   1.0000      -0.526796       -14.3348
  54   1.0000      -0.516256       -14.0480
  55   1.0000      -0.511780       -13.9262
  56   1.0000      -0.494084       -13.4447
  57   1.0000      -0.425256       -11.5718
  58   1.0000      -0.423715       -11.5299
  59   1.0000      -0.413806       -11.2602
  60   1.0000      -0.407169       -11.0796
  61   1.0000      -0.401211       -10.9175
  62   1.0000      -0.396592       -10.7918
  63   1.0000      -0.391221       -10.6457
  64   1.0000      -0.384691       -10.4680
  65   1.0000      -0.348010        -9.4698
  66   1.0000      -0.339229        -9.2309
  67   0.0000       0.007361         0.2003
  68   0.0000       0.028514         0.7759
  69   0.0000       0.031507         0.8574
  70   0.0000       0.033513         0.9119
  71   0.0000       0.053431         1.4539

                 SPIN DOWN ORBITALS
  NO   OCC          E(Eh)            E(eV)
   0   1.0000     -19.334641      -526.1223
   1   1.0000     -19.330518      -526.0101
   2   1.0000     -19.325454      -525.8723
   3   1.0000     -19.317968      -525.6686
   4   1.0000     -14.568120      -396.4187
   5   1.0000     -14.565492      -396.3472
   6   1.0000     -14.562845      -396.2752
   7   1.0000     -14.558133      -396.1470
   8   1.0000     -10.511212      -286.0246
   9   1.0000     -10.504418      -285.8397
  10   1.0000     -10.486433      -285.3503
  11   1.0000     -10.484108      -285.2871
  12   1.0000     -10.452984      -284.4402
  13   1.0000     -10.449881      -284.3557
  14   1.0000     -10.412107      -283.3278
  15   1.0000     -10.411020      -283.2983
  16   1.0000     -10.379123      -282.4303
  17   1.0000     -10.378617      -282.4165
  18   1.0000      -1.224007       -33.3069
  19   1.0000      -1.217917       -33.1412
  20   1.0000      -1.197344       -32.5814
  21   1.0000      -1.193494       -32.4766
  22   1.0000      -1.120323       -30.4855
  23   1.0000      -1.098345       -29.8875
  24   1.0000      -1.068990       -29.0887
  25   1.0000      -1.058364       -28.7995
  26   1.0000      -0.972372       -26.4596
  27   1.0000      -0.943394       -25.6711
  28   1.0000      -0.894530       -24.3414
  29   1.0000      -0.839558       -22.8455
  30   1.0000      -0.824314       -22.4307
  31   1.0000      -0.797437       -21.6994
  32   1.0000      -0.787222       -21.4214
  33   1.0000      -0.783946       -21.3323
  34   1.0000      -0.700865       -19.0715
  35   1.0000      -0.695226       -18.9181
  36   1.0000      -0.685016       -18.6402
  37   1.0000      -0.674475       -18.3534
  38   1.0000      -0.641700       -17.4616
  39   1.0000      -0.633837       -17.2476
  40   1.0000      -0.625227       -17.0133
  41   1.0000      -0.602516       -16.3953
  42   1.0000      -0.594264       -16.1708
  43   1.0000      -0.583028       -15.8650
  44   1.0000      -0.573876       -15.6160
  45   1.0000      -0.570892       -15.5348
  46   1.0000      -0.566218       -15.4076
  47   1.0000      -0.562079       -15.2949
  48   1.0000      -0.557199       -15.1622
  49   1.0000      -0.552346       -15.0301
  50   1.0000      -0.543650       -14.7935
  51   1.0000      -0.539083       -14.6692
  52   1.0000      -0.529592       -14.4109
  53   1.0000      -0.517153       -14.0725
  54   1.0000      -0.509772       -13.8716
  55   1.0000      -0.504404       -13.7255
  56   1.0000      -0.488879       -13.3031
  57   1.0000      -0.422336       -11.4923
  58   1.0000      -0.419191       -11.4068
  59   1.0000      -0.406286       -11.0556
  60   1.0000      -0.395373       -10.7586
  61   1.0000      -0.393540       -10.7088
  62   1.0000      -0.391904       -10.6643
  63   1.0000      -0.387065       -10.5326
  64   1.0000      -0.380560       -10.3556
  65   0.0000      -0.064129        -1.7450
  66   0.0000      -0.051812        -1.4099
  67   0.0000       0.007084         0.1928
  68   0.0000       0.028178         0.7668
  69   0.0000       0.030980         0.8430

----------------------------------------------------------------------------------------------------
          SPIN FLIP ABSORPTION SPECTRUM VIA TRANSITION ELECTRIC DIPOLE MOMENTS
----------------------------------------------------------------------------------------------------
     Transition      Energy     Energy  Wavelength fosc(D2)      D2        DX        DY        DZ
                      (eV)      (cm-1)    (nm)                 (au**2)    (au)      (au)      (au)
----------------------------------------------------------------------------------------------------
  1-3A  ->  2-3A    0.055776     449.9  22228.9   0.000000241   0.00018  -0.01162  -0.00600  -0.00230

Dispersion correction             ... done (  0.1 sec)

MULLIKEN ATOMIC CHARGES AND SPIN DENSITIES
------------------------------------------
   0 O :   -0.648486    0.141730
   1 O :   -0.654280   -0.149630
   2 O :   -0.657851    0.001113
   3 O :   -0.643270   -0.006010
   4 N :   -0.140501    0.007275
   5 N :   -0.303392   -0.026846
   6 N :   -0.049943    0.027581
   7 N :    0.026990   -0.018321
   8 C :    0.072768    0.423902
   9 C :    1.158471    0.156082
  10 C :    0.364474    0.022542
  11 C :    0.292644   -0.293372
  12 C :   -1.680496   -0.003662
  13 C :   -1.418452   -0.038820
  14 C :    0.733456    0.145378
  15 C :   -0.285000   -0.517665
  16 C :    0.380931   -0.004829
  17 C :    0.421582    0.018467
  18 H :    0.480715    0.045945
  19 H :    0.617092    0.024408
  20 H :    0.332920    0.013082
  21 H :    0.227206    0.036313
  22 H :    0.325925    0.007279
  23 H :    0.349747    0.001414
  24 H :    0.217792    0.027511
  25 H :    0.330482   -0.025235
  26 H :    0.005107   -0.018097
  27 H :    0.050180    0.001414
  28 H :    0.047460   -0.002824
  29 H :    0.045729    0.003874
Sum of atomic charges       :    0.0000000

LOEWDIN ATOMIC CHARGES AND SPIN DENSITIES
-----------------------------------------
   0 O :    0.091086    0.126033
   1 O :    0.090071   -0.137586
   2 O :    0.094325    0.000777
   3 O :    0.088500   -0.006328
   4 N :    0.285878   -0.001093
   5 N :    0.278254   -0.015534
   6 N :    0.325088    0.024374
   7 N :    0.320253   -0.013986
   8 C :   -0.004042    0.492293
   9 C :    0.034361   -0.488001
  10 C :   -0.114132    0.046722
  11 C :   -0.111298   -0.036960
  12 C :    0.182657    0.077591
  13 C :    0.186446   -0.082950
  14 C :   -0.395768    0.079831
  15 C :   -0.416392   -0.084698
  16 C :   -0.470418    0.000438
  17 C :   -0.502552   -0.001667
  18 H :    0.072423    0.023903
  19 H :    0.040989   -0.000810
  20 H :    0.001236    0.003661
  21 H :   -0.008308    0.027269
  22 H :    0.006715    0.010473
  23 H :    0.023839   -0.024830
  24 H :   -0.014182   -0.019460
  25 H :    0.003232    0.001138
  26 H :   -0.039874   -0.000328
  27 H :   -0.027737   -0.001221
  28 H :   -0.010894    0.002111
  29 H :   -0.009755   -0.001163

  Mayer bond orders larger than 0.100000
B(  0-O ,  8-C ) :   0.1139 B(  0-O , 14-C ) :   1.3133 B(  1-O , 15-C ) :   1.3921
B(  2-O , 16-C ) :   1.5683 B(  3-O , 17-C ) :   1.5950 B(  4-N , 10-C ) :   0.5246
B(  4-N , 11-C ) :   0.1316 B(  4-N , 16-C ) :   1.1462 B(  4-N , 26-H ) :   1.1024
B(  5-N ,  9-C ) :   0.1543 B(  5-N , 10-C ) :   0.1701 B(  5-N , 17-C ) :   1.1500
B(  5-N , 27-H ) :   1.1050 B(  6-N , 14-C ) :   0.9954 B(  6-N , 16-C ) :   0.9250
B(  6-N , 28-H ) :   1.1198 B(  7-N , 15-C ) :   1.0363 B(  7-N , 17-C ) :   0.9459
B(  7-N , 29-H ) :   1.0872 B(  8-C ,  9-C ) :   0.1253 B(  8-C , 10-C ) :   0.3230
B(  8-C , 12-C ) :   0.3994 B(  8-C , 14-C ) :   0.6551 B(  8-C , 22-H ) :  -0.1607
B(  9-C , 10-C ) :   0.1202 B(  9-C , 11-C ) :   0.1670 B(  9-C , 13-C ) :   0.4266
B(  9-C , 15-C ) :   0.2545 B(  9-C , 19-H ) :  -0.1105 B( 10-C , 11-C ) :   0.6320
B( 10-C , 12-C ) :  -0.3295 B( 10-C , 14-C ) :   0.2752 B( 10-C , 18-H ) :   0.7685
B( 11-C , 13-C ) :  -0.1984 B( 11-C , 17-C ) :  -0.2145 B( 11-C , 19-H ) :   0.7513
B( 12-C , 14-C ) :  -0.4096 B( 12-C , 20-H ) :   1.0279 B( 12-C , 21-H ) :   0.8961
B( 12-C , 22-H ) :   1.0381 B( 13-C , 23-H ) :   0.8784 B( 13-C , 24-H ) :   0.9622
B( 13-C , 25-H ) :   0.9899

Dispersion correction           -0.056578479
FINAL SINGLE POINT ENERGY      -908.800690313687

DIPOLE MOMENT
-------------

Method             : TDA/CIS
Type of density    : Electron Density
Level              : Relaxed density
State              :   2
Multiplicity       :   3
Irrep              :   0
Energy             :     0.0000000000000000 Eh
Relativity type    :
Basis              : AO
                                X                 Y                 Z
Electronic contribution:     -1.979176045     -10.174568517      -5.937484442
Nuclear contribution   :      1.982610529      11.784198783       8.190108624
                        -----------------------------------------
Total Dipole Moment    :      0.003434484       1.609630266       2.252624182
                        -----------------------------------------
Magnitude (a.u.)       :      2.768616458
Magnitude (Debye)      :      7.037263777

Rotational constants in cm-1:             0.020470             0.011407             0.009499
Rotational constants in MHz :           613.680650           341.961140           284.758535

                             ****ORCA TERMINATED NORMALLY****
TOTAL RUN TIME: 0 days 0 hours 5 minutes 21 seconds 81 msec
