                         Program Version 6.0.0  -   RELEASE  -
|  1> ! opt def2-TZVPPD wB97M-D3BJ
|  2> %pal nprocs 8 end%pal nprocs 32 end
|  3> %geom Constraints
|  4> {B 9 8 3.4 C}
|  5> {A 8 9 11 70.57142857142857 C}
|  6>  end
|  7>  end
|  8> *xyz 0 1
|  9> O   2.98579685529314 0.88758230159078 -0.86184571092411
| 10> O   -0.03983205397054 0.68929041702508 -2.10362336723772
| 11> O   0.93431434349854 -3.13274393337945 -0.68767288184107
| 12> O   -3.75829998830163 -0.84727300865116 -0.0472717177755
| 13> N   0.21184538946282 -1.54604804365365 0.7617588924445
| 14> N   -2.13631993928911 0.03188773433438 1.27350571071531
| 15> N   2.02598672506387 -1.14318467211666 -0.64531219127023
| 16> N   -1.91814233924584 0.03137116037665 -1.04498946748291
| 17> C   1.18097737274226 0.71693507080484 0.70173889017321
| 18> C   -0.20686880480777 1.27024627933494 0.21345042231937
| 19> C   0.41441080275909 -0.34173258966541 1.52336266615173
| 20> C   -0.82922175114212 0.58960593673968 1.44434972027296
| 21> C   1.92822011286806 1.69488653817281 1.5963734975385
| 22> C   -0.37809776891576 2.77134929626422 0.04819649358288
| 23> C   2.1403947470937 0.1972384729179 -0.35038567829864
| 24> C   -0.67361678962426 0.6214190571346 -1.0793014500539
| 25> C   1.04142578622994 -2.02697492875068 -0.21027082435993
| 26> C   -2.68467002550422 -0.30396816036989 0.07167054343891
| 27> H   0.80817443950001 -0.54572267081061 2.51895215321335
| 28> H   -0.83785272399001 1.27240685039143 2.28901317073582
| 29> H   2.31167340578204 2.52284411740894 1.00913016264629
| 30> H   1.28982602448342 2.08257620823614 2.38710022492991
| 31> H   2.77390820759972 1.19140411795486 2.06045858523949
| 32> H   -1.41857211141493 3.00964947214868 -0.16882755561625
| 33> H   -0.09065531563179 3.29799318042223 0.95389844358819
| 34> H   0.23426221611057 3.12492645074476 -0.77764887675592
| 35> H   -0.46772570547622 -2.21560145172536 1.0787081584806
| 36> H   -2.71769301149571 -0.17090724573546 2.06627440900372
| 37> H   2.60065167263658 -1.49057255715425 -1.3966820077142
| 38> H   -2.27169977231386 -0.32388339999036 -1.91951041514436
| 39> *
| 40>
| 41>                          ****END OF INPUT****
 Total Charge           Charge          ....    0
 Multiplicity           Mult            ....    1
 Number of Electrons    NEL             ....  132
Dispersion correction           -0.051514815
FINAL SINGLE POINT ENERGY      -908.590523314277
Dispersion correction             ... done (  0.0 sec)
Dispersion correction           -0.052332427
FINAL SINGLE POINT ENERGY      -908.649188549930
Dispersion correction             ... done (  0.0 sec)
Dispersion correction           -0.053142409
FINAL SINGLE POINT ENERGY      -908.701238348760
Dispersion correction             ... done (  0.0 sec)
FINAL SINGLE POINT ENERGY      -908.763615515196
FINAL SINGLE POINT ENERGY      -908.811231666824
FINAL SINGLE POINT ENERGY      -908.844299509228
FINAL SINGLE POINT ENERGY      -908.874431480298
FINAL SINGLE POINT ENERGY      -908.896129731119
FINAL SINGLE POINT ENERGY      -908.909915781080
FINAL SINGLE POINT ENERGY      -908.916565613180
FINAL SINGLE POINT ENERGY      -908.934574627043
FINAL SINGLE POINT ENERGY      -908.934734481286
FINAL SINGLE POINT ENERGY      -908.934829005221
FINAL SINGLE POINT ENERGY      -908.934926586746
FINAL SINGLE POINT ENERGY      -908.934971389658
FINAL SINGLE POINT ENERGY      -908.934988945352
FINAL SINGLE POINT ENERGY      -908.934994883577
Dispersion correction             ... done (  0.0 sec)
Dispersion correction           -0.059667469
FINAL SINGLE POINT ENERGY      -908.934997386185
Dispersion correction             ... done (  0.0 sec)
Dispersion correction           -0.059668617
FINAL SINGLE POINT ENERGY      -908.934998619021
Dispersion correction             ... done (  0.0 sec)
                    ***********************HURRAY********************

CARTESIAN COORDINATES (ANGSTROEM)
---------------------------------
  O      2.510924    1.242966   -0.362871
  O     -0.784601    0.836889   -2.397831
  O      0.573438   -2.688353   -1.561658
  O     -2.477553   -1.569863    1.066991
  N      0.598081   -2.110830    0.640483
  N     -1.853691    0.588496    1.430444
  N      1.621197   -0.763940   -0.923199
  N     -1.684866   -0.319606   -0.672270
  C      1.436626    0.004816    1.351583
  C     -0.853714    1.914191   -0.282011
  C      0.817188   -1.154596    1.603763
  C     -1.243175    1.739235    0.985441
  C      1.712363    1.048665    2.383642
  C     -0.184026    3.149266   -0.789673
  C      1.914266    0.246986   -0.010294
  C     -1.086498    0.819034   -1.225942
  C      0.906697   -1.919162   -0.688931
  C     -2.047008   -0.518699    0.638550
  H      0.441996   -1.405211    2.584534
  H     -1.108229    2.503423    1.735357
  H      1.357058    2.020321    2.045942
  H      1.232083    0.798788    3.327561
  H      2.782457    1.152337    2.554674
  H     -0.738519    3.566015   -1.627941
  H     -0.113697    3.898336   -0.004175
  H      0.819080    2.915767   -1.139852
  H     -0.026957   -2.876026    0.827285
  H     -2.107714    0.478240    2.394872
  H      1.832644   -0.570975   -1.890404
  H     -1.793249   -1.111508   -1.289471

 Multiplicity           Mult            ....    1
 Number of Electrons    NEL             ....  132
 Basis Dimension        Dim             ....  882

ORBITAL ENERGIES
----------------

  NO   OCC          E(Eh)            E(eV)
   0   2.0000     -19.329016      -525.9693
   1   2.0000     -19.323555      -525.8207
   2   2.0000     -19.321094      -525.7537
   3   2.0000     -19.319842      -525.7196
   4   2.0000     -14.585314      -396.8866
   5   2.0000     -14.575633      -396.6231
   6   2.0000     -14.571119      -396.5003
   7   2.0000     -14.564647      -396.3242
   8   2.0000     -10.515561      -286.1430
   9   2.0000     -10.506611      -285.8994
  10   2.0000     -10.478941      -285.1465
  11   2.0000     -10.476667      -285.0846
  12   2.0000     -10.431072      -283.8439
  13   2.0000     -10.429881      -283.8115
  14   2.0000     -10.379639      -282.4443
  15   2.0000     -10.379079      -282.4291
  16   2.0000     -10.362740      -281.9845
  17   2.0000     -10.348212      -281.5892
  18   2.0000      -1.228431       -33.4273
  19   2.0000      -1.219922       -33.1958
  20   2.0000      -1.194297       -32.4985
  21   2.0000      -1.190151       -32.3857
  22   2.0000      -1.124217       -30.5915
  23   2.0000      -1.117260       -30.4022
  24   2.0000      -1.070653       -29.1339
  25   2.0000      -1.064733       -28.9729
  26   2.0000      -0.958123       -26.0719
  27   2.0000      -0.954695       -25.9786
  28   2.0000      -0.849891       -23.1267
  29   2.0000      -0.845190       -22.9988
  30   2.0000      -0.810739       -22.0613
  31   2.0000      -0.807748       -21.9799
  32   2.0000      -0.795139       -21.6368
  33   2.0000      -0.788613       -21.4592
  34   2.0000      -0.695739       -18.9320
  35   2.0000      -0.692905       -18.8549
  36   2.0000      -0.691438       -18.8150
  37   2.0000      -0.688297       -18.7295
  38   2.0000      -0.642786       -17.4911
  39   2.0000      -0.639221       -17.3941
  40   2.0000      -0.635103       -17.2820
  41   2.0000      -0.597750       -16.2656
  42   2.0000      -0.595853       -16.2140
  43   2.0000      -0.592147       -16.1131
  44   2.0000      -0.568758       -15.4767
  45   2.0000      -0.563108       -15.3230
  46   2.0000      -0.560580       -15.2542
  47   2.0000      -0.551290       -15.0014
  48   2.0000      -0.549820       -14.9614
  49   2.0000      -0.547324       -14.8934
  50   2.0000      -0.520569       -14.1654
  51   2.0000      -0.516447       -14.0532
  52   2.0000      -0.514616       -14.0034
  53   2.0000      -0.513316       -13.9680
  54   2.0000      -0.506163       -13.7734
  55   2.0000      -0.496050       -13.4982
  56   2.0000      -0.479057       -13.0358
  57   2.0000      -0.471635       -12.8338
  58   2.0000      -0.421053       -11.4574
  59   2.0000      -0.412929       -11.2364
  60   2.0000      -0.405256       -11.0276
  61   2.0000      -0.396992       -10.8027
  62   2.0000      -0.387563       -10.5461
  63   2.0000      -0.384515       -10.4632
  64   2.0000      -0.347353        -9.4519
  65   2.0000      -0.343935        -9.3590
  66   0.0000       0.010643         0.2896
  67   0.0000       0.020255         0.5512
  68   0.0000       0.023686         0.6445
  69   0.0000       0.033615         0.9147
  70   0.0000       0.040575         1.1041

MULLIKEN ATOMIC CHARGES
-----------------------
   0 O :   -0.680565
   1 O :   -0.661581
   2 O :   -0.644519
   3 O :   -0.670980
   4 N :   -0.043996
   5 N :    0.018453
   6 N :    0.053020
   7 N :    0.053170
   8 C :    0.822604
   9 C :    0.841326
  10 C :    0.099405
  11 C :   -0.230873
  12 C :   -1.485420
  13 C :   -1.373533
  14 C :    0.307444
  15 C :    0.467296
  16 C :    0.347223
  17 C :    0.430840
  18 H :    0.154957
  19 H :    0.176301
  20 H :    0.244468
  21 H :    0.337306
  22 H :    0.370417
  23 H :    0.354058
  24 H :    0.329205
  25 H :    0.225022
  26 H :    0.058621
  27 H :    0.026373
  28 H :    0.040245
  29 H :    0.033711
Sum of atomic charges:   -0.0000000

LOEWDIN ATOMIC CHARGES
----------------------
   0 O :    0.087984
   1 O :    0.102811
   2 O :    0.087906
   3 O :    0.071628
   4 N :    0.279327
   5 N :    0.282800
   6 N :    0.344896
   7 N :    0.346520
   8 C :   -0.145047
   9 C :   -0.133954
  10 C :    0.044255
  11 C :    0.040923
  12 C :    0.174344
  13 C :    0.184877
  14 C :   -0.396182
  15 C :   -0.392621
  16 C :   -0.485144
  17 C :   -0.490852
  18 H :    0.041334
  19 H :    0.036701
  20 H :   -0.015043
  21 H :   -0.004997
  22 H :    0.003106
  23 H :    0.001177
  24 H :   -0.004428
  25 H :   -0.014013
  26 H :   -0.020066
  27 H :   -0.018990
  28 H :   -0.002385
  29 H :   -0.006867

  Mayer bond orders larger than 0.100000
B(  0-O , 14-C ) :   1.4571 B(  1-O , 15-C ) :   1.4690 B(  2-O , 16-C ) :   1.5642
B(  3-O , 17-C ) :   1.5318 B(  4-N , 10-C ) :   0.8338 B(  4-N , 16-C ) :   1.0220
B(  4-N , 26-H ) :   1.1106 B(  5-N , 11-C ) :   0.9417 B(  5-N , 17-C ) :   1.0270
B(  5-N , 27-H ) :   1.1240 B(  6-N , 14-C ) :   1.0208 B(  6-N , 16-C ) :   0.9053
B(  6-N , 28-H ) :   1.1067 B(  7-N , 15-C ) :   0.9582 B(  7-N , 16-C ) :   0.1123
B(  7-N , 17-C ) :   0.9537 B(  7-N , 29-H ) :   1.1164 B(  8-C , 10-C ) :   1.1223
B(  8-C , 12-C ) :   0.3251 B(  8-C , 14-C ) :   0.7420 B(  8-C , 21-H ) :  -0.1007
B(  9-C , 11-C ) :   1.2232 B(  9-C , 13-C ) :   0.3103 B(  9-C , 15-C ) :   0.7309
B(  9-C , 19-H ) :  -0.1038 B(  9-C , 24-H ) :  -0.1049 B( 10-C , 12-C ) :  -0.1732
B( 10-C , 18-H ) :   1.1305 B( 11-C , 13-C ) :  -0.1536 B( 11-C , 15-C ) :  -0.1139
B( 11-C , 19-H ) :   1.1362 B( 12-C , 20-H ) :   1.0015 B( 12-C , 21-H ) :   1.0143
B( 12-C , 22-H ) :   0.9033 B( 13-C , 23-H ) :   0.9101 B( 13-C , 24-H ) :   1.0359
B( 13-C , 25-H ) :   0.9835

Dispersion correction           -0.059657299
FINAL SINGLE POINT ENERGY      -908.934999320434

DIPOLE MOMENT
-------------

Method             : SCF
Type of density    : Electron Density
Multiplicity       :   1
Irrep              :   0
Energy             :  -908.8753420216100949 Eh
Relativity type    :
Basis              : AO
                                X                 Y                 Z
Electronic contribution:     -2.898462452      -9.645129857      -5.848080635
Nuclear contribution   :      2.508368337      10.434648562       8.353516192
                        -----------------------------------------
Total Dipole Moment    :     -0.390094115       0.789518705       2.505435558
                        -----------------------------------------
Magnitude (a.u.)       :      2.655695867
Magnitude (Debye)      :      6.750242444

Rotational constants in cm-1:             0.016937             0.016160             0.014083
Rotational constants in MHz :           507.769516           484.464440           422.209944

                             ****ORCA TERMINATED NORMALLY****
TOTAL RUN TIME: 0 days 1 hours 41 minutes 56 seconds 727 msec
