                         Program Version 6.0.0  -   RELEASE  -
|  1> ! Engrad def2-TZVPPD wB97M-D3BJ
|  2> %pal nprocs 8 end%pal nprocs 32 end
|  3>  %tddft nroots 2 Iroot 2
|  4> sf true
|  5> end
|  6> *xyz 0 3
|  7> O   3.78617461064145 0.45443836991413 -0.02369709602385
|  8> O   -1.28082707603603 1.15313409827584 -2.49197066288727
|  9> O   0.95458427644696 -2.88291742582559 -1.20840329450006
| 10> O   -3.58177028751648 -1.23467497969299 0.55954511673143
| 11> N   0.26260956879924 -1.43962506513318 0.39241040868706
| 12> N   -1.99985582810407 0.20743659504474 1.33368872914499
| 13> N   2.35928403199248 -1.21345557893194 -0.5852669394997
| 14> N   -2.19882816059947 -0.2426991045381 -0.94799713994256
| 15> C   1.71756336144475 0.38329334272223 1.09918145430072
| 16> C   -0.73913877294634 1.49953427274254 -0.21178031395259
| 17> C   0.42363291642844 -0.32621549150686 1.29290379339876
| 18> C   -0.6469021092535 0.73566029160591 1.12915876948822
| 19> C   2.08632782431611 1.51090212883463 1.97373228804931
| 20> C   -0.6138185084894 2.96399572326075 -0.2219104193295
| 21> C   2.70940599145168 -0.09008606653902 0.1390349805658
| 22> C   -1.3805669617883 0.81441067695997 -1.3319278989045
| 23> C   1.16409254522917 -1.91509283023291 -0.51287961127615
| 24> C   -2.65944670053434 -0.48153455893747 0.34374228418398
| 25> H   0.36690500651138 -0.69657791223717 2.33029277783056
| 26> H   -0.48394118875657 1.48052762468449 1.90531342004039
| 27> H   3.16743868735585 1.60618391224534 2.01876155173052
| 28> H   1.70813582856736 2.4665687891663 1.58251965389746
| 29> H   1.67028588570296 1.39444331903701 2.97547235626004
| 30> H   -1.41259520873783 3.42200947643662 0.37566966795025
| 31> H   0.32613032966524 3.28397241981207 0.24171046948377
| 32> H   -0.67772319709778 3.3479095521084 -1.23535425522292
| 33> H   -0.55378686604725 -2.01792521742305 0.48296973682294
| 34> H   -2.33705608691464 -0.00869883567627 2.25651751673687
| 35> H   3.0147159825101 -1.53732453087662 -1.27721739075544
| 36> H   -2.69842989424119 -0.72259299529989 -1.67961995300859
| 37> *
| 38>
| 39>                          ****END OF INPUT****

CARTESIAN COORDINATES (ANGSTROEM)
---------------------------------
  O      3.786175    0.454438   -0.023697
  O     -1.280827    1.153134   -2.491971
  O      0.954584   -2.882917   -1.208403
  O     -3.581770   -1.234675    0.559545
  N      0.262610   -1.439625    0.392410
  N     -1.999856    0.207437    1.333689
  N      2.359284   -1.213456   -0.585267
  N     -2.198828   -0.242699   -0.947997
  C      1.717563    0.383293    1.099181
  C     -0.739139    1.499534   -0.211780
  C      0.423633   -0.326215    1.292904
  C     -0.646902    0.735660    1.129159
  C      2.086328    1.510902    1.973732
  C     -0.613819    2.963996   -0.221910
  C      2.709406   -0.090086    0.139035
  C     -1.380567    0.814411   -1.331928
  C      1.164093   -1.915093   -0.512880
  C     -2.659447   -0.481535    0.343742
  H      0.366905   -0.696578    2.330293
  H     -0.483941    1.480528    1.905313
  H      3.167439    1.606184    2.018762
  H      1.708136    2.466569    1.582520
  H      1.670286    1.394443    2.975472
  H     -1.412595    3.422009    0.375670
  H      0.326130    3.283972    0.241710
  H     -0.677723    3.347910   -1.235354
  H     -0.553787   -2.017925    0.482970
  H     -2.337056   -0.008699    2.256518
  H      3.014716   -1.537325   -1.277217
  H     -2.698430   -0.722593   -1.679620

 Total Charge           Charge          ....    0
 Multiplicity           Mult            ....    3
 Number of Electrons    NEL             ....  132
 Basis Dimension        Dim             ....  882

ORBITAL ENERGIES
----------------
                 SPIN UP ORBITALS
  NO   OCC          E(Eh)            E(eV)
   0   1.0000     -19.336824      -526.1817
   1   1.0000     -19.332521      -526.0646
   2   1.0000     -19.325541      -525.8747
   3   1.0000     -19.315480      -525.6009
   4   1.0000     -14.565841      -396.3567
   5   1.0000     -14.563555      -396.2945
   6   1.0000     -14.562550      -396.2671
   7   1.0000     -14.559133      -396.1742
   8   1.0000     -10.509445      -285.9765
   9   1.0000     -10.504175      -285.8331
  10   1.0000     -10.483583      -285.2728
  11   1.0000     -10.482104      -285.2325
  12   1.0000     -10.447452      -284.2896
  13   1.0000     -10.446064      -284.2519
  14   1.0000     -10.420346      -283.5520
  15   1.0000     -10.420239      -283.5491
  16   1.0000     -10.378447      -282.4119
  17   1.0000     -10.376735      -282.3653
  18   1.0000      -1.224214       -33.3125
  19   1.0000      -1.218279       -33.1511
  20   1.0000      -1.201113       -32.6839
  21   1.0000      -1.196179       -32.5497
  22   1.0000      -1.121809       -30.5260
  23   1.0000      -1.099162       -29.9097
  24   1.0000      -1.068841       -29.0847
  25   1.0000      -1.059371       -28.8269
  26   1.0000      -0.988862       -26.9083
  27   1.0000      -0.957252       -26.0481
  28   1.0000      -0.897937       -24.4341
  29   1.0000      -0.843609       -22.9558
  30   1.0000      -0.830862       -22.6089
  31   1.0000      -0.802888       -21.8477
  32   1.0000      -0.786985       -21.4149
  33   1.0000      -0.785820       -21.3832
  34   1.0000      -0.705863       -19.2075
  35   1.0000      -0.699075       -19.0228
  36   1.0000      -0.693899       -18.8820
  37   1.0000      -0.679093       -18.4791
  38   1.0000      -0.655002       -17.8235
  39   1.0000      -0.640374       -17.4255
  40   1.0000      -0.627413       -17.0728
  41   1.0000      -0.604762       -16.4564
  42   1.0000      -0.598175       -16.2772
  43   1.0000      -0.589115       -16.0306
  44   1.0000      -0.580043       -15.7838
  45   1.0000      -0.576596       -15.6900
  46   1.0000      -0.568642       -15.4735
  47   1.0000      -0.563390       -15.3306
  48   1.0000      -0.560099       -15.2411
  49   1.0000      -0.557930       -15.1820
  50   1.0000      -0.552275       -15.0282
  51   1.0000      -0.548692       -14.9307
  52   1.0000      -0.532913       -14.5013
  53   1.0000      -0.527773       -14.3614
  54   1.0000      -0.516117       -14.0443
  55   1.0000      -0.511123       -13.9084
  56   1.0000      -0.494042       -13.4436
  57   1.0000      -0.423886       -11.5345
  58   1.0000      -0.422893       -11.5075
  59   1.0000      -0.412945       -11.2368
  60   1.0000      -0.404852       -11.0166
  61   1.0000      -0.401191       -10.9170
  62   1.0000      -0.394341       -10.7306
  63   1.0000      -0.389996       -10.6123
  64   1.0000      -0.383086       -10.4243
  65   1.0000      -0.348008        -9.4698
  66   1.0000      -0.333594        -9.0776
  67   0.0000       0.007273         0.1979
  68   0.0000       0.027825         0.7572
  69   0.0000       0.032207         0.8764
  70   0.0000       0.034428         0.9368
  71   0.0000       0.054192         1.4746

                 SPIN DOWN ORBITALS
  NO   OCC          E(Eh)            E(eV)
   0   1.0000     -19.333022      -526.0783
   1   1.0000     -19.328568      -525.9571
   2   1.0000     -19.325281      -525.8676
   3   1.0000     -19.315464      -525.6005
   4   1.0000     -14.565015      -396.3342
   5   1.0000     -14.563304      -396.2877
   6   1.0000     -14.561802      -396.2468
   7   1.0000     -14.559150      -396.1746
   8   1.0000     -10.509457      -285.9769
   9   1.0000     -10.504222      -285.8344
  10   1.0000     -10.484604      -285.3006
  11   1.0000     -10.483091      -285.2594
  12   1.0000     -10.447035      -284.2783
  13   1.0000     -10.446340      -284.2594
  14   1.0000     -10.408778      -283.2372
  15   1.0000     -10.408223      -283.2222
  16   1.0000     -10.379070      -282.4289
  17   1.0000     -10.377328      -282.3814
  18   1.0000      -1.222622       -33.2692
  19   1.0000      -1.216482       -33.1022
  20   1.0000      -1.196473       -32.5577
  21   1.0000      -1.191916       -32.4337
  22   1.0000      -1.119188       -30.4547
  23   1.0000      -1.097070       -29.8528
  24   1.0000      -1.067034       -29.0355
  25   1.0000      -1.057868       -28.7861
  26   1.0000      -0.976673       -26.5766
  27   1.0000      -0.940032       -25.5796
  28   1.0000      -0.892169       -24.2772
  29   1.0000      -0.838130       -22.8067
  30   1.0000      -0.821901       -22.3651
  31   1.0000      -0.798247       -21.7214
  32   1.0000      -0.785510       -21.3748
  33   1.0000      -0.784043       -21.3349
  34   1.0000      -0.701999       -19.1024
  35   1.0000      -0.691398       -18.8139
  36   1.0000      -0.687207       -18.6998
  37   1.0000      -0.670821       -18.2540
  38   1.0000      -0.644354       -17.5338
  39   1.0000      -0.636118       -17.3097
  40   1.0000      -0.623851       -16.9758
  41   1.0000      -0.599977       -16.3262
  42   1.0000      -0.591179       -16.0868
  43   1.0000      -0.583672       -15.8825
  44   1.0000      -0.573581       -15.6079
  45   1.0000      -0.567510       -15.4427
  46   1.0000      -0.563505       -15.3338
  47   1.0000      -0.561058       -15.2672
  48   1.0000      -0.553821       -15.0702
  49   1.0000      -0.547211       -14.8904
  50   1.0000      -0.545818       -14.8525
  51   1.0000      -0.539125       -14.6703
  52   1.0000      -0.527832       -14.3631
  53   1.0000      -0.517438       -14.0802
  54   1.0000      -0.510244       -13.8844
  55   1.0000      -0.504056       -13.7161
  56   1.0000      -0.488005       -13.2793
  57   1.0000      -0.420773       -11.4498
  58   1.0000      -0.418224       -11.3805
  59   1.0000      -0.407066       -11.0768
  60   1.0000      -0.393855       -10.7173
  61   1.0000      -0.391156       -10.6439
  62   1.0000      -0.389871       -10.6089
  63   1.0000      -0.386256       -10.5106
  64   1.0000      -0.376784       -10.2528
  65   0.0000      -0.065146        -1.7727
  66   0.0000      -0.044459        -1.2098
  67   0.0000       0.006666         0.1814
  68   0.0000       0.027594         0.7509
  69   0.0000       0.031893         0.8679

----------------------------------------------------------------------------------------------------
          SPIN FLIP ABSORPTION SPECTRUM VIA TRANSITION ELECTRIC DIPOLE MOMENTS
----------------------------------------------------------------------------------------------------
     Transition      Energy     Energy  Wavelength fosc(D2)      D2        DX        DY        DZ
                      (eV)      (cm-1)    (nm)                 (au**2)    (au)      (au)      (au)
----------------------------------------------------------------------------------------------------
  1-3A  ->  2-3A    0.105172     848.3  11788.7   0.000001980   0.00077   0.00005  -0.02610   0.00934

Dispersion correction             ... done (  0.1 sec)

MULLIKEN ATOMIC CHARGES AND SPIN DENSITIES
------------------------------------------
   0 O :   -0.669289    0.106318
   1 O :   -0.652348   -0.101647
   2 O :   -0.663237    0.000881
   3 O :   -0.640854   -0.004371
   4 N :   -0.159630   -0.001567
   5 N :   -0.303787   -0.013417
   6 N :   -0.049027    0.028122
   7 N :    0.062623   -0.006804
   8 C :    0.168623    0.384972
   9 C :    1.238666    0.357050
  10 C :    0.359751    0.039041
  11 C :   -0.034093   -0.481925
  12 C :   -1.535796    0.054101
  13 C :   -1.423858    0.019422
  14 C :    0.599393   -0.009013
  15 C :   -0.328185   -0.453697
  16 C :    0.513614   -0.003669
  17 C :    0.370699    0.026892
  18 H :    0.415453    0.024721
  19 H :    0.610984   -0.006076
  20 H :    0.359915    0.009009
  21 H :    0.240841    0.017325
  22 H :    0.346872    0.004209
  23 H :    0.374155    0.004362
  24 H :    0.271511    0.037005
  25 H :    0.354146   -0.027824
  26 H :    0.014784   -0.002631
  27 H :    0.092534   -0.000221
  28 H :    0.030862   -0.002722
  29 H :    0.034677    0.002155
Sum of atomic charges       :   -0.0000000

LOEWDIN ATOMIC CHARGES AND SPIN DENSITIES
-----------------------------------------
   0 O :    0.088217    0.093378
   1 O :    0.096259   -0.095548
   2 O :    0.090062    0.000170
   3 O :    0.087599   -0.004024
   4 N :    0.293324   -0.002556
   5 N :    0.286193   -0.016101
   6 N :    0.328732    0.018488
   7 N :    0.321715   -0.009225
   8 C :   -0.019165    0.370237
   9 C :    0.028925   -0.372733
  10 C :   -0.133411    0.039185
  11 C :   -0.122118   -0.018532
  12 C :    0.185380    0.055472
  13 C :    0.187928   -0.062896
  14 C :   -0.391508    0.057238
  15 C :   -0.416236   -0.061548
  16 C :   -0.473693   -0.000022
  17 C :   -0.497304   -0.001012
  18 H :    0.072276    0.014018
  19 H :    0.041306    0.000833
  20 H :    0.002033    0.003592
  21 H :   -0.003438    0.019369
  22 H :    0.007697    0.006375
  23 H :    0.023848   -0.021367
  24 H :   -0.009501   -0.011144
  25 H :    0.003933   -0.000221
  26 H :   -0.030541   -0.000286
  27 H :   -0.029619   -0.001825
  28 H :   -0.010338    0.001609
  29 H :   -0.008553   -0.000923

  Mayer bond orders larger than 0.100000
B(  0-O , 12-C ) :   0.1011 B(  0-O , 14-C ) :   1.2462 B(  1-O , 15-C ) :   1.4203
B(  2-O , 16-C ) :   1.5665 B(  3-O , 17-C ) :   1.5932 B(  4-N , 10-C ) :   0.6610
B(  4-N , 16-C ) :   1.0606 B(  4-N , 26-H ) :   1.1337 B(  5-N ,  9-C ) :   0.2062
B(  5-N , 10-C ) :   0.1565 B(  5-N , 17-C ) :   1.1990 B(  5-N , 27-H ) :   1.0494
B(  6-N , 14-C ) :   1.0186 B(  6-N , 16-C ) :   0.9194 B(  6-N , 28-H ) :   1.1269
B(  7-N , 15-C ) :   0.9847 B(  7-N , 17-C ) :   0.9797 B(  7-N , 29-H ) :   1.0984
B(  8-C , 10-C ) :   0.4390 B(  8-C , 11-C ) :   0.4272 B(  8-C , 12-C ) :   0.1408
B(  8-C , 14-C ) :   0.8061 B(  8-C , 18-H ) :  -0.1636 B(  8-C , 22-H ) :  -0.1403
B(  9-C , 10-C ) :   0.1226 B(  9-C , 11-C ) :   0.3100 B(  9-C , 13-C ) :   0.3770
B(  9-C , 15-C ) :   0.1353 B(  9-C , 25-H ) :  -0.1055 B( 10-C , 11-C ) :   0.5764
B( 10-C , 12-C ) :  -0.2292 B( 10-C , 18-H ) :   0.9794 B( 10-C , 19-H ) :  -0.1078
B( 11-C , 12-C ) :   0.1105 B( 11-C , 13-C ) :  -0.1464 B( 11-C , 15-C ) :   0.1292
B( 11-C , 17-C ) :  -0.2052 B( 11-C , 18-H ) :  -0.1027 B( 11-C , 19-H ) :   0.7388
B( 12-C , 14-C ) :  -0.1284 B( 12-C , 20-H ) :   0.9681 B( 12-C , 21-H ) :   0.9195
B( 12-C , 22-H ) :   1.0335 B( 13-C , 23-H ) :   0.8448 B( 13-C , 24-H ) :   1.0061
B( 13-C , 25-H ) :   0.9766

Dispersion correction           -0.057400041
FINAL SINGLE POINT ENERGY      -908.799193452148

DIPOLE MOMENT
-------------

Method             : TDA/CIS
Type of density    : Electron Density
Level              : Relaxed density
State              :   2
Multiplicity       :   3
Irrep              :   0
Energy             :     0.0000000000000000 Eh
Relativity type    :
Basis              : AO
                                X                 Y                 Z
Electronic contribution:     -1.913982505      -9.904904974      -6.581189513
Nuclear contribution   :      1.823248034      11.426041665       9.019549704
                        -----------------------------------------
Total Dipole Moment    :     -0.090734471       1.521136691       2.438360191
                        -----------------------------------------
Magnitude (a.u.)       :      2.875359108
Magnitude (Debye)      :      7.308582030

Rotational constants in cm-1:             0.020154             0.012426             0.010739
Rotational constants in MHz :           604.211095           372.515655           321.945515

                             ****ORCA TERMINATED NORMALLY****
TOTAL RUN TIME: 0 days 0 hours 5 minutes 30 seconds 230 msec
