                         Program Version 6.0.0  -   RELEASE  -
|  1> ! Engrad def2-TZVPPD wB97M-D3BJ
|  2> %pal nprocs 8 end%pal nprocs 32 end
|  3> %tddft Nroots 2 Iroot 1
|  4> sf true
|  5> end
|  6> *xyz 0 3
|  7> O   0.30931838 1.00706122 -0.00381168
|  8> C   0.63407328 -0.32883331 0.00192444
|  9> C   -0.76159895 -0.71561178 -0.0018642
| 10> H   1.20870348 -0.57268505 0.89628272
| 11> H   1.21978871 -0.60775965 -0.88668296
| 12> H   -1.31846462 -0.69552384 -0.9225756
| 13> H   -1.27949298 -0.71230337 0.93499743
| 14> *
| 15>
| 16>                          ****END OF INPUT****

CARTESIAN COORDINATES (ANGSTROEM)
---------------------------------
  O      0.309318    1.007061   -0.003812
  C      0.634073   -0.328833    0.001924
  C     -0.761599   -0.715612   -0.001864
  H      1.208703   -0.572685    0.896283
  H      1.219789   -0.607760   -0.886683
  H     -1.318465   -0.695524   -0.922576
  H     -1.279493   -0.712303    0.934997

 Total Charge           Charge          ....    0
 Multiplicity           Mult            ....    3
 Number of Electrons    NEL             ....   24
 Basis Dimension        Dim             ....  182

ORBITAL ENERGIES
----------------
                 SPIN UP ORBITALS
  NO   OCC          E(Eh)            E(eV)
   0   1.0000     -19.403356      -527.9922
   1   1.0000     -10.409188      -283.2484
   2   1.0000     -10.345819      -281.5241
   3   1.0000      -1.193041       -32.4643
   4   1.0000      -0.865627       -23.5549
   5   1.0000      -0.741431       -20.1754
   6   1.0000      -0.637252       -17.3405
   7   1.0000      -0.595204       -16.1963
   8   1.0000      -0.543293       -14.7837
   9   1.0000      -0.512376       -13.9424
  10   1.0000      -0.452599       -12.3158
  11   1.0000      -0.436674       -11.8825
  12   1.0000      -0.286335        -7.7916
  13   0.0000       0.041373         1.1258
  14   0.0000       0.063193         1.7196
  15   0.0000       0.074138         2.0174
  16   0.0000       0.086393         2.3509
  17   0.0000       0.117003         3.1838

                 SPIN DOWN ORBITALS
  NO   OCC          E(Eh)            E(eV)
   0   1.0000     -19.375266      -527.2278
   1   1.0000     -10.410346      -283.2799
   2   1.0000     -10.333117      -281.1784
   3   1.0000      -1.131983       -30.8028
   4   1.0000      -0.831328       -22.6216
   5   1.0000      -0.720184       -19.5972
   6   1.0000      -0.598743       -16.2926
   7   1.0000      -0.560086       -15.2407
   8   1.0000      -0.520311       -14.1584
   9   1.0000      -0.481019       -13.0892
  10   1.0000      -0.389775       -10.6063
  11   0.0000      -0.067042        -1.8243
  12   0.0000       0.024308         0.6615
  13   0.0000       0.040046         1.0897
  14   0.0000       0.063933         1.7397
  15   0.0000       0.073358         1.9962

----------------------------------------------------------------------------------------------------
          SPIN FLIP ABSORPTION SPECTRUM VIA TRANSITION ELECTRIC DIPOLE MOMENTS
----------------------------------------------------------------------------------------------------
     Transition      Energy     Energy  Wavelength fosc(D2)      D2        DX        DY        DZ
                      (eV)      (cm-1)    (nm)                 (au**2)    (au)      (au)      (au)
----------------------------------------------------------------------------------------------------
  1-3A  ->  2-3A    1.861859   15016.9   665.9   0.000482518   0.01058  -0.01146  -0.01107  -0.10161

Dispersion correction             ... done (  0.1 sec)

MULLIKEN ATOMIC CHARGES AND SPIN DENSITIES
------------------------------------------
   0 O :   -0.514431   -0.213679
   1 C :   -0.107816   -0.053733
   2 C :   -0.337583    0.146781
   3 H :    0.223817    0.032437
   4 H :    0.231170    0.032747
   5 H :    0.252304    0.026456
   6 H :    0.252539    0.028990
Sum of atomic charges       :   -0.0000000

LOEWDIN ATOMIC CHARGES AND SPIN DENSITIES
-----------------------------------------
   0 O :   -0.086674   -0.232628
   1 C :   -0.316130    0.002265
   2 C :    0.377158    0.182521
   3 H :    0.020826    0.005200
   4 H :    0.026635    0.004262
   5 H :   -0.008049    0.018831
   6 H :   -0.013766    0.019548

  Mayer bond orders larger than 0.100000
B(  0-O ,  1-C ) :   0.7104 B(  0-O ,  2-C ) :   0.8604 B(  1-C ,  2-C ) :   0.7720
B(  1-C ,  3-H ) :   1.0213 B(  1-C ,  4-H ) :   1.0154 B(  2-C ,  5-H ) :   0.9367
B(  2-C ,  6-H ) :   0.9357

Dispersion correction           -0.005660672
FINAL SINGLE POINT ENERGY      -153.799263235690

DIPOLE MOMENT
-------------

Method             : TDA/CIS
Type of density    : Electron Density
Level              : Relaxed density
State              :   1
Multiplicity       :   3
Irrep              :   0
Energy             :     0.0000000000000000 Eh
Relativity type    :
Basis              : AO
                                X                 Y                 Z
Electronic contribution:     -0.036337671       1.083977408      -0.011667977
Nuclear contribution   :     -0.432039462      -2.495305948       0.023858877
                        -----------------------------------------
Total Dipole Moment    :     -0.468377133      -1.411328540       0.012190900
                        -----------------------------------------
Magnitude (a.u.)       :      1.487068930
Magnitude (Debye)      :      3.779828833

Rotational constants in cm-1:             1.057251             0.474103             0.376126
Rotational constants in MHz :         31695.585999         14213.261051         11275.984031

                             ****ORCA TERMINATED NORMALLY****
TOTAL RUN TIME: 0 days 0 hours 0 minutes 17 seconds 615 msec
