                         Program Version 6.0.0  -   RELEASE  -
|  1> ! EnGrad wB97M-D3BJ def2-TZVPPD
|  2> %pal nprocs 8 end%pal nprocs 16 end
|  3> %tddft
|  4>  sf true
|  5>  nroots 2 Iroot 1 end
|  6> *xyz 0 3
|  7> O   0.24957858455108 0.95439863249065 -0.00164910583916
|  8> C   0.64609949573577 -0.32910963232872 -0.00034831754395
|  9> C   -0.73492963533643 -0.66146495982099 0.00040482525031
| 10> H   1.20359377430552 -0.64224239891495 0.88991237145897
| 11> H   1.20389715604918 -0.64369404636481 -0.88984919150883
| 12> H   -1.28353467146117 -0.69956831465946 -0.9268434051273
| 13> H   -1.28250470384394 -0.69671928040172 0.92837282330997
| 14> *
| 15>
| 16>                          ****END OF INPUT****

CARTESIAN COORDINATES (ANGSTROEM)
---------------------------------
  O      0.249579    0.954399   -0.001649
  C      0.646099   -0.329110   -0.000348
  C     -0.734930   -0.661465    0.000405
  H      1.203594   -0.642242    0.889912
  H      1.203897   -0.643694   -0.889849
  H     -1.283535   -0.699568   -0.926843
  H     -1.282505   -0.696719    0.928373

 Total Charge           Charge          ....    0
 Multiplicity           Mult            ....    3
 Number of Electrons    NEL             ....   24
 Basis Dimension        Dim             ....  182

ORBITAL ENERGIES
----------------
                 SPIN UP ORBITALS
  NO   OCC          E(Eh)            E(eV)
   0   1.0000     -19.413109      -528.2576
   1   1.0000     -10.407391      -283.1995
   2   1.0000     -10.336677      -281.2753
   3   1.0000      -1.220817       -33.2201
   4   1.0000      -0.864543       -23.5254
   5   1.0000      -0.742880       -20.2148
   6   1.0000      -0.648330       -17.6420
   7   1.0000      -0.611507       -16.6399
   8   1.0000      -0.550098       -14.9689
   9   1.0000      -0.504349       -13.7240
  10   1.0000      -0.456840       -12.4313
  11   1.0000      -0.442408       -12.0385
  12   1.0000      -0.258932        -7.0459
  13   0.0000       0.040691         1.1073
  14   0.0000       0.063717         1.7338
  15   0.0000       0.072585         1.9751
  16   0.0000       0.085729         2.3328
  17   0.0000       0.116194         3.1618

                 SPIN DOWN ORBITALS
  NO   OCC          E(Eh)            E(eV)
   0   1.0000     -19.383927      -527.4635
   1   1.0000     -10.408502      -283.2297
   2   1.0000     -10.324181      -280.9352
   3   1.0000      -1.159298       -31.5461
   4   1.0000      -0.830169       -22.5901
   5   1.0000      -0.722031       -19.6475
   6   1.0000      -0.604172       -16.4404
   7   1.0000      -0.574775       -15.6404
   8   1.0000      -0.525252       -14.2928
   9   1.0000      -0.472429       -12.8554
  10   1.0000      -0.393527       -10.7084
  11   0.0000      -0.078500        -2.1361
  12   0.0000       0.037661         1.0248
  13   0.0000       0.039673         1.0796
  14   0.0000       0.063868         1.7379
  15   0.0000       0.070947         1.9306

----------------------------------------------------------------------------------------------------
          SPIN FLIP ABSORPTION SPECTRUM VIA TRANSITION ELECTRIC DIPOLE MOMENTS
----------------------------------------------------------------------------------------------------
     Transition      Energy     Energy  Wavelength fosc(D2)      D2        DX        DY        DZ
                      (eV)      (cm-1)    (nm)                 (au**2)    (au)      (au)      (au)
----------------------------------------------------------------------------------------------------
  1-3A  ->  2-3A    2.904088   23423.0   426.9   0.001082453   0.01521  -0.00041  -0.00050  -0.12334

Dispersion correction             ... done (  0.0 sec)

MULLIKEN ATOMIC CHARGES AND SPIN DENSITIES
------------------------------------------
   0 O :   -0.501933   -0.084808
   1 C :   -0.140768   -0.063812
   2 C :   -0.315736    0.045314
   3 H :    0.231662    0.033290
   4 H :    0.231741    0.033194
   5 H :    0.247485    0.018339
   6 H :    0.247549    0.018481
Sum of atomic charges       :   -0.0000000

LOEWDIN ATOMIC CHARGES AND SPIN DENSITIES
-----------------------------------------
   0 O :   -0.058634   -0.113051
   1 C :   -0.328790   -0.004899
   2 C :    0.329611    0.091978
   3 H :    0.029930    0.005681
   4 H :    0.029918    0.005652
   5 H :   -0.001015    0.007314
   6 H :   -0.001020    0.007324

  Mayer bond orders larger than 0.100000
B(  0-O ,  1-C ) :   0.7302 B(  0-O ,  2-C ) :   0.9075 B(  1-C ,  2-C ) :   0.7871
B(  1-C ,  3-H ) :   1.0290 B(  1-C ,  4-H ) :   1.0289 B(  2-C ,  5-H ) :   0.9360
B(  2-C ,  6-H ) :   0.9361

Dispersion correction           -0.005578955
FINAL SINGLE POINT ENERGY      -153.817128027281

DIPOLE MOMENT
-------------

Method             : TDA/CIS
Type of density    : Electron Density
Level              : Relaxed density
State              :   1
Multiplicity       :   3
Irrep              :   0
Energy             :     0.0000000000000000 Eh
Relativity type    :
Basis              : AO
                                X                 Y                 Z
Electronic contribution:     -0.020370106       1.237858284      -0.001908402
Nuclear contribution   :     -0.381630377      -2.559408825       0.003530825
                        -----------------------------------------
Total Dipole Moment    :     -0.402000483      -1.321550541       0.001622424
                        -----------------------------------------
Magnitude (a.u.)       :      1.381340962
Magnitude (Debye)      :      3.511089694

Rotational constants in cm-1:             1.024085             0.531781             0.406216
Rotational constants in MHz :         30701.282725         15942.401396         12178.036799

                             ****ORCA TERMINATED NORMALLY****
TOTAL RUN TIME: 0 days 0 hours 0 minutes 17 seconds 368 msec
