                         Program Version 6.0.0  -   RELEASE  -
|  1> ! Engrad def2-TZVPPD wB97M-D3BJ
|  2> %pal nprocs 8 end%pal nprocs 64 end
|  3> %tddft
|  4>  Iroot 1 Nroots 3
|  5> sf true
|  6> end
|  7> *xyz 0 3
|  8> O   -0.31649124 -0.35875197 0.8817401
|  9> C   0.31113112 0.56789319 0.11552009
| 10> C   1.32388956 -0.03303721 -0.8404689
| 11> H   0.8734458 1.31256915 0.62571129
| 12> H   -0.46509273 1.28954055 -0.38457157
| 13> H   1.59320589 -1.03853438 -0.73658637
| 14> H   1.5655279 0.47225554 -1.72667002
| 15> *
| 16>
| 17>                          ****END OF INPUT****

CARTESIAN COORDINATES (ANGSTROEM)
---------------------------------
  O     -0.316491   -0.358752    0.881740
  C      0.311131    0.567893    0.115520
  C      1.323890   -0.033037   -0.840469
  H      0.873446    1.312569    0.625711
  H     -0.465093    1.289541   -0.384572
  H      1.593206   -1.038534   -0.736586
  H      1.565528    0.472256   -1.726670

 Total Charge           Charge          ....    0
 Multiplicity           Mult            ....    3
 Number of Electrons    NEL             ....   24
 Basis Dimension        Dim             ....  182

ORBITAL ENERGIES
----------------
                 SPIN UP ORBITALS
  NO   OCC          E(Eh)            E(eV)
   0   1.0000     -19.392102      -527.6859
   1   1.0000     -10.418685      -283.5068
   2   1.0000     -10.359332      -281.8917
   3   1.0000      -1.173113       -31.9220
   4   1.0000      -0.875629       -23.8271
   5   1.0000      -0.744430       -20.2570
   6   1.0000      -0.603762       -16.4292
   7   1.0000      -0.596886       -16.2421
   8   1.0000      -0.555188       -15.1074
   9   1.0000      -0.522748       -14.2247
  10   1.0000      -0.444524       -12.0961
  11   1.0000      -0.413803       -11.2602
  12   1.0000      -0.316671        -8.6170
  13   0.0000       0.040352         1.0980
  14   0.0000       0.060671         1.6509
  15   0.0000       0.080408         2.1880
  16   0.0000       0.083749         2.2789
  17   0.0000       0.110542         3.0080

                 SPIN DOWN ORBITALS
  NO   OCC          E(Eh)            E(eV)
   0   1.0000     -19.369551      -527.0723
   1   1.0000     -10.420056      -283.5441
   2   1.0000     -10.345928      -281.5270
   3   1.0000      -1.121907       -30.5286
   4   1.0000      -0.843472       -22.9521
   5   1.0000      -0.716968       -19.5097
   6   1.0000      -0.578639       -15.7456
   7   1.0000      -0.551705       -15.0127
   8   1.0000      -0.527560       -14.3556
   9   1.0000      -0.502353       -13.6697
  10   1.0000      -0.384425       -10.4607
  11   0.0000      -0.061340        -1.6692
  12   0.0000       0.006833         0.1859
  13   0.0000       0.039534         1.0758
  14   0.0000       0.060174         1.6374
  15   0.0000       0.080411         2.1881

----------------------------------------------------------------------------------------------------
          SPIN FLIP ABSORPTION SPECTRUM VIA TRANSITION ELECTRIC DIPOLE MOMENTS
----------------------------------------------------------------------------------------------------
     Transition      Energy     Energy  Wavelength fosc(D2)      D2        DX        DY        DZ
                      (eV)      (cm-1)    (nm)                 (au**2)    (au)      (au)      (au)
----------------------------------------------------------------------------------------------------
  1-3A  ->  2-3A    0.327695    2643.0  3783.5   0.000269571   0.03358  -0.07430   0.05081   0.15961
  1-3A  ->  3-3A    0.748505    6037.1  1656.4   0.024417988   1.33155   0.77808   0.31636  -0.79124

Dispersion correction             ... done (  0.1 sec)

MULLIKEN ATOMIC CHARGES AND SPIN DENSITIES
------------------------------------------
   0 O :   -0.517870   -0.136764
   1 C :   -0.051066   -0.041920
   2 C :   -0.397154    0.125530
   3 H :    0.241662    0.072272
   4 H :    0.248498   -0.060356
   5 H :    0.250106    0.040073
   6 H :    0.225825    0.001165
Sum of atomic charges       :    0.0000000

LOEWDIN ATOMIC CHARGES AND SPIN DENSITIES
-----------------------------------------
   0 O :   -0.086581   -0.169387
   1 C :   -0.282380   -0.003539
   2 C :    0.392753    0.149858
   3 H :    0.002927    0.033240
   4 H :    0.101259   -0.045028
   5 H :   -0.057872    0.020140
   6 H :   -0.070106    0.014716

  Mayer bond orders larger than 0.100000
B(  0-O ,  1-C ) :   1.1075 B(  0-O ,  2-C ) :   0.3235 B(  1-C ,  2-C ) :   0.9822
B(  1-C ,  3-H ) :   0.9098 B(  1-C ,  4-H ) :   0.8760 B(  2-C ,  5-H ) :   0.9352
B(  2-C ,  6-H ) :   0.9925

Dispersion correction           -0.005514082
FINAL SINGLE POINT ENERGY      -153.754622986690

DIPOLE MOMENT
-------------

Method             : TDA/CIS
Type of density    : Electron Density
Level              : Relaxed density
State              :   1
Multiplicity       :   3
Irrep              :   0
Energy             :     0.0000000000000000 Eh
Relativity type    :
Basis              : AO
                                X                 Y                 Z
Electronic contribution:     -0.972461750      -0.909977621       1.293915990
Nuclear contribution   :      1.787916877       1.670623667      -2.341921113
                        -----------------------------------------
Total Dipole Moment    :      0.815455126       0.760646046      -1.048005123
                        -----------------------------------------
Magnitude (a.u.)       :      1.530315069
Magnitude (Debye)      :      3.889751781

Rotational constants in cm-1:             1.434503             0.354258             0.299714
Rotational constants in MHz :         43005.327992         10620.380256          8985.211014

                             ****ORCA TERMINATED NORMALLY****
TOTAL RUN TIME: 0 days 0 hours 0 minutes 27 seconds 563 msec
