                         Program Version 6.0.0  -   RELEASE  -
|  1> ! Engrad def2-TZVPPD wB97M-D3BJ
|  2> %pal nprocs 8 end%pal nprocs 64 end
|  3> %tddft
|  4>  Iroot 1 Nroots 3
|  5> sf true
|  6> end
|  7> *xyz 0 3
|  8> O   3.14111976 -0.8214515 -1.89246311
|  9> O   -1.95856886 1.64841551 -1.58455611
| 10> O   -0.93777416 -2.80713444 -1.49121564
| 11> O   -3.06254877 0.92467418 2.69731597
| 12> N   -0.19308294 -1.48437302 0.26469021
| 13> N   -0.86714743 0.74286673 2.08699927
| 14> N   1.1054583 -1.80624574 -1.7019622
| 15> N   -2.49865129 0.93357958 0.50867201
| 16> C   2.06786079 -0.61544208 0.14714452
| 17> C   -0.15818913 1.43842628 -0.08128239
| 18> C   0.78163428 -0.67971081 0.92207158
| 19> C   0.22374236 0.73865076 1.11595213
| 20> C   3.25882286 0.02070759 0.68162973
| 21> C   0.86044782 1.90834398 -1.09780057
| 22> C   2.20348042 -1.14017816 -1.21727445
| 23> C   -1.55388295 1.35646347 -0.45552241
| 24> C   -0.08554099 -2.06218651 -1.00754359
| 25> C   -2.22417151 0.87918208 1.83327424
| 26> H   1.02738506 -1.05451044 1.95642365
| 27> H   1.10015171 1.16230646 1.54179286
| 28> H   3.22729535 0.4788036 1.70639135
| 29> H   4.10707217 -0.68652577 0.69607371
| 30> H   3.58554667 0.81308191 -0.0576818
| 31> H   0.48180492 2.73521332 -1.71086932
| 32> H   1.7481216 2.32136543 -0.57024282
| 33> H   1.26668148 1.10400402 -1.69880856
| 34> H   -0.99489652 -1.5530789 0.817508
| 35> H   -0.53758334 0.9157726 2.9642071
| 36> H   1.3012011 -2.27178322 -2.59496498
| 37> H   -3.45621684 1.23703007 0.31947938
| 38> *
| 39>
| 40>                          ****END OF INPUT****

CARTESIAN COORDINATES (ANGSTROEM)
---------------------------------
  O      3.141120   -0.821451   -1.892463
  O     -1.958569    1.648416   -1.584556
  O     -0.937774   -2.807134   -1.491216
  O     -3.062549    0.924674    2.697316
  N     -0.193083   -1.484373    0.264690
  N     -0.867147    0.742867    2.086999
  N      1.105458   -1.806246   -1.701962
  N     -2.498651    0.933580    0.508672
  C      2.067861   -0.615442    0.147145
  C     -0.158189    1.438426   -0.081282
  C      0.781634   -0.679711    0.922072
  C      0.223742    0.738651    1.115952
  C      3.258823    0.020708    0.681630
  C      0.860448    1.908344   -1.097801
  C      2.203480   -1.140178   -1.217274
  C     -1.553883    1.356463   -0.455522
  C     -0.085541   -2.062187   -1.007544
  C     -2.224172    0.879182    1.833274
  H      1.027385   -1.054510    1.956424
  H      1.100152    1.162306    1.541793
  H      3.227295    0.478804    1.706391
  H      4.107072   -0.686526    0.696074
  H      3.585547    0.813082   -0.057682
  H      0.481805    2.735213   -1.710869
  H      1.748122    2.321365   -0.570243
  H      1.266681    1.104004   -1.698809
  H     -0.994897   -1.553079    0.817508
  H     -0.537583    0.915773    2.964207
  H      1.301201   -2.271783   -2.594965
  H     -3.456217    1.237030    0.319479

 Total Charge           Charge          ....    0
 Multiplicity           Mult            ....    3
 Number of Electrons    NEL             ....  132
 Basis Dimension        Dim             ....  882

ORBITAL ENERGIES
----------------
                 SPIN UP ORBITALS
  NO   OCC          E(Eh)            E(eV)
   0   1.0000     -19.339974      -526.2674
   1   1.0000     -19.338884      -526.2378
   2   1.0000     -19.322092      -525.7809
   3   1.0000     -19.321802      -525.7730
   4   1.0000     -14.572770      -396.5452
   5   1.0000     -14.565479      -396.3468
   6   1.0000     -14.560165      -396.2022
   7   1.0000     -14.556681      -396.1074
   8   1.0000     -10.519866      -286.2601
   9   1.0000     -10.506216      -285.8887
  10   1.0000     -10.485665      -285.3295
  11   1.0000     -10.484297      -285.2922
  12   1.0000     -10.445424      -284.2344
  13   1.0000     -10.435124      -283.9542
  14   1.0000     -10.422402      -283.6080
  15   1.0000     -10.418018      -283.4887
  16   1.0000     -10.384362      -282.5728
  17   1.0000     -10.377557      -282.3877
  18   1.0000      -1.225983       -33.3607
  19   1.0000      -1.223888       -33.3037
  20   1.0000      -1.197021       -32.5726
  21   1.0000      -1.194448       -32.5026
  22   1.0000      -1.125203       -30.6183
  23   1.0000      -1.101541       -29.9745
  24   1.0000      -1.075144       -29.2562
  25   1.0000      -1.061786       -28.8927
  26   1.0000      -0.988757       -26.9055
  27   1.0000      -0.959103       -26.0985
  28   1.0000      -0.894878       -24.3509
  29   1.0000      -0.844322       -22.9752
  30   1.0000      -0.828047       -22.5323
  31   1.0000      -0.806309       -21.9408
  32   1.0000      -0.794278       -21.6134
  33   1.0000      -0.785980       -21.3876
  34   1.0000      -0.710400       -19.3310
  35   1.0000      -0.706860       -19.2346
  36   1.0000      -0.690553       -18.7909
  37   1.0000      -0.682349       -18.5677
  38   1.0000      -0.653132       -17.7726
  39   1.0000      -0.643715       -17.5164
  40   1.0000      -0.627326       -17.0704
  41   1.0000      -0.610911       -16.6237
  42   1.0000      -0.605325       -16.4717
  43   1.0000      -0.591533       -16.0964
  44   1.0000      -0.576766       -15.6946
  45   1.0000      -0.573619       -15.6090
  46   1.0000      -0.569161       -15.4877
  47   1.0000      -0.564998       -15.3744
  48   1.0000      -0.560630       -15.2555
  49   1.0000      -0.558061       -15.1856
  50   1.0000      -0.552357       -15.0304
  51   1.0000      -0.533677       -14.5221
  52   1.0000      -0.530448       -14.4342
  53   1.0000      -0.526886       -14.3373
  54   1.0000      -0.517965       -14.0945
  55   1.0000      -0.502182       -13.6651
  56   1.0000      -0.497124       -13.5274
  57   1.0000      -0.424869       -11.5613
  58   1.0000      -0.421908       -11.4807
  59   1.0000      -0.416392       -11.3306
  60   1.0000      -0.407717       -11.0946
  61   1.0000      -0.402870       -10.9627
  62   1.0000      -0.394753       -10.7418
  63   1.0000      -0.392582       -10.6827
  64   1.0000      -0.382790       -10.4162
  65   1.0000      -0.355759        -9.6807
  66   1.0000      -0.325896        -8.8681
  67   0.0000       0.007652         0.2082
  68   0.0000       0.029748         0.8095
  69   0.0000       0.032289         0.8786
  70   0.0000       0.034421         0.9366
  71   0.0000       0.052404         1.4260

                 SPIN DOWN ORBITALS
  NO   OCC          E(Eh)            E(eV)
   0   1.0000     -19.335736      -526.1521
   1   1.0000     -19.334533      -526.1194
   2   1.0000     -19.322008      -525.7786
   3   1.0000     -19.321753      -525.7716
   4   1.0000     -14.572009      -396.5245
   5   1.0000     -14.565250      -396.3406
   6   1.0000     -14.560213      -396.2035
   7   1.0000     -14.556435      -396.1007
   8   1.0000     -10.519899      -286.2610
   9   1.0000     -10.506230      -285.8891
  10   1.0000     -10.486834      -285.3613
  11   1.0000     -10.485069      -285.3132
  12   1.0000     -10.444873      -284.2194
  13   1.0000     -10.434849      -283.9467
  14   1.0000     -10.411284      -283.3054
  15   1.0000     -10.406555      -283.1768
  16   1.0000     -10.384982      -282.5897
  17   1.0000     -10.378026      -282.4005
  18   1.0000      -1.223255       -33.2865
  19   1.0000      -1.221422       -33.2366
  20   1.0000      -1.195745       -32.5379
  21   1.0000      -1.187747       -32.3202
  22   1.0000      -1.122400       -30.5421
  23   1.0000      -1.099648       -29.9229
  24   1.0000      -1.073313       -29.2063
  25   1.0000      -1.060541       -28.8588
  26   1.0000      -0.976542       -26.5731
  27   1.0000      -0.941249       -25.6127
  28   1.0000      -0.888314       -24.1722
  29   1.0000      -0.839232       -22.8367
  30   1.0000      -0.819700       -22.3052
  31   1.0000      -0.802881       -21.8475
  32   1.0000      -0.792715       -21.5709
  33   1.0000      -0.782943       -21.3050
  34   1.0000      -0.707062       -19.2401
  35   1.0000      -0.700571       -19.0635
  36   1.0000      -0.683939       -18.6109
  37   1.0000      -0.677023       -18.4227
  38   1.0000      -0.645270       -17.5587
  39   1.0000      -0.632378       -17.2079
  40   1.0000      -0.623474       -16.9656
  41   1.0000      -0.605063       -16.4646
  42   1.0000      -0.598153       -16.2766
  43   1.0000      -0.585836       -15.9414
  44   1.0000      -0.569345       -15.4927
  45   1.0000      -0.566238       -15.4081
  46   1.0000      -0.562829       -15.3154
  47   1.0000      -0.559948       -15.2370
  48   1.0000      -0.553118       -15.0511
  49   1.0000      -0.548685       -14.9305
  50   1.0000      -0.544028       -14.8037
  51   1.0000      -0.527240       -14.3469
  52   1.0000      -0.524086       -14.2611
  53   1.0000      -0.516700       -14.0601
  54   1.0000      -0.509926       -13.8758
  55   1.0000      -0.496591       -13.5129
  56   1.0000      -0.491440       -13.3728
  57   1.0000      -0.420194       -11.4341
  58   1.0000      -0.417771       -11.3681
  59   1.0000      -0.408195       -11.1076
  60   1.0000      -0.397570       -10.8184
  61   1.0000      -0.394785       -10.7426
  62   1.0000      -0.390587       -10.6284
  63   1.0000      -0.388467       -10.5707
  64   1.0000      -0.375568       -10.2197
  65   0.0000      -0.069744        -1.8978
  66   0.0000      -0.049696        -1.3523
  67   0.0000       0.006945         0.1890
  68   0.0000       0.029519         0.8033
  69   0.0000       0.031859         0.8669

----------------------------------------------------------------------------------------------------
          SPIN FLIP ABSORPTION SPECTRUM VIA TRANSITION ELECTRIC DIPOLE MOMENTS
----------------------------------------------------------------------------------------------------
     Transition      Energy     Energy  Wavelength fosc(D2)      D2        DX        DY        DZ
                      (eV)      (cm-1)    (nm)                 (au**2)    (au)      (au)      (au)
----------------------------------------------------------------------------------------------------
  1-3A  ->  2-3A    0.112929     910.8  10979.0   0.000042513   0.01537  -0.09274   0.07639   0.03050
  1-3A  ->  3-3A    2.084324   16811.2   594.8   0.001715988   0.03360  -0.11630   0.08634  -0.11235

Dispersion correction             ... done (  0.1 sec)

MULLIKEN ATOMIC CHARGES AND SPIN DENSITIES
------------------------------------------
   0 O :   -0.637801   -0.031079
   1 O :   -0.665473    0.053538
   2 O :   -0.667134   -0.000539
   3 O :   -0.641833    0.000178
   4 N :   -0.135127    0.000990
   5 N :   -0.156618   -0.000158
   6 N :   -0.008542   -0.008843
   7 N :   -0.044197    0.003092
   8 C :    0.681253    0.338591
   9 C :    0.288459    0.337433
  10 C :    0.132148   -0.295786
  11 C :    0.121650   -0.107757
  12 C :   -1.399500    0.001185
  13 C :   -1.292563   -0.011343
  14 C :    0.193310   -0.226781
  15 C :    0.176817   -0.070400
  16 C :    0.433453    0.019690
  17 C :    0.398630    0.002227
  18 H :    0.355695   -0.034576
  19 H :    0.889068    0.000916
  20 H :    0.283338   -0.005258
  21 H :    0.370897    0.001331
  22 H :    0.287176    0.002895
  23 H :    0.326560    0.000260
  24 H :    0.301443    0.003972
  25 H :    0.280835    0.022030
  26 H :   -0.008326    0.001659
  27 H :   -0.055854   -0.000402
  28 H :    0.069899    0.002686
  29 H :    0.122337    0.000247
Sum of atomic charges       :    0.0000000

LOEWDIN ATOMIC CHARGES AND SPIN DENSITIES
-----------------------------------------
   0 O :    0.093924   -0.025886
   1 O :    0.083269    0.046018
   2 O :    0.069642   -0.000518
   3 O :    0.097744    0.000085
   4 N :    0.308925    0.000305
   5 N :    0.328697   -0.000006
   6 N :    0.322048   -0.009849
   7 N :    0.313674    0.000735
   8 C :   -0.046733   -0.119378
   9 C :   -0.003991    0.131590
  10 C :   -0.122584   -0.011074
  11 C :   -0.143733    0.009746
  12 C :    0.145008   -0.020443
  13 C :    0.226026    0.014615
  14 C :   -0.465220   -0.024078
  15 C :   -0.362724    0.016435
  16 C :   -0.403485   -0.000387
  17 C :   -0.503325   -0.000248
  18 H :    0.093322   -0.004866
  19 H :    0.021011    0.002254
  20 H :    0.024154    0.000231
  21 H :    0.022239   -0.005762
  22 H :    0.031311   -0.005771
  23 H :    0.014198    0.000614
  24 H :    0.012311    0.001226
  25 H :   -0.009170    0.005049
  26 H :   -0.067615    0.000015
  27 H :   -0.096917   -0.000074
  28 H :    0.011927   -0.000686
  29 H :    0.006066    0.000108

  Mayer bond orders larger than 0.100000
B(  0-O , 14-C ) :   1.4133 B(  1-O , 15-C ) :   1.3340 B(  2-O , 16-C ) :   1.5954
B(  3-O , 17-C ) :   1.6329 B(  4-N ,  8-C ) :   0.1125 B(  4-N , 10-C ) :   0.5262
B(  4-N , 16-C ) :   1.0097 B(  4-N , 26-H ) :   1.2208 B(  5-N , 10-C ) :   0.2997
B(  5-N , 11-C ) :   0.2199 B(  5-N , 17-C ) :   1.1026 B(  5-N , 19-H ) :  -0.1498
B(  5-N , 27-H ) :   1.2276 B(  6-N ,  8-C ) :  -0.1471 B(  6-N , 14-C ) :   1.0735
B(  6-N , 16-C ) :   0.9650 B(  6-N , 28-H ) :   1.0890 B(  7-N , 15-C ) :   1.0330
B(  7-N , 17-C ) :   1.0193 B(  7-N , 29-H ) :   0.9952 B(  8-C ,  9-C ) :   0.1765
B(  8-C , 10-C ) :   0.7698 B(  8-C , 11-C ) :   0.1279 B(  8-C , 12-C ) :   0.3072
B(  8-C , 14-C ) :   0.5004 B(  8-C , 16-C ) :   0.1270 B(  8-C , 18-H ) :  -0.1741
B(  8-C , 20-H ) :  -0.1485 B(  9-C , 10-C ) :   0.1207 B(  9-C , 11-C ) :   0.7376
B(  9-C , 13-C ) :   0.2988 B(  9-C , 15-C ) :   0.9657 B(  9-C , 19-H ) :  -0.2821
B(  9-C , 24-H ) :  -0.1099 B( 10-C , 11-C ) :   0.5512 B( 10-C , 12-C ) :  -0.1818
B( 10-C , 16-C ) :  -0.1053 B( 10-C , 18-H ) :   0.9827 B( 10-C , 19-H ) :  -0.1457
B( 10-C , 26-H ) :  -0.1330 B( 11-C , 12-C ) :   0.1419 B( 11-C , 15-C ) :  -0.2339
B( 11-C , 17-C ) :  -0.1912 B( 11-C , 18-H ) :  -0.1157 B( 11-C , 19-H ) :   0.4592
B( 12-C , 20-H ) :   1.0921 B( 12-C , 21-H ) :   0.9148 B( 12-C , 22-H ) :   0.9061
B( 13-C , 23-H ) :   1.0234 B( 13-C , 24-H ) :   1.0476 B( 13-C , 25-H ) :   0.8165

Dispersion correction           -0.058796315
FINAL SINGLE POINT ENERGY      -908.781145163276

DIPOLE MOMENT
-------------

Method             : TDA/CIS
Type of density    : Electron Density
Level              : Relaxed density
State              :   1
Multiplicity       :   3
Irrep              :   0
Energy             :     0.0000000000000000 Eh
Relativity type    :
Basis              : AO
                                X                 Y                 Z
Electronic contribution:    -10.048732454      -4.718129824      -1.863804772
Nuclear contribution   :     12.093651165       5.399651040       3.431114395
                        -----------------------------------------
Total Dipole Moment    :      2.044918711       0.681521216       1.567309623
                        -----------------------------------------
Magnitude (a.u.)       :      2.665074700
Magnitude (Debye)      :      6.774081543

Rotational constants in cm-1:             0.022675             0.011334             0.010580
Rotational constants in MHz :           679.790624           339.798232           317.172323

                             ****ORCA TERMINATED NORMALLY****
TOTAL RUN TIME: 0 days 0 hours 5 minutes 4 seconds 395 msec
