                         Program Version 6.0.0  -   RELEASE  -
|  1> ! Engrad def2-TZVPPD wB97M-D3BJ
|  2> %pal nprocs 8 end%pal nprocs 64 end
|  3> %tddft
|  4>  Iroot 2 Nroots 3
|  5> sf true
|  6> end
|  7> *xyz 0 3
|  8> O   3.02849741 -0.88815652 -1.82362896
|  9> O   -1.6781965 1.08621539 -2.03515567
| 10> O   -0.9737869 -2.77580731 -0.72441487
| 11> O   -3.07964414 -0.03773681 2.11843504
| 12> N   0.119971 -1.43402479 0.84449813
| 13> N   -1.03872915 0.96517669 1.92294351
| 14> N   0.78909034 -1.43789752 -1.38954742
| 15> N   -2.43318445 0.78126419 0.07798492
| 16> C   2.16208348 -0.33833666 0.24349794
| 17> C   -0.19773454 1.53526972 -0.28525071
| 18> C   0.96035608 -0.33944317 1.11078346
| 19> C   0.12932099 1.07565346 1.0616552
| 20> C   3.43967437 0.18864948 0.66030937
| 21> C   0.7255368 2.32861824 -1.13464731
| 22> C   2.07625125 -0.95796251 -1.0729088
| 23> C   -1.48370264 1.12992741 -0.84612848
| 24> C   -0.1502036 -1.97721437 -0.41458692
| 25> C   -2.25030327 0.50380244 1.45718714
| 26> H   1.28210397 -0.33238998 2.13379435
| 27> H   0.78014423 1.73058729 1.59439637
| 28> H   4.33932334 -0.41688033 0.43133746
| 29> H   3.65540788 1.07554017 0.10516492
| 30> H   3.46918841 0.53197345 1.6997852
| 31> H   0.86263688 1.85043525 -2.11182439
| 32> H   0.29632538 3.3036258 -1.3776249
| 33> H   1.68704266 2.52152885 -0.63607547
| 34> H   -0.65433839 -1.48382424 1.47869712
| 35> H   -0.8760767 0.75590592 2.93608318
| 36> H   0.6426435 -1.72798594 -2.34629262
| 37> H   -3.17198561 0.26614535 -0.29232505
| 38> *
| 39>
| 40>                          ****END OF INPUT****

CARTESIAN COORDINATES (ANGSTROEM)
---------------------------------
  O      3.028497   -0.888157   -1.823629
  O     -1.678196    1.086215   -2.035156
  O     -0.973787   -2.775807   -0.724415
  O     -3.079644   -0.037737    2.118435
  N      0.119971   -1.434025    0.844498
  N     -1.038729    0.965177    1.922944
  N      0.789090   -1.437898   -1.389547
  N     -2.433184    0.781264    0.077985
  C      2.162083   -0.338337    0.243498
  C     -0.197735    1.535270   -0.285251
  C      0.960356   -0.339443    1.110783
  C      0.129321    1.075653    1.061655
  C      3.439674    0.188649    0.660309
  C      0.725537    2.328618   -1.134647
  C      2.076251   -0.957963   -1.072909
  C     -1.483703    1.129927   -0.846128
  C     -0.150204   -1.977214   -0.414587
  C     -2.250303    0.503802    1.457187
  H      1.282104   -0.332390    2.133794
  H      0.780144    1.730587    1.594396
  H      4.339323   -0.416880    0.431337
  H      3.655408    1.075540    0.105165
  H      3.469188    0.531973    1.699785
  H      0.862637    1.850435   -2.111824
  H      0.296325    3.303626   -1.377625
  H      1.687043    2.521529   -0.636075
  H     -0.654338   -1.483824    1.478697
  H     -0.876077    0.755906    2.936083
  H      0.642643   -1.727986   -2.346293
  H     -3.171986    0.266145   -0.292325

 Total Charge           Charge          ....    0
 Multiplicity           Mult            ....    3
 Number of Electrons    NEL             ....  132
 Basis Dimension        Dim             ....  882

ORBITAL ENERGIES
----------------
                 SPIN UP ORBITALS
  NO   OCC          E(Eh)            E(eV)
   0   1.0000     -19.338389      -526.2243
   1   1.0000     -19.335366      -526.1421
   2   1.0000     -19.333848      -526.1007
   3   1.0000     -19.329945      -525.9945
   4   1.0000     -14.569626      -396.4597
   5   1.0000     -14.563690      -396.2981
   6   1.0000     -14.559311      -396.1790
   7   1.0000     -14.558365      -396.1532
   8   1.0000     -10.518102      -286.2121
   9   1.0000     -10.513549      -286.0882
  10   1.0000     -10.478289      -285.1287
  11   1.0000     -10.475912      -285.0640
  12   1.0000     -10.440674      -284.1052
  13   1.0000     -10.440579      -284.1026
  14   1.0000     -10.410484      -283.2837
  15   1.0000     -10.409790      -283.2648
  16   1.0000     -10.371437      -282.2212
  17   1.0000     -10.370267      -282.1893
  18   1.0000      -1.233476       -33.5646
  19   1.0000      -1.226747       -33.3815
  20   1.0000      -1.204902       -32.7870
  21   1.0000      -1.199578       -32.6422
  22   1.0000      -1.129353       -30.7312
  23   1.0000      -1.106359       -30.1056
  24   1.0000      -1.066772       -29.0283
  25   1.0000      -1.050271       -28.5793
  26   1.0000      -0.980474       -26.6801
  27   1.0000      -0.956781       -26.0353
  28   1.0000      -0.887954       -24.1625
  29   1.0000      -0.844965       -22.9927
  30   1.0000      -0.823569       -22.4104
  31   1.0000      -0.802888       -21.8477
  32   1.0000      -0.786982       -21.4149
  33   1.0000      -0.774568       -21.0771
  34   1.0000      -0.694974       -18.9112
  35   1.0000      -0.690195       -18.7812
  36   1.0000      -0.688497       -18.7350
  37   1.0000      -0.681636       -18.5483
  38   1.0000      -0.654977       -17.8228
  39   1.0000      -0.640198       -17.4207
  40   1.0000      -0.623291       -16.9606
  41   1.0000      -0.599438       -16.3115
  42   1.0000      -0.594210       -16.1693
  43   1.0000      -0.591540       -16.0966
  44   1.0000      -0.576990       -15.7007
  45   1.0000      -0.572491       -15.5783
  46   1.0000      -0.569577       -15.4990
  47   1.0000      -0.565016       -15.3749
  48   1.0000      -0.561923       -15.2907
  49   1.0000      -0.560871       -15.2621
  50   1.0000      -0.552257       -15.0277
  51   1.0000      -0.540165       -14.6986
  52   1.0000      -0.537642       -14.6300
  53   1.0000      -0.520141       -14.1538
  54   1.0000      -0.514243       -13.9933
  55   1.0000      -0.508123       -13.8267
  56   1.0000      -0.500901       -13.6302
  57   1.0000      -0.434883       -11.8338
  58   1.0000      -0.429895       -11.6980
  59   1.0000      -0.414459       -11.2780
  60   1.0000      -0.411248       -11.1906
  61   1.0000      -0.404145       -10.9973
  62   1.0000      -0.397774       -10.8240
  63   1.0000      -0.392993       -10.6939
  64   1.0000      -0.387337       -10.5400
  65   1.0000      -0.342358        -9.3160
  66   1.0000      -0.312738        -8.5100
  67   0.0000       0.006358         0.1730
  68   0.0000       0.029779         0.8103
  69   0.0000       0.034655         0.9430
  70   0.0000       0.037141         1.0107
  71   0.0000       0.056165         1.5283

                 SPIN DOWN ORBITALS
  NO   OCC          E(Eh)            E(eV)
   0   1.0000     -19.338265      -526.2209
   1   1.0000     -19.335294      -526.1401
   2   1.0000     -19.329846      -525.9919
   3   1.0000     -19.326520      -525.9013
   4   1.0000     -14.569251      -396.4495
   5   1.0000     -14.563441      -396.2914
   6   1.0000     -14.558733      -396.1633
   7   1.0000     -14.557561      -396.1314
   8   1.0000     -10.518145      -286.2133
   9   1.0000     -10.513593      -286.0894
  10   1.0000     -10.479227      -285.1543
  11   1.0000     -10.476790      -285.0880
  12   1.0000     -10.440116      -284.0900
  13   1.0000     -10.439875      -284.0834
  14   1.0000     -10.399362      -282.9810
  15   1.0000     -10.398347      -282.9534
  16   1.0000     -10.371967      -282.2356
  17   1.0000     -10.370848      -282.2051
  18   1.0000      -1.232743       -33.5446
  19   1.0000      -1.226171       -33.3658
  20   1.0000      -1.200294       -32.6617
  21   1.0000      -1.193724       -32.4829
  22   1.0000      -1.126800       -30.6618
  23   1.0000      -1.104274       -30.0488
  24   1.0000      -1.065001       -28.9801
  25   1.0000      -1.048446       -28.5297
  26   1.0000      -0.966715       -26.3056
  27   1.0000      -0.939789       -25.5730
  28   1.0000      -0.882350       -24.0100
  29   1.0000      -0.840196       -22.8629
  30   1.0000      -0.814925       -22.1752
  31   1.0000      -0.797357       -21.6972
  32   1.0000      -0.785328       -21.3699
  33   1.0000      -0.772618       -21.0240
  34   1.0000      -0.690337       -18.7850
  35   1.0000      -0.684943       -18.6382
  36   1.0000      -0.681382       -18.5414
  37   1.0000      -0.674995       -18.3675
  38   1.0000      -0.643612       -17.5136
  39   1.0000      -0.635697       -17.2982
  40   1.0000      -0.617536       -16.8040
  41   1.0000      -0.595622       -16.2077
  42   1.0000      -0.590486       -16.0680
  43   1.0000      -0.586566       -15.9613
  44   1.0000      -0.574821       -15.6417
  45   1.0000      -0.566288       -15.4095
  46   1.0000      -0.564333       -15.3563
  47   1.0000      -0.555970       -15.1287
  48   1.0000      -0.551456       -15.0059
  49   1.0000      -0.547438       -14.8965
  50   1.0000      -0.544736       -14.8230
  51   1.0000      -0.533443       -14.5157
  52   1.0000      -0.528978       -14.3942
  53   1.0000      -0.509921       -13.8756
  54   1.0000      -0.507472       -13.8090
  55   1.0000      -0.504474       -13.7274
  56   1.0000      -0.494623       -13.4594
  57   1.0000      -0.431673       -11.7464
  58   1.0000      -0.426603       -11.6085
  59   1.0000      -0.411142       -11.1877
  60   1.0000      -0.401596       -10.9280
  61   1.0000      -0.391236       -10.6461
  62   1.0000      -0.390416       -10.6238
  63   1.0000      -0.387440       -10.5428
  64   1.0000      -0.374492       -10.1904
  65   0.0000      -0.059217        -1.6114
  66   0.0000      -0.040797        -1.1102
  67   0.0000       0.005870         0.1597
  68   0.0000       0.029309         0.7975
  69   0.0000       0.034411         0.9364

----------------------------------------------------------------------------------------------------
          SPIN FLIP ABSORPTION SPECTRUM VIA TRANSITION ELECTRIC DIPOLE MOMENTS
----------------------------------------------------------------------------------------------------
     Transition      Energy     Energy  Wavelength fosc(D2)      D2        DX        DY        DZ
                      (eV)      (cm-1)    (nm)                 (au**2)    (au)      (au)      (au)
----------------------------------------------------------------------------------------------------
  1-3A  ->  2-3A    0.117057     944.1  10591.8   0.000036492   0.01272   0.09641  -0.05469  -0.02094
  1-3A  ->  3-1A    2.312056   18648.0   536.3   0.030456381   0.53768   0.67310  -0.27613  -0.09146

Dispersion correction             ... done (  0.1 sec)

MULLIKEN ATOMIC CHARGES AND SPIN DENSITIES
------------------------------------------
   0 O :   -0.668083    0.026883
   1 O :   -0.652405   -0.024695
   2 O :   -0.585733    0.000462
   3 O :   -0.587727    0.000472
   4 N :   -0.288445    0.002673
   5 N :   -0.307006   -0.004417
   6 N :    0.074737   -0.003633
   7 N :   -0.030140   -0.006621
   8 C :    0.187771    0.321635
   9 C :    0.550987    0.377980
  10 C :    0.325392   -0.166659
  11 C :    0.353588   -0.319387
  12 C :   -1.255462    0.006753
  13 C :   -1.401214    0.001417
  14 C :    0.256660   -0.075516
  15 C :    0.102256   -0.169337
  16 C :    0.350049    0.000897
  17 C :    0.393104    0.016164
  18 H :    0.636041    0.007046
  19 H :    0.382284   -0.018097
  20 H :    0.321177    0.003679
  21 H :    0.268323    0.015198
  22 H :    0.339996    0.002583
  23 H :    0.281918   -0.001045
  24 H :    0.401000   -0.002421
  25 H :    0.275851    0.003737
  26 H :    0.073195   -0.000639
  27 H :    0.150981    0.001566
  28 H :    0.044784    0.000359
  29 H :    0.006122    0.002964
Sum of atomic charges       :   -0.0000000

LOEWDIN ATOMIC CHARGES AND SPIN DENSITIES
-----------------------------------------
   0 O :    0.091333    0.024069
   1 O :    0.104814   -0.020640
   2 O :    0.129539    0.000423
   3 O :    0.115453    0.000365
   4 N :    0.285038    0.000392
   5 N :    0.251786   -0.000171
   6 N :    0.330933   -0.001676
   7 N :    0.351410   -0.006767
   8 C :   -0.043075    0.097892
   9 C :   -0.019255   -0.080139
  10 C :   -0.111071    0.000229
  11 C :   -0.098209   -0.007404
  12 C :    0.172283    0.016868
  13 C :    0.190946   -0.014448
  14 C :   -0.406186    0.010119
  15 C :   -0.438412   -0.018323
  16 C :   -0.427317   -0.000401
  17 C :   -0.491932   -0.000117
  18 H :    0.035812   -0.000508
  19 H :    0.032173   -0.001544
  20 H :    0.031925    0.003881
  21 H :   -0.014520    0.005952
  22 H :    0.008822    0.000080
  23 H :    0.013760   -0.003204
  24 H :    0.011704   -0.004542
  25 H :    0.002404    0.000363
  26 H :   -0.048460    0.000131
  27 H :    0.014847   -0.000030
  28 H :   -0.021373   -0.000145
  29 H :   -0.055171   -0.000705

  Mayer bond orders larger than 0.100000
B(  0-O , 14-C ) :   1.3905 B(  1-O , 15-C ) :   1.4471 B(  2-O , 16-C ) :   1.6180
B(  3-O , 17-C ) :   1.6066 B(  4-N ,  8-C ) :   0.3185 B(  4-N , 16-C ) :   1.0179
B(  4-N , 18-H ) :  -0.1084 B(  4-N , 26-H ) :   1.0501 B(  5-N ,  9-C ) :   0.2014
B(  5-N , 10-C ) :   0.1777 B(  5-N , 11-C ) :   0.1081 B(  5-N , 17-C ) :   1.1087
B(  5-N , 27-H ) :   0.9990 B(  6-N ,  8-C ) :  -0.1384 B(  6-N , 10-C ) :   0.2354
B(  6-N , 11-C ) :  -0.1091 B(  6-N , 14-C ) :   1.0965 B(  6-N , 16-C ) :   0.9229
B(  6-N , 28-H ) :   1.0818 B(  7-N , 15-C ) :   0.9654 B(  7-N , 17-C ) :   0.9031
B(  7-N , 29-H ) :   1.1059 B(  8-C ,  9-C ) :   0.1881 B(  8-C , 10-C ) :   0.2965
B(  8-C , 11-C ) :   0.2913 B(  8-C , 12-C ) :   0.3349 B(  8-C , 14-C ) :   0.7580
B(  8-C , 16-C ) :   0.1476 B(  8-C , 18-H ) :  -0.2151 B(  8-C , 22-H ) :  -0.1336
B(  9-C , 10-C ) :   0.1910 B(  9-C , 11-C ) :   0.3998 B(  9-C , 13-C ) :   0.3931
B(  9-C , 15-C ) :   0.5440 B(  9-C , 19-H ) :  -0.2484 B(  9-C , 25-H ) :  -0.1244
B( 10-C , 11-C ) :   0.3036 B( 10-C , 16-C ) :  -0.2325 B( 10-C , 18-H ) :   0.7114
B( 11-C , 13-C ) :  -0.1297 B( 11-C , 17-C ) :  -0.1263 B( 11-C , 19-H ) :   1.0791
B( 12-C , 20-H ) :   0.9093 B( 12-C , 21-H ) :   0.8863 B( 12-C , 22-H ) :   1.0239
B( 13-C , 23-H ) :   0.9759 B( 13-C , 24-H ) :   0.8445 B( 13-C , 25-H ) :   1.0035

Dispersion correction           -0.058832013
FINAL SINGLE POINT ENERGY      -908.786822914211

DIPOLE MOMENT
-------------

Method             : TDA/CIS
Type of density    : Electron Density
Level              : Relaxed density
State              :   2
Multiplicity       :   3
Irrep              :   0
Energy             :     0.0000000000000000 Eh
Relativity type    :
Basis              : AO
                                X                 Y                 Z
Electronic contribution:    -10.020048939      -6.690185269      -1.834241661
Nuclear contribution   :     11.575327468       8.054241523       3.634254912
                        -----------------------------------------
Total Dipole Moment    :      1.555278529       1.364056254       1.800013251
                        -----------------------------------------
Magnitude (a.u.)       :      2.742186805
Magnitude (Debye)      :      6.970084936

Rotational constants in cm-1:             0.021513             0.012620             0.012064
Rotational constants in MHz :           644.933843           378.336984           361.658592

                             ****ORCA TERMINATED NORMALLY****
TOTAL RUN TIME: 0 days 0 hours 4 minutes 52 seconds 328 msec
