                         Program Version 6.0.0  -   RELEASE  -
|  1> ! Opt wB97M-D3BJ def2-TZVPPD
|  2> %pal nprocs 8 end %pal nprocs 64 end
|  3> %geom
|  4> Constraints
|  5>     {A 2 1 0 104.54545454545455 C }
|  6> end
|  7> MaxIter 500
|  8> end
|  9> *xyz 0 1
| 10> O   -0.0007 0.8141 0.0
| 11> C   0.7509 -0.4065 0.0
| 12> C   -0.7502 -0.4076 0.0
| 13> H   1.2625 -0.6786 0.9136
| 14> H   1.2625 -0.6787 -0.9136
| 15> H   -1.2614 -0.6806 -0.9136
| 16> H   -1.2614 -0.6805 0.9136
| 17> *
| 18>
| 19>                          ****END OF INPUT****
 Total Charge           Charge          ....    0
 Multiplicity           Mult            ....    1
 Number of Electrons    NEL             ....   24
Dispersion correction           -0.005797957
FINAL SINGLE POINT ENERGY      -153.716680989081
Dispersion correction             ... done (  0.1 sec)
Dispersion correction           -0.005692755
FINAL SINGLE POINT ENERGY      -153.763297916612
Dispersion correction             ... done (  0.2 sec)
Dispersion correction           -0.005636183
FINAL SINGLE POINT ENERGY      -153.777022245946
Dispersion correction             ... done (  0.2 sec)
FINAL SINGLE POINT ENERGY      -153.783442688544
FINAL SINGLE POINT ENERGY      -153.785218653938
FINAL SINGLE POINT ENERGY      -153.785549893370
FINAL SINGLE POINT ENERGY      -153.785664494969
FINAL SINGLE POINT ENERGY      -153.785728326391
FINAL SINGLE POINT ENERGY      -153.785751802645
FINAL SINGLE POINT ENERGY      -153.785775787895
FINAL SINGLE POINT ENERGY      -153.785800156241
FINAL SINGLE POINT ENERGY      -153.785828237985
FINAL SINGLE POINT ENERGY      -153.785859898468
FINAL SINGLE POINT ENERGY      -153.785889938897
FINAL SINGLE POINT ENERGY      -153.785907346404
Dispersion correction             ... done (  0.1 sec)
Dispersion correction           -0.005626937
FINAL SINGLE POINT ENERGY      -153.785913417652
Dispersion correction             ... done (  0.1 sec)
Dispersion correction           -0.005627903
FINAL SINGLE POINT ENERGY      -153.785915244380
Dispersion correction             ... done (  0.2 sec)
                    ***********************HURRAY********************

CARTESIAN COORDINATES (ANGSTROEM)
---------------------------------
  O      0.470011    1.084600   -0.002723
  C      0.606064   -0.248256   -0.000514
  C     -0.748586   -0.751339    0.000984
  H      1.153805   -0.621842    0.879573
  H      1.152793   -0.624846   -0.879954
  H     -1.316363   -0.780754   -0.920750
  H     -1.315524   -0.775963    0.923383

 Multiplicity           Mult            ....    1
 Number of Electrons    NEL             ....   24
 Basis Dimension        Dim             ....  182

ORBITAL ENERGIES
----------------

  NO   OCC          E(Eh)            E(eV)
   0   2.0000     -19.325654      -525.8778
   1   2.0000     -10.451780      -284.4074
   2   2.0000     -10.397248      -282.9235
   3   2.0000      -1.121540       -30.5186
   4   2.0000      -0.888383       -24.1741
   5   2.0000      -0.733753       -19.9664
   6   2.0000      -0.625289       -17.0150
   7   2.0000      -0.571698       -15.5567
   8   2.0000      -0.517396       -14.0791
   9   2.0000      -0.512974       -13.9587
  10   2.0000      -0.362800        -9.8723
  11   2.0000      -0.350135        -9.5277
  12   0.0000      -0.071543        -1.9468
  13   0.0000       0.034881         0.9492
  14   0.0000       0.061352         1.6695
  15   0.0000       0.076104         2.0709
  16   0.0000       0.098756         2.6873

MULLIKEN ATOMIC CHARGES
-----------------------
   0 O :   -0.514446
   1 C :   -0.125456
   2 C :   -0.210132
   3 H :    0.209400
   4 H :    0.209398
   5 H :    0.215526
   6 H :    0.215709
Sum of atomic charges:    0.0000000

LOEWDIN ATOMIC CHARGES
----------------------
   0 O :   -0.021653
   1 C :   -0.413703
   2 C :    0.409952
   3 H :    0.020978
   4 H :    0.020975
   5 H :   -0.008265
   6 H :   -0.008283

  Mayer bond orders larger than 0.100000
B(  0-O ,  1-C ) :   0.7705 B(  0-O ,  2-C ) :   0.8593 B(  1-C ,  2-C ) :   0.7944
B(  1-C ,  3-H ) :   1.0409 B(  1-C ,  4-H ) :   1.0408 B(  2-C ,  5-H ) :   0.9692
B(  2-C ,  6-H ) :   0.9692

Dispersion correction           -0.005628179
FINAL SINGLE POINT ENERGY      -153.785915763783

DIPOLE MOMENT
-------------

Method             : SCF
Type of density    : Electron Density
Multiplicity       :   1
Irrep              :   0
Energy             :  -153.7802875846063557 Eh
Relativity type    :
Basis              : AO
                                X                 Y                 Z
Electronic contribution:      0.115200884       1.414840404      -0.002466970
Nuclear contribution   :     -0.766886563      -2.829611609       0.005121773
                        -----------------------------------------
Total Dipole Moment    :     -0.651685679      -1.414771206       0.002654803
                        -----------------------------------------
Magnitude (a.u.)       :      1.557651706
Magnitude (Debye)      :      3.959235991

Rotational constants in cm-1:             1.252058             0.406655             0.348518
Rotational constants in MHz :         37535.748045         12191.223423         10448.296899

                             ****ORCA TERMINATED NORMALLY****
TOTAL RUN TIME: 0 days 0 hours 4 minutes 19 seconds 727 msec
