                         Program Version 6.0.0  -   RELEASE  -
|  1> ! Engrad def2-TZVPPD wB97M-D3BJ
|  2> %pal nprocs 8 end%pal nprocs 32 end
|  3> %tddft Nroots 2 Iroot 2
|  4> sf true
|  5> end
|  6> *xyz 0 3
|  7> O   0.204813 0.94886467 0.00196572
|  8> C   0.65463209 -0.37161049 -0.00651952
|  9> C   -0.75501081 -0.6593139 0.00178521
| 10> H   1.23883217 -0.58932807 0.89661579
| 11> H   1.24358222 -0.60669602 -0.89948691
| 12> H   -1.28433835 -0.66975739 -0.90939728
| 13> H   -1.28755126 -0.65670409 0.93938878
| 14> *
| 15>
| 16>                          ****END OF INPUT****

CARTESIAN COORDINATES (ANGSTROEM)
---------------------------------
  O      0.204813    0.948865    0.001966
  C      0.654632   -0.371610   -0.006520
  C     -0.755011   -0.659314    0.001785
  H      1.238832   -0.589328    0.896616
  H      1.243582   -0.606696   -0.899487
  H     -1.284338   -0.669757   -0.909397
  H     -1.287551   -0.656704    0.939389

 Total Charge           Charge          ....    0
 Multiplicity           Mult            ....    3
 Number of Electrons    NEL             ....   24
 Basis Dimension        Dim             ....  182

ORBITAL ENERGIES
----------------
                 SPIN UP ORBITALS
  NO   OCC          E(Eh)            E(eV)
   0   1.0000     -19.415816      -528.3312
   1   1.0000     -10.411790      -283.3192
   2   1.0000     -10.338485      -281.3245
   3   1.0000      -1.206476       -32.8299
   4   1.0000      -0.860794       -23.4234
   5   1.0000      -0.746943       -20.3253
   6   1.0000      -0.643264       -17.5041
   7   1.0000      -0.604591       -16.4518
   8   1.0000      -0.537886       -14.6366
   9   1.0000      -0.506024       -13.7696
  10   1.0000      -0.465401       -12.6642
  11   1.0000      -0.451897       -12.2967
  12   1.0000      -0.251243        -6.8367
  13   0.0000       0.040736         1.1085
  14   0.0000       0.062921         1.7122
  15   0.0000       0.073691         2.0052
  16   0.0000       0.085527         2.3273
  17   0.0000       0.114835         3.1248

                 SPIN DOWN ORBITALS
  NO   OCC          E(Eh)            E(eV)
   0   1.0000     -19.385354      -527.5023
   1   1.0000     -10.412802      -283.3467
   2   1.0000     -10.326154      -280.9889
   3   1.0000      -1.141147       -31.0522
   4   1.0000      -0.826073       -22.4786
   5   1.0000      -0.727778       -19.8038
   6   1.0000      -0.602374       -16.3914
   7   1.0000      -0.568099       -15.4588
   8   1.0000      -0.512737       -13.9523
   9   1.0000      -0.478237       -13.0135
  10   1.0000      -0.400209       -10.8902
  11   0.0000      -0.074881        -2.0376
  12   0.0000       0.038604         1.0505
  13   0.0000       0.041901         1.1402
  14   0.0000       0.062777         1.7083
  15   0.0000       0.071987         1.9589

----------------------------------------------------------------------------------------------------
          SPIN FLIP ABSORPTION SPECTRUM VIA TRANSITION ELECTRIC DIPOLE MOMENTS
----------------------------------------------------------------------------------------------------
     Transition      Energy     Energy  Wavelength fosc(D2)      D2        DX        DY        DZ
                      (eV)      (cm-1)    (nm)                 (au**2)    (au)      (au)      (au)
----------------------------------------------------------------------------------------------------
  1-3A  ->  2-3A    3.058689   24670.0   405.4   0.001207538   0.01611  -0.00901  -0.01171  -0.12608

Dispersion correction             ... done (  0.1 sec)

MULLIKEN ATOMIC CHARGES AND SPIN DENSITIES
------------------------------------------
   0 O :   -0.268557    0.720960
   1 C :    0.094183    0.184883
   2 C :   -0.477304   -0.674449
   3 H :    0.201909    0.026014
   4 H :    0.208657    0.026414
   5 H :    0.122163   -0.143504
   6 H :    0.118949   -0.140318
Sum of atomic charges       :    0.0000000

LOEWDIN ATOMIC CHARGES AND SPIN DENSITIES
-----------------------------------------
   0 O :    0.078544    0.672680
   1 C :   -0.156417    0.031310
   2 C :    0.171119   -0.564041
   3 H :    0.032412    0.020077
   4 H :    0.032672    0.020848
   5 H :   -0.091113   -0.093781
   6 H :   -0.067216   -0.087093

  Mayer bond orders larger than 0.100000
B(  0-O ,  1-C ) :   0.7946 B(  0-O ,  2-C ) :   0.2912 B(  1-C ,  2-C ) :   0.6396
B(  1-C ,  3-H ) :   0.9937 B(  1-C ,  4-H ) :   0.9841 B(  2-C ,  5-H ) :   1.1329
B(  2-C ,  6-H ) :   1.1265

Dispersion correction           -0.005527569
FINAL SINGLE POINT ENERGY      -153.708698162785

DIPOLE MOMENT
-------------

Method             : TDA/CIS
Type of density    : Electron Density
Level              : Relaxed density
State              :   2
Multiplicity       :   3
Irrep              :   0
Energy             :     0.0000000000000000 Eh
Relativity type    :
Basis              : AO
                                X                 Y                 Z
Electronic contribution:      0.772038216       2.296346133      -0.036709013
Nuclear contribution   :     -0.250330193      -2.374378860       0.025308305
                        -----------------------------------------
Total Dipole Moment    :      0.521708023      -0.078032728      -0.011400708
                        -----------------------------------------
Magnitude (a.u.)       :      0.527634669
Magnitude (Debye)      :      1.341140746

Rotational constants in cm-1:             0.955794             0.544372             0.402254
Rotational constants in MHz :         28653.981615         16319.860965         12059.283585

                             ****ORCA TERMINATED NORMALLY****
TOTAL RUN TIME: 0 days 0 hours 0 minutes 40 seconds 473 msec
