                         Program Version 6.0.0  -   RELEASE  -
|  1> ! Opt wB97M-D3BJ def2-TZVPPD
|  2> %pal nprocs 8 end %pal nprocs 64 end
|  3> %geom
|  4> Constraints
|  5>     {A 2 1 0 88.98305084745763 C }
|  6> end
|  7> MaxIter 200
|  8> end
|  9> *xyz 0 1
| 10> O   0.7244086960787447 1.0267010085178394 0.0
| 11> C   0.7509 -0.4065 0.0
| 12> C   -0.7502 -0.4076 0.0
| 13> H   1.2625 -0.6786 0.9136
| 14> H   1.2625 -0.6787 -0.9136
| 15> H   -1.2614 -0.6806 -0.9136
| 16> H   -1.2614 -0.6805 0.9136
| 17> *
| 18>
| 19>                          ****END OF INPUT****
 Total Charge           Charge          ....    0
 Multiplicity           Mult            ....    1
 Number of Electrons    NEL             ....   24
Dispersion correction           -0.005559508
FINAL SINGLE POINT ENERGY      -153.796788975876
Dispersion correction             ... done (  0.1 sec)
Dispersion correction           -0.005624593
FINAL SINGLE POINT ENERGY      -153.814403411929
Dispersion correction             ... done (  0.1 sec)
Dispersion correction           -0.005635498
FINAL SINGLE POINT ENERGY      -153.822587525958
Dispersion correction             ... done (  0.1 sec)
FINAL SINGLE POINT ENERGY      -153.827761248457
FINAL SINGLE POINT ENERGY      -153.828146440451
FINAL SINGLE POINT ENERGY      -153.828178549437
Dispersion correction             ... done (  0.1 sec)
Dispersion correction           -0.005639290
FINAL SINGLE POINT ENERGY      -153.828185048543
Dispersion correction             ... done (  0.1 sec)
Dispersion correction           -0.005638654
FINAL SINGLE POINT ENERGY      -153.828185324497
Dispersion correction             ... done (  0.1 sec)
                    ***********************HURRAY********************

CARTESIAN COORDINATES (ANGSTROEM)
---------------------------------
  O      0.515112    0.969275   -0.000307
  C      0.747838   -0.351671   -0.000041
  C     -0.657852   -0.573681    0.000115
  H      1.270534   -0.727617    0.888186
  H      1.270217   -0.728055   -0.888278
  H     -1.209360   -0.547186   -0.926607
  H     -1.209181   -0.546864    0.926932

 Multiplicity           Mult            ....    1
 Number of Electrons    NEL             ....   24
 Basis Dimension        Dim             ....  182

ORBITAL ENERGIES
----------------

  NO   OCC          E(Eh)            E(eV)
   0   2.0000     -19.338025      -526.2144
   1   2.0000     -10.429947      -283.8133
   2   2.0000     -10.396851      -282.9127
   3   2.0000      -1.146054       -31.1857
   4   2.0000      -0.865983       -23.5646
   5   2.0000      -0.735091       -20.0028
   6   2.0000      -0.625468       -17.0199
   7   2.0000      -0.580322       -15.7914
   8   2.0000      -0.514554       -14.0017
   9   2.0000      -0.506756       -13.7895
  10   2.0000      -0.387140       -10.5346
  11   2.0000      -0.363646        -9.8953
  12   0.0000      -0.015340        -0.4174
  13   0.0000       0.040340         1.0977
  14   0.0000       0.060811         1.6548
  15   0.0000       0.076628         2.0851
  16   0.0000       0.098300         2.6749

MULLIKEN ATOMIC CHARGES
-----------------------
   0 O :   -0.481981
   1 C :   -0.083337
   2 C :   -0.304575
   3 H :    0.217050
   4 H :    0.217071
   5 H :    0.217888
   6 H :    0.217883
Sum of atomic charges:    0.0000000

LOEWDIN ATOMIC CHARGES
----------------------
   0 O :   -0.017304
   1 C :   -0.345591
   2 C :    0.326802
   3 H :    0.024539
   4 H :    0.024535
   5 H :   -0.006488
   6 H :   -0.006493

  Mayer bond orders larger than 0.100000
B(  0-O ,  1-C ) :   0.6702 B(  0-O ,  2-C ) :   0.9464 B(  1-C ,  2-C ) :   0.7663
B(  1-C ,  3-H ) :   1.0486 B(  1-C ,  4-H ) :   1.0486 B(  2-C ,  5-H ) :   0.9642
B(  2-C ,  6-H ) :   0.9642

Dispersion correction           -0.005638474
FINAL SINGLE POINT ENERGY      -153.828185435834

DIPOLE MOMENT
-------------

Method             : SCF
Type of density    : Electron Density
Multiplicity       :   1
Irrep              :   0
Energy             :  -153.8225469613443295 Eh
Relativity type    :
Basis              : AO
                                X                 Y                 Z
Electronic contribution:      0.200057371       1.423327249      -0.000259365
Nuclear contribution   :     -0.685505796      -2.533652563       0.000538088
                        -----------------------------------------
Total Dipole Moment    :     -0.485448425      -1.110325314       0.000278723
                        -----------------------------------------
Magnitude (a.u.)       :      1.211809619
Magnitude (Debye)      :      3.080175267

Rotational constants in cm-1:             1.051098             0.510712             0.397566
Rotational constants in MHz :         31511.122156         15310.768179         11918.743716

                             ****ORCA TERMINATED NORMALLY****
TOTAL RUN TIME: 0 days 0 hours 1 minutes 57 seconds 436 msec
