                         Program Version 6.0.0  -   RELEASE  -
|  1> ! Engrad def2-TZVPPD wB97M-D3BJ
|  2> %pal nprocs 8 end%pal nprocs 64 end
|  3> %tddft
|  4>  Iroot 1 Nroots 3
|  5> sf true
|  6> end
|  7> *xyz 0 3
|  8> O   2.44069558 -0.454363 -2.30473656
|  9> O   -1.71421058 1.71072394 -1.68755163
| 10> O   -1.43379495 -2.41000661 -0.91315818
| 11> O   -2.84147923 0.59384101 2.58978274
| 12> N   0.08420542 -1.80150267 0.65383076
| 13> N   -0.69654191 0.75561703 2.13605846
| 14> N   0.55170182 -1.58430242 -1.5661228
| 15> N   -2.19328742 0.66291093 0.31378577
| 16> C   2.14674391 -0.65280624 0.02217387
| 17> C   0.00934831 1.24701386 -0.16441077
| 18> C   1.07047677 -0.8151954 1.00880771
| 19> C   0.43161452 0.68147419 1.18295961
| 20> C   3.42816245 0.18354318 0.36759819
| 21> C   1.01232511 1.98460727 -0.98341829
| 22> C   1.77165439 -0.91627282 -1.37417222
| 23> C   -1.36279801 1.25047724 -0.62230805
| 24> C   -0.39274424 -2.00522797 -0.62903086
| 25> C   -1.99350056 0.63863218 1.70656307
| 26> H   1.27645887 -0.92969303 2.07161209
| 27> H   1.2429639 1.2959362 1.5140514
| 28> H   3.87912237 0.65206531 -0.54724093
| 29> H   3.07088338 1.16171103 0.92766391
| 30> H   4.01222078 -0.47708896 0.95899159
| 31> H   0.64632147 3.05406442 -1.00312854
| 32> H   2.04893117 1.90442441 -0.58163411
| 33> H   1.04146858 1.62108289 -2.04091418
| 34> H   -0.54408023 -2.11556212 1.40253331
| 35> H   -0.67370538 1.14465861 3.10745743
| 36> H   0.27097041 -1.75951873 -2.49070904
| 37> H   -3.09278377 0.36356743 -0.00353984
| 38> *
| 39>
| 40>                          ****END OF INPUT****

CARTESIAN COORDINATES (ANGSTROEM)
---------------------------------
  O      2.440696   -0.454363   -2.304737
  O     -1.714211    1.710724   -1.687552
  O     -1.433795   -2.410007   -0.913158
  O     -2.841479    0.593841    2.589783
  N      0.084205   -1.801503    0.653831
  N     -0.696542    0.755617    2.136058
  N      0.551702   -1.584302   -1.566123
  N     -2.193287    0.662911    0.313786
  C      2.146744   -0.652806    0.022174
  C      0.009348    1.247014   -0.164411
  C      1.070477   -0.815195    1.008808
  C      0.431615    0.681474    1.182960
  C      3.428162    0.183543    0.367598
  C      1.012325    1.984607   -0.983418
  C      1.771654   -0.916273   -1.374172
  C     -1.362798    1.250477   -0.622308
  C     -0.392744   -2.005228   -0.629031
  C     -1.993501    0.638632    1.706563
  H      1.276459   -0.929693    2.071612
  H      1.242964    1.295936    1.514051
  H      3.879122    0.652065   -0.547241
  H      3.070883    1.161711    0.927664
  H      4.012221   -0.477089    0.958992
  H      0.646321    3.054064   -1.003129
  H      2.048931    1.904424   -0.581634
  H      1.041469    1.621083   -2.040914
  H     -0.544080   -2.115562    1.402533
  H     -0.673705    1.144659    3.107457
  H      0.270970   -1.759519   -2.490709
  H     -3.092784    0.363567   -0.003540

 Total Charge           Charge          ....    0
 Multiplicity           Mult            ....    3
 Number of Electrons    NEL             ....  132
 Basis Dimension        Dim             ....  882

ORBITAL ENERGIES
----------------
                 SPIN UP ORBITALS
  NO   OCC          E(Eh)            E(eV)
   0   1.0000     -19.338099      -526.2164
   1   1.0000     -19.332898      -526.0749
   2   1.0000     -19.332547      -526.0653
   3   1.0000     -19.319256      -525.7037
   4   1.0000     -14.562632      -396.2694
   5   1.0000     -14.562571      -396.2677
   6   1.0000     -14.562423      -396.2637
   7   1.0000     -14.557233      -396.1225
   8   1.0000     -10.507826      -285.9325
   9   1.0000     -10.505010      -285.8559
  10   1.0000     -10.490770      -285.4684
  11   1.0000     -10.476277      -285.0740
  12   1.0000     -10.446052      -284.2515
  13   1.0000     -10.444080      -284.1979
  14   1.0000     -10.425651      -283.6964
  15   1.0000     -10.408732      -283.2360
  16   1.0000     -10.395310      -282.8708
  17   1.0000     -10.369549      -282.1698
  18   1.0000      -1.248121       -33.9631
  19   1.0000      -1.213044       -33.0086
  20   1.0000      -1.196423       -32.5563
  21   1.0000      -1.194062       -32.4921
  22   1.0000      -1.118415       -30.4336
  23   1.0000      -1.095712       -29.8158
  24   1.0000      -1.064816       -28.9751
  25   1.0000      -1.051783       -28.6205
  26   1.0000      -0.979472       -26.6528
  27   1.0000      -0.941461       -25.6185
  28   1.0000      -0.879028       -23.9196
  29   1.0000      -0.839561       -22.8456
  30   1.0000      -0.822202       -22.3733
  31   1.0000      -0.801588       -21.8123
  32   1.0000      -0.783789       -21.3280
  33   1.0000      -0.777096       -21.1458
  34   1.0000      -0.695423       -18.9234
  35   1.0000      -0.689057       -18.7502
  36   1.0000      -0.685035       -18.6407
  37   1.0000      -0.673042       -18.3144
  38   1.0000      -0.651563       -17.7299
  39   1.0000      -0.640414       -17.4266
  40   1.0000      -0.627863       -17.0850
  41   1.0000      -0.600267       -16.3341
  42   1.0000      -0.596700       -16.2370
  43   1.0000      -0.587617       -15.9899
  44   1.0000      -0.582103       -15.8398
  45   1.0000      -0.569305       -15.4916
  46   1.0000      -0.567759       -15.4495
  47   1.0000      -0.564263       -15.3544
  48   1.0000      -0.554986       -15.1019
  49   1.0000      -0.551600       -15.0098
  50   1.0000      -0.545969       -14.8566
  51   1.0000      -0.536532       -14.5998
  52   1.0000      -0.517158       -14.0726
  53   1.0000      -0.515774       -14.0349
  54   1.0000      -0.509561       -13.8659
  55   1.0000      -0.501339       -13.6421
  56   1.0000      -0.481096       -13.0913
  57   1.0000      -0.431860       -11.7515
  58   1.0000      -0.416792       -11.3415
  59   1.0000      -0.413065       -11.2401
  60   1.0000      -0.410746       -11.1770
  61   1.0000      -0.402394       -10.9497
  62   1.0000      -0.399280       -10.8649
  63   1.0000      -0.392370       -10.6769
  64   1.0000      -0.382068       -10.3966
  65   1.0000      -0.339590        -9.2407
  66   1.0000      -0.319739        -8.7005
  67   0.0000       0.009973         0.2714
  68   0.0000       0.029772         0.8101
  69   0.0000       0.032784         0.8921
  70   0.0000       0.037255         1.0138
  71   0.0000       0.055598         1.5129

                 SPIN DOWN ORBITALS
  NO   OCC          E(Eh)            E(eV)
   0   1.0000     -19.333759      -526.0983
   1   1.0000     -19.332551      -526.0654
   2   1.0000     -19.328804      -525.9635
   3   1.0000     -19.318913      -525.6944
   4   1.0000     -14.562170      -396.2568
   5   1.0000     -14.562026      -396.2529
   6   1.0000     -14.561568      -396.2404
   7   1.0000     -14.557155      -396.1203
   8   1.0000     -10.507859      -285.9334
   9   1.0000     -10.505065      -285.8574
  10   1.0000     -10.491797      -285.4963
  11   1.0000     -10.477134      -285.0973
  12   1.0000     -10.445826      -284.2454
  13   1.0000     -10.442917      -284.1662
  14   1.0000     -10.414263      -283.3865
  15   1.0000     -10.397582      -282.9326
  16   1.0000     -10.395860      -282.8857
  17   1.0000     -10.369989      -282.1818
  18   1.0000      -1.247881       -33.9566
  19   1.0000      -1.210603       -32.9422
  20   1.0000      -1.190311       -32.3900
  21   1.0000      -1.189729       -32.3742
  22   1.0000      -1.115720       -30.3603
  23   1.0000      -1.093108       -29.7450
  24   1.0000      -1.062646       -28.9161
  25   1.0000      -1.050279       -28.5796
  26   1.0000      -0.966518       -26.3003
  27   1.0000      -0.923823       -25.1385
  28   1.0000      -0.873140       -23.7593
  29   1.0000      -0.834274       -22.7018
  30   1.0000      -0.815239       -22.1838
  31   1.0000      -0.797063       -21.6892
  32   1.0000      -0.782054       -21.2808
  33   1.0000      -0.775038       -21.0898
  34   1.0000      -0.688817       -18.7437
  35   1.0000      -0.684428       -18.6242
  36   1.0000      -0.678824       -18.4717
  37   1.0000      -0.665847       -18.1186
  38   1.0000      -0.644463       -17.5367
  39   1.0000      -0.635908       -17.3039
  40   1.0000      -0.619622       -16.8608
  41   1.0000      -0.595837       -16.2135
  42   1.0000      -0.592450       -16.1214
  43   1.0000      -0.581675       -15.8282
  44   1.0000      -0.578193       -15.7334
  45   1.0000      -0.562933       -15.3182
  46   1.0000      -0.561633       -15.2828
  47   1.0000      -0.553907       -15.0726
  48   1.0000      -0.549668       -14.9572
  49   1.0000      -0.540820       -14.7165
  50   1.0000      -0.540333       -14.7032
  51   1.0000      -0.525803       -14.3078
  52   1.0000      -0.509908       -13.8753
  53   1.0000      -0.506312       -13.7775
  54   1.0000      -0.502716       -13.6796
  55   1.0000      -0.493080       -13.4174
  56   1.0000      -0.476769       -12.9736
  57   1.0000      -0.429259       -11.6807
  58   1.0000      -0.410498       -11.1702
  59   1.0000      -0.406301       -11.0560
  60   1.0000      -0.399575       -10.8730
  61   1.0000      -0.394060       -10.7229
  62   1.0000      -0.388329       -10.5670
  63   1.0000      -0.385947       -10.5022
  64   1.0000      -0.367495       -10.0001
  65   0.0000      -0.060626        -1.6497
  66   0.0000      -0.048784        -1.3275
  67   0.0000       0.009654         0.2627
  68   0.0000       0.029486         0.8024
  69   0.0000       0.032991         0.8977

----------------------------------------------------------------------------------------------------
          SPIN FLIP ABSORPTION SPECTRUM VIA TRANSITION ELECTRIC DIPOLE MOMENTS
----------------------------------------------------------------------------------------------------
     Transition      Energy     Energy  Wavelength fosc(D2)      D2        DX        DY        DZ
                      (eV)      (cm-1)    (nm)                 (au**2)    (au)      (au)      (au)
----------------------------------------------------------------------------------------------------
  1-3A  ->  2-3A    0.021069     169.9  58847.6   0.000004444   0.00861  -0.07985   0.03103   0.03564
  1-3A  ->  3-1A    1.951752   15741.9   635.2   0.007930253   0.16585  -0.36180   0.16947   0.07888

Dispersion correction             ... done (  0.1 sec)

MULLIKEN ATOMIC CHARGES AND SPIN DENSITIES
------------------------------------------
   0 O :   -0.656537    0.120439
   1 O :   -0.673152   -0.115920
   2 O :   -0.550067   -0.000747
   3 O :   -0.667141   -0.003049
   4 N :   -0.198856    0.009560
   5 N :   -0.273663    0.008187
   6 N :    0.051452   -0.005077
   7 N :    0.110065   -0.026484
   8 C :   -0.184694    0.417397
   9 C :    0.894001    0.247758
  10 C :    0.238181   -0.030408
  11 C :   -0.218390   -0.364280
  12 C :   -1.236589   -0.012057
  13 C :   -1.311353    0.032702
  14 C :    0.495928    0.047067
  15 C :    0.076904   -0.326514
  16 C :    0.396796   -0.019762
  17 C :    0.364968    0.014207
  18 H :    0.531953    0.027195
  19 H :    0.735482   -0.015996
  20 H :    0.293646    0.000555
  21 H :    0.319782    0.013145
  22 H :    0.390215    0.015928
  23 H :    0.454793   -0.015110
  24 H :    0.165571   -0.002821
  25 H :    0.245745   -0.013767
  26 H :    0.070293   -0.001500
  27 H :    0.133019   -0.003110
  28 H :   -0.027480   -0.004075
  29 H :    0.029131    0.006535
Sum of atomic charges       :   -0.0000000

LOEWDIN ATOMIC CHARGES AND SPIN DENSITIES
-----------------------------------------
   0 O :    0.061731    0.105018
   1 O :    0.097351   -0.098574
   2 O :    0.162067   -0.000600
   3 O :    0.062207   -0.003144
   4 N :    0.273312   -0.001226
   5 N :    0.256273    0.003626
   6 N :    0.355978   -0.000656
   7 N :    0.333978   -0.022179
   8 C :   -0.028374    0.378130
   9 C :   -0.014708   -0.345700
  10 C :   -0.102751    0.023170
  11 C :   -0.074467    0.001810
  12 C :    0.200496    0.035575
  13 C :    0.179984   -0.046703
  14 C :   -0.382314    0.051347
  15 C :   -0.443166   -0.068294
  16 C :   -0.531293   -0.002019
  17 C :   -0.464888   -0.001790
  18 H :    0.052372    0.005309
  19 H :    0.008700   -0.002869
  20 H :    0.011485   -0.000596
  21 H :    0.026178    0.010264
  22 H :   -0.033972    0.009545
  23 H :    0.045779   -0.019150
  24 H :   -0.020681    0.002025
  25 H :    0.026232   -0.011586
  26 H :   -0.007107    0.000129
  27 H :    0.012927    0.000555
  28 H :   -0.042098    0.000240
  29 H :   -0.021231   -0.001657

  Mayer bond orders larger than 0.100000
B(  0-O , 14-C ) :   1.5284 B(  1-O ,  9-C ) :   0.1144 B(  1-O , 15-C ) :   1.3006
B(  2-O , 16-C ) :   1.5572 B(  3-O , 17-C ) :   1.5851 B(  4-N ,  8-C ) :   0.1522
B(  4-N , 10-C ) :   0.4365 B(  4-N , 16-C ) :   1.0067 B(  4-N , 26-H ) :   1.0410
B(  5-N ,  9-C ) :   0.1784 B(  5-N , 10-C ) :   0.1654 B(  5-N , 11-C ) :   0.3477
B(  5-N , 17-C ) :   1.1693 B(  5-N , 19-H ) :  -0.1300 B(  5-N , 27-H ) :   1.0297
B(  6-N ,  8-C ) :  -0.1489 B(  6-N , 10-C ) :   0.1295 B(  6-N , 14-C ) :   1.1352
B(  6-N , 16-C ) :   0.8737 B(  6-N , 28-H ) :   1.1508 B(  7-N ,  9-C ) :  -0.1421
B(  7-N , 11-C ) :   0.1458 B(  7-N , 15-C ) :   1.0198 B(  7-N , 17-C ) :   0.9738
B(  7-N , 29-H ) :   1.1181 B(  8-C ,  9-C ) :   0.1016 B(  8-C , 10-C ) :   0.5943
B(  8-C , 11-C ) :   0.1515 B(  8-C , 12-C ) :   0.4878 B(  8-C , 14-C ) :   0.8624
B(  9-C , 10-C ) :   0.1223 B(  9-C , 11-C ) :   0.4886 B(  9-C , 13-C ) :   0.4378
B(  9-C , 15-C ) :   0.5643 B(  9-C , 17-C ) :   0.1025 B(  9-C , 19-H ) :  -0.1432
B(  9-C , 24-H ) :  -0.1112 B( 10-C , 11-C ) :   0.3925 B( 10-C , 18-H ) :   0.7046
B( 11-C , 12-C ) :   0.1135 B( 11-C , 13-C ) :  -0.2454 B( 11-C , 17-C ) :  -0.2435
B( 11-C , 19-H ) :   0.6038 B( 12-C , 20-H ) :   1.0376 B( 12-C , 21-H ) :   0.8773
B( 12-C , 22-H ) :   0.9255 B( 13-C , 23-H ) :   0.7653 B( 13-C , 24-H ) :   1.1352
B( 13-C , 25-H ) :   1.0174 B( 15-C , 17-C ) :  -0.1085

Dispersion correction           -0.060616238
FINAL SINGLE POINT ENERGY      -908.757556987730

DIPOLE MOMENT
-------------

Method             : TDA/CIS
Type of density    : Electron Density
Level              : Relaxed density
State              :   1
Multiplicity       :   3
Irrep              :   0
Energy             :     0.0000000000000000 Eh
Relativity type    :
Basis              : AO
                                X                 Y                 Z
Electronic contribution:    -10.267720591      -5.933416116      -1.752587035
Nuclear contribution   :     12.368387171       6.042252317       3.353576592
                        -----------------------------------------
Total Dipole Moment    :      2.100666580       0.108836201       1.600989558
                        -----------------------------------------
Magnitude (a.u.)       :      2.643447174
Magnitude (Debye)      :      6.719108740

Rotational constants in cm-1:             0.021435             0.012969             0.012533
Rotational constants in MHz :           642.618066           388.792307           375.720178

                             ****ORCA TERMINATED NORMALLY****
TOTAL RUN TIME: 0 days 0 hours 4 minutes 39 seconds 477 msec
