                         Program Version 6.0.0  -   RELEASE  -
|  1> ! Engrad def2-TZVPPD wB97M-D3BJ
|  2> %pal nprocs 8 end%pal nprocs 64 end
|  3>  %tddft nroots 2 Iroot 2
|  4> sf true
|  5> end
|  6> *xyz 0 3
|  7> O   2.68800075638107 1.13058806794559 -0.62656520293938
|  8> O   -0.50142382316743 0.83378758011687 -2.15822912150638
|  9> O   0.72674610631026 -2.87139448964083 -1.51072844414365
| 10> O   -2.59282693105062 -1.66448543904783 1.0042355748718
| 11> N   0.62215636629993 -2.05185997859063 0.61117498105884
| 12> N   -2.14720720156091 0.52378515479836 1.45165340630633
| 13> N   1.79105292605065 -0.91405137320916 -1.01553393035823
| 14> N   -1.63135730876729 -0.36319482415143 -0.60524035116626
| 15> C   1.44218841360707 0.12918021154623 1.12470564131987
| 16> C   -0.8563599851812 1.85134714746954 -0.04183465099578
| 17> C   0.79500027379295 -0.99208395723731 1.46960758062545
| 18> C   -1.51722060904848 1.70142667746112 1.109820843056
| 19> C   1.69880688144569 1.25785029024887 2.07014998392865
| 20> C   -0.13242145101835 3.0979404157834 -0.43726921955405
| 21> C   2.0347952663764 0.19695355779065 -0.21184101976856
| 22> C   -0.95525076901005 0.78117947210171 -1.03735256549001
| 23> C   1.02419857613142 -2.01641099403237 -0.70739167286244
| 24> C   -2.16070787901692 -0.58953827192889 0.64279110668492
| 25> H   0.36311662868764 -1.12685609859163 2.4498243793545
| 26> H   -1.54691960572196 2.47491843188839 1.86192376449288
| 27> H   1.40138179853533 2.20689581752419 1.63221158753069
| 28> H   1.15420748704243 1.11041459620955 3.00056998630073
| 29> H   2.7608798970027 1.33404059053753 2.29724803839904
| 30> H   -0.56478459318997 3.51879407987766 -1.34284114631338
| 31> H   -0.18149240469417 3.84066950885704 0.35605767814763
| 32> H   0.91108762472849 2.87687082411708 -0.65407194282392
| 33> H   -0.02325713137732 -2.78764774162231 0.84324781095296
| 34> H   -2.56873515521611 0.40430950113918 2.35470680596575
| 35> H   2.0701551785161 -0.83465286246632 -1.98109687355198
| 36> H   -1.65120933288736 -1.14377589489429 -1.24533302752206
| 37> *
| 38>
| 39>                          ****END OF INPUT****

CARTESIAN COORDINATES (ANGSTROEM)
---------------------------------
  O      2.688001    1.130588   -0.626565
  O     -0.501424    0.833788   -2.158229
  O      0.726746   -2.871394   -1.510728
  O     -2.592827   -1.664485    1.004236
  N      0.622156   -2.051860    0.611175
  N     -2.147207    0.523785    1.451653
  N      1.791053   -0.914051   -1.015534
  N     -1.631357   -0.363195   -0.605240
  C      1.442188    0.129180    1.124706
  C     -0.856360    1.851347   -0.041835
  C      0.795000   -0.992084    1.469608
  C     -1.517221    1.701427    1.109821
  C      1.698807    1.257850    2.070150
  C     -0.132421    3.097940   -0.437269
  C      2.034795    0.196954   -0.211841
  C     -0.955251    0.781179   -1.037353
  C      1.024199   -2.016411   -0.707392
  C     -2.160708   -0.589538    0.642791
  H      0.363117   -1.126856    2.449824
  H     -1.546920    2.474918    1.861924
  H      1.401382    2.206896    1.632212
  H      1.154207    1.110415    3.000570
  H      2.760880    1.334041    2.297248
  H     -0.564785    3.518794   -1.342841
  H     -0.181492    3.840670    0.356058
  H      0.911088    2.876871   -0.654072
  H     -0.023257   -2.787648    0.843248
  H     -2.568735    0.404310    2.354707
  H      2.070155   -0.834653   -1.981097
  H     -1.651209   -1.143776   -1.245333

 Total Charge           Charge          ....    0
 Multiplicity           Mult            ....    3
 Number of Electrons    NEL             ....  132
 Basis Dimension        Dim             ....  882

ORBITAL ENERGIES
----------------
                 SPIN UP ORBITALS
  NO   OCC          E(Eh)            E(eV)
   0   1.0000     -19.331277      -526.0308
   1   1.0000     -19.329627      -525.9859
   2   1.0000     -19.323934      -525.8310
   3   1.0000     -19.317255      -525.6492
   4   1.0000     -14.592224      -397.0746
   5   1.0000     -14.584705      -396.8700
   6   1.0000     -14.571930      -396.5224
   7   1.0000     -14.547796      -395.8657
   8   1.0000     -10.515947      -286.1535
   9   1.0000     -10.508231      -285.9435
  10   1.0000     -10.479930      -285.1734
  11   1.0000     -10.455287      -284.5028
  12   1.0000     -10.433843      -283.9193
  13   1.0000     -10.407504      -283.2026
  14   1.0000     -10.396625      -282.9066
  15   1.0000     -10.382508      -282.5224
  16   1.0000     -10.370200      -282.1875
  17   1.0000     -10.352156      -281.6965
  18   1.0000      -1.229154       -33.4470
  19   1.0000      -1.224014       -33.3071
  20   1.0000      -1.195098       -32.5203
  21   1.0000      -1.187893       -32.3242
  22   1.0000      -1.125025       -30.6135
  23   1.0000      -1.123816       -30.5806
  24   1.0000      -1.071946       -29.1691
  25   1.0000      -1.058999       -28.8168
  26   1.0000      -0.975482       -26.5442
  27   1.0000      -0.958292       -26.0764
  28   1.0000      -0.857225       -23.3263
  29   1.0000      -0.848579       -23.0910
  30   1.0000      -0.812649       -22.1133
  31   1.0000      -0.808721       -22.0064
  32   1.0000      -0.795748       -21.6534
  33   1.0000      -0.787799       -21.4371
  34   1.0000      -0.700354       -19.0576
  35   1.0000      -0.697326       -18.9752
  36   1.0000      -0.693676       -18.8759
  37   1.0000      -0.689962       -18.7748
  38   1.0000      -0.646214       -17.5844
  39   1.0000      -0.642038       -17.4707
  40   1.0000      -0.628331       -17.0977
  41   1.0000      -0.601676       -16.3724
  42   1.0000      -0.598860       -16.2958
  43   1.0000      -0.592471       -16.1220
  44   1.0000      -0.576613       -15.6904
  45   1.0000      -0.569160       -15.4876
  46   1.0000      -0.568405       -15.4671
  47   1.0000      -0.553237       -15.0543
  48   1.0000      -0.551302       -15.0017
  49   1.0000      -0.545933       -14.8556
  50   1.0000      -0.530913       -14.4469
  51   1.0000      -0.525256       -14.2929
  52   1.0000      -0.516868       -14.0647
  53   1.0000      -0.515034       -14.0148
  54   1.0000      -0.509610       -13.8672
  55   1.0000      -0.500253       -13.6126
  56   1.0000      -0.492245       -13.3947
  57   1.0000      -0.480918       -13.0864
  58   1.0000      -0.421750       -11.4764
  59   1.0000      -0.418481       -11.3874
  60   1.0000      -0.407057       -11.0766
  61   1.0000      -0.400474       -10.8975
  62   1.0000      -0.389823       -10.6076
  63   1.0000      -0.385888       -10.5005
  64   1.0000      -0.384730       -10.4690
  65   1.0000      -0.348864        -9.4931
  66   1.0000      -0.207681        -5.6513
  67   0.0000       0.010760         0.2928
  68   0.0000       0.019040         0.5181
  69   0.0000       0.032730         0.8906
  70   0.0000       0.037833         1.0295
  71   0.0000       0.042000         1.1429

                 SPIN DOWN ORBITALS
  NO   OCC          E(Eh)            E(eV)
   0   1.0000     -19.329610      -525.9854
   1   1.0000     -19.329334      -525.9779
   2   1.0000     -19.324038      -525.8338
   3   1.0000     -19.310969      -525.4782
   4   1.0000     -14.586891      -396.9295
   5   1.0000     -14.584323      -396.8596
   6   1.0000     -14.571934      -396.5225
   7   1.0000     -14.546897      -395.8412
   8   1.0000     -10.515960      -286.1538
   9   1.0000     -10.508645      -285.9548
  10   1.0000     -10.479893      -285.1724
  11   1.0000     -10.454918      -284.4928
  12   1.0000     -10.433316      -283.9050
  13   1.0000     -10.398097      -282.9466
  14   1.0000     -10.386479      -282.6305
  15   1.0000     -10.382629      -282.5257
  16   1.0000     -10.370677      -282.2005
  17   1.0000     -10.352122      -281.6956
  18   1.0000      -1.228626       -33.4326
  19   1.0000      -1.219996       -33.1978
  20   1.0000      -1.195101       -32.5203
  21   1.0000      -1.178616       -32.0718
  22   1.0000      -1.124120       -30.5889
  23   1.0000      -1.113155       -30.2905
  24   1.0000      -1.071742       -29.1636
  25   1.0000      -1.053450       -28.6658
  26   1.0000      -0.960342       -26.1322
  27   1.0000      -0.949415       -25.8349
  28   1.0000      -0.848185       -23.0803
  29   1.0000      -0.846310       -23.0293
  30   1.0000      -0.811864       -22.0919
  31   1.0000      -0.798731       -21.7346
  32   1.0000      -0.794715       -21.6253
  33   1.0000      -0.780997       -21.2520
  34   1.0000      -0.696880       -18.9631
  35   1.0000      -0.693664       -18.8756
  36   1.0000      -0.688468       -18.7342
  37   1.0000      -0.681912       -18.5558
  38   1.0000      -0.644436       -17.5360
  39   1.0000      -0.632753       -17.2181
  40   1.0000      -0.621884       -16.9223
  41   1.0000      -0.598735       -16.2924
  42   1.0000      -0.591035       -16.0829
  43   1.0000      -0.584199       -15.8969
  44   1.0000      -0.569255       -15.4902
  45   1.0000      -0.562931       -15.3181
  46   1.0000      -0.562080       -15.2950
  47   1.0000      -0.551810       -15.0155
  48   1.0000      -0.543815       -14.7980
  49   1.0000      -0.539118       -14.6702
  50   1.0000      -0.522524       -14.2186
  51   1.0000      -0.518210       -14.1012
  52   1.0000      -0.512809       -13.9542
  53   1.0000      -0.507677       -13.8146
  54   1.0000      -0.501512       -13.6468
  55   1.0000      -0.496142       -13.5007
  56   1.0000      -0.478932       -13.0324
  57   1.0000      -0.446262       -12.1434
  58   1.0000      -0.421345       -11.4654
  59   1.0000      -0.413665       -11.2564
  60   1.0000      -0.404634       -11.0106
  61   1.0000      -0.388690       -10.5768
  62   1.0000      -0.377565       -10.2741
  63   1.0000      -0.376386       -10.2420
  64   1.0000      -0.347852        -9.4655
  65   0.0000      -0.106361        -2.8942
  66   0.0000       0.010289         0.2800
  67   0.0000       0.020055         0.5457
  68   0.0000       0.029912         0.8139
  69   0.0000       0.035570         0.9679

----------------------------------------------------------------------------------------------------
          SPIN FLIP ABSORPTION SPECTRUM VIA TRANSITION ELECTRIC DIPOLE MOMENTS
----------------------------------------------------------------------------------------------------
     Transition      Energy     Energy  Wavelength fosc(D2)      D2        DX        DY        DZ
                      (eV)      (cm-1)    (nm)                 (au**2)    (au)      (au)      (au)
----------------------------------------------------------------------------------------------------
  1-3A  ->  2-3A    4.224572   34073.5   293.5   0.001707430   0.01650   0.05547   0.08842  -0.07484

Dispersion correction             ... done (  0.1 sec)

MULLIKEN ATOMIC CHARGES AND SPIN DENSITIES
------------------------------------------
   0 O :   -0.693840    0.007310
   1 O :   -0.658722   -0.000806
   2 O :   -0.619705    0.005722
   3 O :   -0.667363    0.000593
   4 N :    0.036712    0.037765
   5 N :   -0.008595   -0.006460
   6 N :    0.002963   -0.012295
   7 N :    0.015386   -0.003622
   8 C :    1.306193    0.066925
   9 C :    0.511263    0.009695
  10 C :   -0.354043    0.006679
  11 C :    0.150755   -0.008230
  12 C :   -1.402447   -0.012221
  13 C :   -1.479346    0.006309
  14 C :    0.093604   -0.095348
  15 C :    0.552566   -0.005926
  16 C :    0.454299    0.003931
  17 C :    0.449109   -0.000955
  18 H :    0.136304   -0.010165
  19 H :    0.164035   -0.000912
  20 H :    0.220387    0.008104
  21 H :    0.334790   -0.002953
  22 H :    0.386796    0.009922
  23 H :    0.368733   -0.000185
  24 H :    0.330959    0.000443
  25 H :    0.232264   -0.002058
  26 H :    0.080218   -0.002084
  27 H :    0.021177    0.000632
  28 H :    0.020641    0.001032
  29 H :    0.014908   -0.000843
Sum of atomic charges       :   -0.0000000

LOEWDIN ATOMIC CHARGES AND SPIN DENSITIES
-----------------------------------------
   0 O :    0.072959    0.005918
   1 O :    0.105837   -0.000362
   2 O :    0.110477    0.004351
   3 O :    0.073239    0.000012
   4 N :    0.315171    0.025753
   5 N :    0.277151   -0.003105
   6 N :    0.318672   -0.008322
   7 N :    0.343420   -0.000520
   8 C :   -0.103189    0.008032
   9 C :   -0.145436    0.000514
  10 C :    0.001626   -0.016152
  11 C :    0.052329   -0.001496
  12 C :    0.209793    0.001898
  13 C :    0.181350    0.000287
  14 C :   -0.437802   -0.009242
  15 C :   -0.393231   -0.000301
  16 C :   -0.472464   -0.002570
  17 C :   -0.493810   -0.000395
  18 H :    0.007765   -0.006888
  19 H :    0.038386   -0.000389
  20 H :   -0.011817    0.000918
  21 H :   -0.002885   -0.000519
  22 H :    0.016296    0.001205
  23 H :    0.004225    0.000098
  24 H :   -0.004907   -0.000042
  25 H :   -0.016026    0.000065
  26 H :   -0.010242    0.002496
  27 H :   -0.021156   -0.000220
  28 H :   -0.008648   -0.000978
  29 H :   -0.007081   -0.000045

  Mayer bond orders larger than 0.100000
B(  0-O , 14-C ) :   1.2461 B(  1-O , 15-C ) :   1.4047 B(  2-O , 16-C ) :   1.5746
B(  3-O , 17-C ) :   1.5383 B(  4-N , 10-C ) :   0.8448 B(  4-N , 16-C ) :   0.9392
B(  4-N , 26-H ) :   1.0843 B(  5-N , 11-C ) :   0.9593 B(  5-N , 17-C ) :   1.0344
B(  5-N , 27-H ) :   1.1350 B(  6-N , 14-C ) :   0.9208 B(  6-N , 16-C ) :   0.9304
B(  6-N , 28-H ) :   1.1106 B(  7-N , 15-C ) :   0.9772 B(  7-N , 17-C ) :   0.9253
B(  7-N , 29-H ) :   1.1252 B(  8-C , 10-C ) :   0.4106 B(  8-C , 12-C ) :   0.3257
B(  8-C , 14-C ) :   0.7788 B(  8-C , 18-H ) :  -0.1533 B(  8-C , 21-H ) :  -0.1080
B(  9-C , 11-C ) :   1.1201 B(  9-C , 13-C ) :   0.3533 B(  9-C , 15-C ) :   0.7817
B(  9-C , 24-H ) :  -0.1119 B(  9-C , 25-H ) :  -0.1112 B( 10-C , 12-C ) :  -0.1327
B( 10-C , 18-H ) :   1.2255 B( 11-C , 13-C ) :  -0.2314 B( 11-C , 19-H ) :   1.0973
B( 12-C , 14-C ) :  -0.1045 B( 12-C , 20-H ) :   1.0131 B( 12-C , 21-H ) :   1.0174
B( 12-C , 22-H ) :   0.8510 B( 13-C , 23-H ) :   0.8689 B( 13-C , 24-H ) :   1.0661
B( 13-C , 25-H ) :   0.9942 B( 14-C , 15-C ) :   0.1061

Dispersion correction           -0.060221175
FINAL SINGLE POINT ENERGY      -908.769984605862

DIPOLE MOMENT
-------------

Method             : TDA/CIS
Type of density    : Electron Density
Level              : Relaxed density
State              :   2
Multiplicity       :   3
Irrep              :   0
Energy             :     0.0000000000000000 Eh
Relativity type    :
Basis              : AO
                                X                 Y                 Z
Electronic contribution:     -2.565177380     -10.278086281      -5.974796414
Nuclear contribution   :      1.781896728      11.238943033       8.439704432
                        -----------------------------------------
Total Dipole Moment    :     -0.783280653       0.960856752       2.464908018
                        -----------------------------------------
Magnitude (a.u.)       :      2.759084235
Magnitude (Debye)      :      7.013034791

Rotational constants in cm-1:             0.017648             0.016496             0.012938
Rotational constants in MHz :           529.073573           494.541059           387.870162

                             ****ORCA TERMINATED NORMALLY****
TOTAL RUN TIME: 0 days 0 hours 6 minutes 1 seconds 6 msec
