                         Program Version 6.0.0  -   RELEASE  -
|  1> ! EnGrad wB97M-D3BJ def2-TZVPPD
|  2> %pal nprocs 8 end%pal nprocs 16 end
|  3> %tddft
|  4>  sf true
|  5>  nroots 2 Iroot 2 end
|  6> *xyz 0 3
|  7> O   0.21179683984995 0.92895308138338 -0.00115161174452
|  8> C   0.65422664730742 -0.3429233894679 -0.00021594160068
|  9> C   -0.73286653931236 -0.6354266713674 0.00026291717965
| 10> H   1.21135161832625 -0.64525931653547 0.89239566775958
| 11> H   1.21148991072622 -0.6461078330285 -0.89241809140161
| 12> H   -1.27728180507958 -0.69014460057122 -0.92774857907059
| 13> H   -1.27651667181791 -0.68749127041288 0.92887563887817
| 14> *
| 15>
| 16>                          ****END OF INPUT****

CARTESIAN COORDINATES (ANGSTROEM)
---------------------------------
  O      0.211797    0.928953   -0.001152
  C      0.654227   -0.342923   -0.000216
  C     -0.732867   -0.635427    0.000263
  H      1.211352   -0.645259    0.892396
  H      1.211490   -0.646108   -0.892418
  H     -1.277282   -0.690145   -0.927749
  H     -1.276517   -0.687491    0.928876

 Total Charge           Charge          ....    0
 Multiplicity           Mult            ....    3
 Number of Electrons    NEL             ....   24
 Basis Dimension        Dim             ....  182

ORBITAL ENERGIES
----------------
                 SPIN UP ORBITALS
  NO   OCC          E(Eh)            E(eV)
   0   1.0000     -19.419431      -528.4296
   1   1.0000     -10.408141      -283.2199
   2   1.0000     -10.334673      -281.2208
   3   1.0000      -1.230000       -33.4700
   4   1.0000      -0.862245       -23.4629
   5   1.0000      -0.745944       -20.2982
   6   1.0000      -0.652757       -17.7624
   7   1.0000      -0.616425       -16.7738
   8   1.0000      -0.549724       -14.9587
   9   1.0000      -0.501896       -13.6573
  10   1.0000      -0.462452       -12.5840
  11   1.0000      -0.447533       -12.1780
  12   1.0000      -0.242026        -6.5858
  13   0.0000       0.040338         1.0977
  14   0.0000       0.063649         1.7320
  15   0.0000       0.072266         1.9665
  16   0.0000       0.085574         2.3286
  17   0.0000       0.115341         3.1386

                 SPIN DOWN ORBITALS
  NO   OCC          E(Eh)            E(eV)
   0   1.0000     -19.389266      -527.6087
   1   1.0000     -10.409165      -283.2478
   2   1.0000     -10.322373      -280.8861
   3   1.0000      -1.166942       -31.7541
   4   1.0000      -0.827707       -22.5230
   5   1.0000      -0.725650       -19.7460
   6   1.0000      -0.606924       -16.5153
   7   1.0000      -0.579628       -15.7725
   8   1.0000      -0.523000       -14.2316
   9   1.0000      -0.471443       -12.8286
  10   1.0000      -0.398210       -10.8358
  11   0.0000      -0.082741        -2.2515
  12   0.0000       0.037878         1.0307
  13   0.0000       0.045584         1.2404
  14   0.0000       0.063220         1.7203
  15   0.0000       0.070075         1.9068

----------------------------------------------------------------------------------------------------
          SPIN FLIP ABSORPTION SPECTRUM VIA TRANSITION ELECTRIC DIPOLE MOMENTS
----------------------------------------------------------------------------------------------------
     Transition      Energy     Energy  Wavelength fosc(D2)      D2        DX        DY        DZ
                      (eV)      (cm-1)    (nm)                 (au**2)    (au)      (au)      (au)
----------------------------------------------------------------------------------------------------
  1-3A  ->  2-3A    3.480329   28070.8   356.2   0.001577345   0.01850   0.00011   0.00039   0.13601

Dispersion correction             ... done (  0.0 sec)

MULLIKEN ATOMIC CHARGES AND SPIN DENSITIES
------------------------------------------
   0 O :   -0.291719    0.670013
   1 C :    0.133922    0.236405
   2 C :   -0.434732   -0.654075
   3 H :    0.207318    0.024512
   4 H :    0.207214    0.024502
   5 H :    0.088911   -0.150708
   6 H :    0.089087   -0.150649
Sum of atomic charges       :    0.0000000

LOEWDIN ATOMIC CHARGES AND SPIN DENSITIES
-----------------------------------------
   0 O :    0.110199    0.630501
   1 C :   -0.199733    0.049546
   2 C :    0.153295   -0.549840
   3 H :    0.038482    0.025464
   4 H :    0.038509    0.025554
   5 H :   -0.070352   -0.090602
   6 H :   -0.070400   -0.090621

  Mayer bond orders larger than 0.100000
B(  0-O ,  1-C ) :   0.8167 B(  0-O ,  2-C ) :   0.3570 B(  1-C ,  2-C ) :   0.6001
B(  1-C ,  3-H ) :   0.9869 B(  1-C ,  4-H ) :   0.9866 B(  2-C ,  5-H ) :   1.1404
B(  2-C ,  6-H ) :   1.1405

Dispersion correction           -0.005441618
FINAL SINGLE POINT ENERGY      -153.698879258423

DIPOLE MOMENT
-------------

Method             : TDA/CIS
Type of density    : Electron Density
Level              : Relaxed density
State              :   2
Multiplicity       :   3
Irrep              :   0
Energy             :     0.0000000000000000 Eh
Relativity type    :
Basis              : AO
                                X                 Y                 Z
Electronic contribution:      0.859250639       2.445034624      -0.002779901
Nuclear contribution   :     -0.317454043      -2.526262066       0.002451542
                        -----------------------------------------
Total Dipole Moment    :      0.541796597      -0.081227442      -0.000328360
                        -----------------------------------------
Magnitude (a.u.)       :      0.547851766
Magnitude (Debye)      :      1.392528523

Rotational constants in cm-1:             0.989408             0.562993             0.418352
Rotational constants in MHz :         29661.719018         16878.104378         12541.887366

                             ****ORCA TERMINATED NORMALLY****
TOTAL RUN TIME: 0 days 0 hours 0 minutes 18 seconds 116 msec
