                         Program Version 6.0.0  -   RELEASE  -
|  1> ! Opt wB97M-D3BJ def2-TZVPPD
|  2> %pal nprocs 8 end %pal nprocs 64 end
|  3> %geom
|  4> Constraints
|  5>     {A 2 1 0 60.0 C }
|  6> end
|  7> MaxIter 200
|  8> end
|  9> *xyz 0 1
| 10> O   0.03326758922961781 0.8343749505940917 0.0
| 11> C   0.7509 -0.4065 0.0
| 12> C   -0.7502 -0.4076 0.0
| 13> H   1.2625 -0.6786 0.9136
| 14> H   1.2625 -0.6787 -0.9136
| 15> H   -1.2614 -0.6806 -0.9136
| 16> H   -1.2614 -0.6805 0.9136
| 17> *
| 18>
| 19>                          ****END OF INPUT****
 Total Charge           Charge          ....    0
 Multiplicity           Mult            ....    1
 Number of Electrons    NEL             ....   24
Dispersion correction           -0.005198428
FINAL SINGLE POINT ENERGY      -153.886399287151
Dispersion correction             ... done (  0.0 sec)
Dispersion correction           -0.005218182
FINAL SINGLE POINT ENERGY      -153.889265157947
Dispersion correction             ... done (  0.1 sec)
Dispersion correction           -0.005228555
FINAL SINGLE POINT ENERGY      -153.889580909978
Dispersion correction             ... done (  0.1 sec)
Dispersion correction           -0.005227554
FINAL SINGLE POINT ENERGY      -153.889587393427
Dispersion correction             ... done (  0.1 sec)
Dispersion correction           -0.005227370
FINAL SINGLE POINT ENERGY      -153.889589096915
Dispersion correction             ... done (  0.1 sec)
                    ***********************HURRAY********************

CARTESIAN COORDINATES (ANGSTROEM)
---------------------------------
  O      0.017280    0.789829   -0.000044
  C      0.731356   -0.433757    0.000121
  C     -0.725128   -0.440558   -0.000122
  H      1.264363   -0.657449    0.916168
  H      1.264161   -0.657516   -0.916056
  H     -1.258045   -0.649376   -0.918271
  H     -1.257820   -0.649297    0.918203

 Multiplicity           Mult            ....    1
 Number of Electrons    NEL             ....   24
 Basis Dimension        Dim             ....  182

ORBITAL ENERGIES
----------------

  NO   OCC          E(Eh)            E(eV)
   0   2.0000     -19.351959      -526.5936
   1   2.0000     -10.399607      -282.9877
   2   2.0000     -10.399016      -282.9716
   3   2.0000      -1.208127       -32.8748
   4   2.0000      -0.805370       -21.9152
   5   2.0000      -0.756590       -20.5879
   6   2.0000      -0.631649       -17.1880
   7   2.0000      -0.595333       -16.1998
   8   2.0000      -0.504198       -13.7199
   9   2.0000      -0.490403       -13.3446
  10   2.0000      -0.424189       -11.5428
  11   2.0000      -0.385534       -10.4909
  12   0.0000       0.042635         1.1602
  13   0.0000       0.058745         1.5985
  14   0.0000       0.075254         2.0478
  15   0.0000       0.077963         2.1215
  16   0.0000       0.114031         3.1030

MULLIKEN ATOMIC CHARGES
-----------------------
   0 O :   -0.382309
   1 C :   -0.165146
   2 C :   -0.176081
   3 H :    0.181246
   4 H :    0.181180
   5 H :    0.180583
   6 H :    0.180527
Sum of atomic charges:    0.0000000

LOEWDIN ATOMIC CHARGES
----------------------
   0 O :   -0.031396
   1 C :   -0.020377
   2 C :    0.007180
   3 H :    0.012128
   4 H :    0.012123
   5 H :    0.010174
   6 H :    0.010169

  Mayer bond orders larger than 0.100000
B(  0-O ,  1-C ) :   0.8208 B(  0-O ,  2-C ) :   0.8316 B(  1-C ,  2-C ) :   0.8198
B(  1-C ,  3-H ) :   1.0185 B(  1-C ,  4-H ) :   1.0186 B(  2-C ,  5-H ) :   1.0143
B(  2-C ,  6-H ) :   1.0144

Dispersion correction           -0.005227466
FINAL SINGLE POINT ENERGY      -153.889589270693

DIPOLE MOMENT
-------------

Method             : SCF
Type of density    : Electron Density
Multiplicity       :   1
Irrep              :   0
Energy             :  -153.8843618045710002 Eh
Relativity type    :
Basis              : AO
                                X                 Y                 Z
Electronic contribution:      0.007616546       1.637744595      -0.000071270
Nuclear contribution   :     -0.019001286      -2.397657210       0.000098870
                        -----------------------------------------
Total Dipole Moment    :     -0.011384741      -0.759912615       0.000027599
                        -----------------------------------------
Magnitude (a.u.)       :      0.759997892
Magnitude (Debye)      :      1.931761121

Rotational constants in cm-1:             0.857351             0.747146             0.475645
Rotational constants in MHz :         25702.749968         22398.868589         14259.470421

                             ****ORCA TERMINATED NORMALLY****
TOTAL RUN TIME: 0 days 0 hours 1 minutes 15 seconds 774 msec
