                         Program Version 6.0.0  -   RELEASE  -
|  1> ! Engrad wB97M-D3BJ def2-TZVPPD
|  2> %pal nprocs 8 end%pal nprocs 16 end
|  3> %tddft nroots 2 Iroot 2
|  4>  sf true
|  5> end
|  6> *xyz 0 3
|  7> O   0.99561363297406 1.17158907505222 0.0927846530848
|  8> C   0.88721283543079 0.03957795329939 -0.31268700251503
|  9> C   -0.31212664316167 -0.71314041746958 0.21424687157662
| 10> H   -0.00082018610902 -1.61485349818655 0.74494214585241
| 11> H   1.59893175408743 -0.42391058964326 -1.01275287084294
| 12> H   -0.95356492281263 -1.04268030277758 -0.60525531009471
| 13> H   -0.85852112865554 -0.05510232720766 0.87872151293885
| 14> *
| 15>
| 16>                          ****END OF INPUT****

CARTESIAN COORDINATES (ANGSTROEM)
---------------------------------
  O      0.995614    1.171589    0.092785
  C      0.887213    0.039578   -0.312687
  C     -0.312127   -0.713140    0.214247
  H     -0.000820   -1.614853    0.744942
  H      1.598932   -0.423911   -1.012753
  H     -0.953565   -1.042680   -0.605255
  H     -0.858521   -0.055102    0.878722

 Total Charge           Charge          ....    0
 Multiplicity           Mult            ....    3
 Number of Electrons    NEL             ....   24
 Basis Dimension        Dim             ....  182

ORBITAL ENERGIES
----------------
                 SPIN UP ORBITALS
  NO   OCC          E(Eh)            E(eV)
   0   1.0000     -19.411068      -528.2020
   1   1.0000     -10.380515      -282.4682
   2   1.0000     -10.366245      -282.0799
   3   1.0000      -1.246987       -33.9322
   4   1.0000      -0.876623       -23.8541
   5   1.0000      -0.720884       -19.6162
   6   1.0000      -0.638611       -17.3775
   7   1.0000      -0.582695       -15.8559
   8   1.0000      -0.582284       -15.8447
   9   1.0000      -0.514166       -13.9912
  10   1.0000      -0.510443       -13.8899
  11   1.0000      -0.436459       -11.8766
  12   1.0000      -0.224217        -6.1013
  13   0.0000       0.042601         1.1592
  14   0.0000       0.060486         1.6459
  15   0.0000       0.079515         2.1637
  16   0.0000       0.088440         2.4066
  17   0.0000       0.108749         2.9592

                 SPIN DOWN ORBITALS
  NO   OCC          E(Eh)            E(eV)
   0   1.0000     -19.383009      -527.4385
   1   1.0000     -10.370127      -282.1855
   2   1.0000     -10.363858      -282.0149
   3   1.0000      -1.188286       -32.3349
   4   1.0000      -0.856914       -23.3178
   5   1.0000      -0.677603       -18.4385
   6   1.0000      -0.585502       -15.9323
   7   1.0000      -0.539966       -14.6932
   8   1.0000      -0.532932       -14.5018
   9   1.0000      -0.501950       -13.6587
  10   1.0000      -0.469664       -12.7802
  11   0.0000      -0.079876        -2.1735
  12   0.0000       0.042421         1.1543
  13   0.0000       0.060135         1.6363
  14   0.0000       0.079880         2.1736
  15   0.0000       0.082180         2.2362

----------------------------------------------------------------------------------------------------
          SPIN FLIP ABSORPTION SPECTRUM VIA TRANSITION ELECTRIC DIPOLE MOMENTS
----------------------------------------------------------------------------------------------------
     Transition      Energy     Energy  Wavelength fosc(D2)      D2        DX        DY        DZ
                      (eV)      (cm-1)    (nm)                 (au**2)    (au)      (au)      (au)
----------------------------------------------------------------------------------------------------
  1-3A  ->  2-3A    4.397268   35466.4   282.0   0.000001155   0.00001  -0.00182   0.00108  -0.00250

Dispersion correction             ... done (  0.0 sec)

MULLIKEN ATOMIC CHARGES AND SPIN DENSITIES
------------------------------------------
   0 O :   -0.243783    0.618658
   1 C :    0.194350   -0.644909
   2 C :   -0.684908    0.123207
   3 H :    0.191019   -0.041124
   4 H :    0.117086   -0.014023
   5 H :    0.191326   -0.039862
   6 H :    0.234909   -0.001947
Sum of atomic charges       :    0.0000000

LOEWDIN ATOMIC CHARGES AND SPIN DENSITIES
-----------------------------------------
   0 O :    0.153936    0.429587
   1 C :   -0.243249   -0.379585
   2 C :    0.142932    0.003459
   3 H :   -0.016625   -0.013582
   4 H :   -0.005495   -0.029096
   5 H :   -0.016578   -0.013481
   6 H :   -0.014922    0.002697

  Mayer bond orders larger than 0.100000
B(  0-O ,  1-C ) :   1.2558 B(  1-C ,  2-C ) :   0.6731 B(  1-C ,  4-H ) :   1.0245
B(  2-C ,  3-H ) :   0.9962 B(  2-C ,  5-H ) :   0.9953 B(  2-C ,  6-H ) :   0.9513

Dispersion correction           -0.005554405
FINAL SINGLE POINT ENERGY      -153.757859585656

DIPOLE MOMENT
-------------

Method             : TDA/CIS
Type of density    : Electron Density
Level              : Relaxed density
State              :   2
Multiplicity       :   3
Irrep              :   0
Energy             :     0.0000000000000000 Eh
Relativity type    :
Basis              : AO
                                X                 Y                 Z
Electronic contribution:      1.881253159       3.064954284      -0.023731989
Nuclear contribution   :     -2.120568560      -3.566076011      -0.019645403
                        -----------------------------------------
Total Dipole Moment    :     -0.239315401      -0.501121727      -0.043377391
                        -----------------------------------------
Magnitude (a.u.)       :      0.557024636
Magnitude (Debye)      :      1.415844105

Rotational constants in cm-1:             1.670927             0.367416             0.318743
Rotational constants in MHz :         50093.138221         11014.857065          9555.688775

                             ****ORCA TERMINATED NORMALLY****
TOTAL RUN TIME: 0 days 0 hours 0 minutes 16 seconds 482 msec
