                         Program Version 6.0.0  -   RELEASE  -
|  1> ! Engrad def2-TZVPPD wB97M-D3BJ
|  2> %pal nprocs 8 end%pal nprocs 64 end
|  3> %tddft
|  4>  Iroot 1 Nroots 3
|  5> sf true
|  6> end
|  7> *xyz 0 3
|  8> O   3.59802528 -0.83241285 -0.34475398
|  9> O   -1.21910857 1.33320336 -2.66156529
| 10> O   -0.46473399 -2.85599296 -0.50665121
| 11> O   -3.43445452 -0.62491297 0.84744064
| 12> N   0.04469243 -1.35104403 1.10505518
| 13> N   -1.75729276 0.7671198 1.2353298
| 14> N   1.42188771 -1.58698478 -0.74800497
| 15> N   -2.17239868 0.09957506 -0.96479527
| 16> C   1.88201425 0.04196343 0.97659086
| 17> C   -0.31538924 1.59583177 -0.52081579
| 18> C   0.52227048 -0.08279254 1.39346657
| 19> C   -0.46390592 1.20278432 0.89224611
| 20> C   2.8264412 1.08299375 1.52871031
| 21> C   0.61793007 2.59477324 -1.1251601
| 22> C   2.41627549 -0.80556298 -0.1311929
| 23> C   -1.20477221 0.92926511 -1.51756854
| 24> C   0.2285486 -1.97793923 -0.11629888
| 25> C   -2.50282423 0.00327175 0.43271617
| 26> H   0.50229036 -0.01261796 2.4710018
| 27> H   -0.18871414 1.98231878 1.58490256
| 28> H   3.88202225 0.9265378 1.24888354
| 29> H   2.59078917 2.00815999 1.01725023
| 30> H   2.69009902 1.07254113 2.59484322
| 31> H   0.70160588 2.42905375 -2.17255183
| 32> H   0.17942818 3.56073877 -0.96497484
| 33> H   1.62286812 2.59257528 -0.65931823
| 34> H   -0.79695639 -1.51141758 1.61160131
| 35> H   -1.86295414 0.54163197 2.21244875
| 36> H   1.72524066 -2.18837546 -1.44460821
| 37> H   -2.58514272 -0.73415068 -1.39257751
| 38> *
| 39>
| 40>                          ****END OF INPUT****

CARTESIAN COORDINATES (ANGSTROEM)
---------------------------------
  O      3.598025   -0.832413   -0.344754
  O     -1.219109    1.333203   -2.661565
  O     -0.464734   -2.855993   -0.506651
  O     -3.434455   -0.624913    0.847441
  N      0.044692   -1.351044    1.105055
  N     -1.757293    0.767120    1.235330
  N      1.421888   -1.586985   -0.748005
  N     -2.172399    0.099575   -0.964795
  C      1.882014    0.041963    0.976591
  C     -0.315389    1.595832   -0.520816
  C      0.522270   -0.082793    1.393467
  C     -0.463906    1.202784    0.892246
  C      2.826441    1.082994    1.528710
  C      0.617930    2.594773   -1.125160
  C      2.416275   -0.805563   -0.131193
  C     -1.204772    0.929265   -1.517569
  C      0.228549   -1.977939   -0.116299
  C     -2.502824    0.003272    0.432716
  H      0.502290   -0.012618    2.471002
  H     -0.188714    1.982319    1.584903
  H      3.882022    0.926538    1.248884
  H      2.590789    2.008160    1.017250
  H      2.690099    1.072541    2.594843
  H      0.701606    2.429054   -2.172552
  H      0.179428    3.560739   -0.964975
  H      1.622868    2.592575   -0.659318
  H     -0.796956   -1.511418    1.611601
  H     -1.862954    0.541632    2.212449
  H      1.725241   -2.188375   -1.444608
  H     -2.585143   -0.734151   -1.392578

 Total Charge           Charge          ....    0
 Multiplicity           Mult            ....    3
 Number of Electrons    NEL             ....  132
 Basis Dimension        Dim             ....  882

ORBITAL ENERGIES
----------------
                 SPIN UP ORBITALS
  NO   OCC          E(Eh)            E(eV)
   0   1.0000     -19.341083      -526.2976
   1   1.0000     -19.333267      -526.0849
   2   1.0000     -19.333176      -526.0825
   3   1.0000     -19.325546      -525.8748
   4   1.0000     -14.565393      -396.3445
   5   1.0000     -14.565091      -396.3363
   6   1.0000     -14.561645      -396.2425
   7   1.0000     -14.561319      -396.2336
   8   1.0000     -10.514109      -286.1035
   9   1.0000     -10.506017      -285.8833
  10   1.0000     -10.485568      -285.3268
  11   1.0000     -10.482393      -285.2404
  12   1.0000     -10.443417      -284.1798
  13   1.0000     -10.435477      -283.9638
  14   1.0000     -10.416223      -283.4398
  15   1.0000     -10.408135      -283.2198
  16   1.0000     -10.371563      -282.2246
  17   1.0000     -10.366240      -282.0797
  18   1.0000      -1.236621       -33.6502
  19   1.0000      -1.227874       -33.4121
  20   1.0000      -1.211202       -32.9585
  21   1.0000      -1.199876       -32.6503
  22   1.0000      -1.137839       -30.9622
  23   1.0000      -1.113908       -30.3110
  24   1.0000      -1.074364       -29.2349
  25   1.0000      -1.061083       -28.8735
  26   1.0000      -0.975208       -26.5368
  27   1.0000      -0.950502       -25.8645
  28   1.0000      -0.883354       -24.0373
  29   1.0000      -0.846902       -23.0454
  30   1.0000      -0.824757       -22.4428
  31   1.0000      -0.806839       -21.9552
  32   1.0000      -0.789850       -21.4929
  33   1.0000      -0.782348       -21.2888
  34   1.0000      -0.701125       -19.0786
  35   1.0000      -0.694233       -18.8910
  36   1.0000      -0.690385       -18.7863
  37   1.0000      -0.677125       -18.4255
  38   1.0000      -0.660204       -17.9651
  39   1.0000      -0.652313       -17.7503
  40   1.0000      -0.623837       -16.9755
  41   1.0000      -0.605489       -16.4762
  42   1.0000      -0.596192       -16.2232
  43   1.0000      -0.591537       -16.0965
  44   1.0000      -0.584422       -15.9029
  45   1.0000      -0.574105       -15.6222
  46   1.0000      -0.570307       -15.5188
  47   1.0000      -0.568247       -15.4628
  48   1.0000      -0.560103       -15.2412
  49   1.0000      -0.558949       -15.2098
  50   1.0000      -0.555061       -15.1040
  51   1.0000      -0.537442       -14.6245
  52   1.0000      -0.532729       -14.4963
  53   1.0000      -0.523185       -14.2366
  54   1.0000      -0.520469       -14.1627
  55   1.0000      -0.504570       -13.7300
  56   1.0000      -0.489822       -13.3287
  57   1.0000      -0.433504       -11.7962
  58   1.0000      -0.422294       -11.4912
  59   1.0000      -0.417889       -11.3713
  60   1.0000      -0.410999       -11.1839
  61   1.0000      -0.406074       -11.0498
  62   1.0000      -0.401523       -10.9260
  63   1.0000      -0.393195       -10.6994
  64   1.0000      -0.390509       -10.6263
  65   1.0000      -0.340791        -9.2734
  66   1.0000      -0.310214        -8.4414
  67   0.0000       0.005887         0.1602
  68   0.0000       0.028828         0.7845
  69   0.0000       0.033687         0.9167
  70   0.0000       0.036874         1.0034
  71   0.0000       0.054072         1.4714

                 SPIN DOWN ORBITALS
  NO   OCC          E(Eh)            E(eV)
   0   1.0000     -19.337099      -526.1892
   1   1.0000     -19.332998      -526.0776
   2   1.0000     -19.329314      -525.9774
   3   1.0000     -19.325432      -525.8718
   4   1.0000     -14.564905      -396.3312
   5   1.0000     -14.564539      -396.3213
   6   1.0000     -14.561067      -396.2268
   7   1.0000     -14.561039      -396.2260
   8   1.0000     -10.514149      -286.1045
   9   1.0000     -10.506067      -285.8846
  10   1.0000     -10.486514      -285.3525
  11   1.0000     -10.483460      -285.2694
  12   1.0000     -10.442684      -284.1599
  13   1.0000     -10.434625      -283.9406
  14   1.0000     -10.404987      -283.1341
  15   1.0000     -10.396848      -282.9126
  16   1.0000     -10.372103      -282.2393
  17   1.0000     -10.366709      -282.0925
  18   1.0000      -1.235725       -33.6258
  19   1.0000      -1.227087       -33.3907
  20   1.0000      -1.205787       -32.8111
  21   1.0000      -1.194345       -32.4998
  22   1.0000      -1.135471       -30.8977
  23   1.0000      -1.111878       -30.2557
  24   1.0000      -1.072755       -29.1911
  25   1.0000      -1.059368       -28.8269
  26   1.0000      -0.961292       -26.1581
  27   1.0000      -0.933585       -25.4041
  28   1.0000      -0.878263       -23.8988
  29   1.0000      -0.843134       -22.9428
  30   1.0000      -0.817112       -22.2348
  31   1.0000      -0.801547       -21.8112
  32   1.0000      -0.787649       -21.4330
  33   1.0000      -0.780728       -21.2447
  34   1.0000      -0.695861       -18.9353
  35   1.0000      -0.687997       -18.7213
  36   1.0000      -0.683368       -18.5954
  37   1.0000      -0.669799       -18.2262
  38   1.0000      -0.650311       -17.6959
  39   1.0000      -0.648928       -17.6582
  40   1.0000      -0.619253       -16.8507
  41   1.0000      -0.599363       -16.3095
  42   1.0000      -0.591189       -16.0871
  43   1.0000      -0.587663       -15.9911
  44   1.0000      -0.575531       -15.6610
  45   1.0000      -0.570571       -15.5260
  46   1.0000      -0.565956       -15.4004
  47   1.0000      -0.560473       -15.2512
  48   1.0000      -0.554419       -15.0865
  49   1.0000      -0.550514       -14.9802
  50   1.0000      -0.543881       -14.7997
  51   1.0000      -0.526636       -14.3305
  52   1.0000      -0.524337       -14.2679
  53   1.0000      -0.514099       -13.9893
  54   1.0000      -0.511577       -13.9207
  55   1.0000      -0.500755       -13.6262
  56   1.0000      -0.485264       -13.2047
  57   1.0000      -0.429960       -11.6998
  58   1.0000      -0.418071       -11.3763
  59   1.0000      -0.410213       -11.1625
  60   1.0000      -0.404104       -10.9962
  61   1.0000      -0.395031       -10.7493
  62   1.0000      -0.393203       -10.6996
  63   1.0000      -0.386761       -10.5243
  64   1.0000      -0.374791       -10.1986
  65   0.0000      -0.058989        -1.6052
  66   0.0000      -0.041001        -1.1157
  67   0.0000       0.005466         0.1487
  68   0.0000       0.028570         0.7774
  69   0.0000       0.033671         0.9162

----------------------------------------------------------------------------------------------------
          SPIN FLIP ABSORPTION SPECTRUM VIA TRANSITION ELECTRIC DIPOLE MOMENTS
----------------------------------------------------------------------------------------------------
     Transition      Energy     Energy  Wavelength fosc(D2)      D2        DX        DY        DZ
                      (eV)      (cm-1)    (nm)                 (au**2)    (au)      (au)      (au)
----------------------------------------------------------------------------------------------------
  1-3A  ->  2-3A    0.122355     986.9  10133.1   0.000065724   0.02193   0.12699  -0.06234   0.04374
  1-3A  ->  3-1A    2.341783   18887.8   529.4   0.076784611   1.33835   0.72003  -0.60655   0.67231

Dispersion correction             ... done (  0.1 sec)

MULLIKEN ATOMIC CHARGES AND SPIN DENSITIES
------------------------------------------
   0 O :   -0.624413    0.015027
   1 O :   -0.633996   -0.015523
   2 O :   -0.603815   -0.000496
   3 O :   -0.612603    0.000035
   4 N :   -0.198486   -0.006637
   5 N :   -0.326928   -0.005722
   6 N :    0.090627    0.000317
   7 N :   -0.005746   -0.006126
   8 C :    0.033423    0.344974
   9 C :    0.228104    0.340888
  10 C :    0.242924   -0.193658
  11 C :    0.389893   -0.284230
  12 C :   -1.203970   -0.010463
  13 C :   -1.327500    0.005540
  14 C :    0.175752   -0.095489
  15 C :    0.367136   -0.140069
  16 C :    0.340361    0.001416
  17 C :    0.333390    0.012857
  18 H :    0.703125    0.005096
  19 H :    0.430055   -0.015090
  20 H :    0.295840   -0.000485
  21 H :    0.297254    0.011942
  22 H :    0.373696    0.010722
  23 H :    0.309468   -0.002696
  24 H :    0.327678    0.015210
  25 H :    0.287936    0.007620
  26 H :    0.098115   -0.000358
  27 H :    0.107911    0.002243
  28 H :    0.016629    0.001318
  29 H :    0.088141    0.001834
Sum of atomic charges       :    0.0000000

LOEWDIN ATOMIC CHARGES AND SPIN DENSITIES
-----------------------------------------
   0 O :    0.099113    0.014083
   1 O :    0.082742   -0.013651
   2 O :    0.128274   -0.000434
   3 O :    0.105506   -0.000111
   4 N :    0.285551   -0.001850
   5 N :    0.249148   -0.001329
   6 N :    0.365463   -0.000142
   7 N :    0.332803   -0.005224
   8 C :   -0.031248    0.066207
   9 C :    0.001242   -0.042151
  10 C :   -0.135739   -0.004322
  11 C :   -0.071042   -0.008116
  12 C :    0.208905    0.008435
  13 C :    0.212362   -0.005928
  14 C :   -0.377108    0.006142
  15 C :   -0.403235   -0.010727
  16 C :   -0.466562   -0.001022
  17 C :   -0.503928   -0.000526
  18 H :    0.052862   -0.000285
  19 H :    0.049591   -0.001042
  20 H :    0.010419    0.000341
  21 H :   -0.029124    0.003391
  22 H :   -0.011062    0.001174
  23 H :   -0.023143   -0.000065
  24 H :    0.000952   -0.001897
  25 H :   -0.002739   -0.000463
  26 H :   -0.044965   -0.000077
  27 H :   -0.016668   -0.000033
  28 H :   -0.064047    0.000035
  29 H :   -0.004321   -0.000412

  Mayer bond orders larger than 0.100000
B(  0-O , 14-C ) :   1.4881 B(  1-O ,  9-C ) :   0.1180 B(  1-O , 15-C ) :   1.3123
B(  2-O , 16-C ) :   1.5909 B(  3-O , 17-C ) :   1.5781 B(  4-N ,  8-C ) :   0.2737
B(  4-N , 10-C ) :   0.2051 B(  4-N , 16-C ) :   0.9644 B(  4-N , 26-H ) :   1.0475
B(  5-N ,  9-C ) :   0.1647 B(  5-N , 10-C ) :   0.1112 B(  5-N , 17-C ) :   1.1372
B(  5-N , 27-H ) :   1.0634 B(  6-N , 10-C ) :   0.1154 B(  6-N , 14-C ) :   1.0270
B(  6-N , 16-C ) :   0.9352 B(  6-N , 28-H ) :   1.0884 B(  7-N , 11-C ) :   0.1259
B(  7-N , 15-C ) :   0.8445 B(  7-N , 17-C ) :   0.8804 B(  7-N , 29-H ) :   1.0597
B(  8-C ,  9-C ) :   0.1850 B(  8-C , 10-C ) :   0.5075 B(  8-C , 11-C ) :   0.3447
B(  8-C , 12-C ) :   0.4950 B(  8-C , 14-C ) :   0.8067 B(  8-C , 16-C ) :   0.1204
B(  8-C , 18-H ) :  -0.2223 B(  9-C , 10-C ) :   0.1286 B(  9-C , 11-C ) :   0.3204
B(  9-C , 13-C ) :   0.5806 B(  9-C , 15-C ) :   0.8329 B(  9-C , 19-H ) :  -0.1507
B(  9-C , 23-H ) :  -0.1013 B( 10-C , 11-C ) :   0.3032 B( 10-C , 16-C ) :  -0.1598
B( 10-C , 18-H ) :   0.7013 B( 11-C , 13-C ) :  -0.1368 B( 11-C , 15-C ) :   0.1216
B( 11-C , 17-C ) :  -0.2103 B( 11-C , 18-H ) :  -0.1191 B( 11-C , 19-H ) :   0.9469
B( 12-C , 20-H ) :   1.0129 B( 12-C , 21-H ) :   0.8352 B( 12-C , 22-H ) :   0.9741
B( 13-C , 23-H ) :   1.0210 B( 13-C , 24-H ) :   0.8931 B( 13-C , 25-H ) :   0.9301
B( 15-C , 17-C ) :  -0.1203

Dispersion correction           -0.058848606
FINAL SINGLE POINT ENERGY      -908.767386340225

DIPOLE MOMENT
-------------

Method             : TDA/CIS
Type of density    : Electron Density
Level              : Relaxed density
State              :   1
Multiplicity       :   3
Irrep              :   0
Energy             :     0.0000000000000000 Eh
Relativity type    :
Basis              : AO
                                X                 Y                 Z
Electronic contribution:     -7.091403633      -9.078347965      -4.001731297
Nuclear contribution   :      7.999121195      10.440907295       5.959849727
                        -----------------------------------------
Total Dipole Moment    :      0.907717561       1.362559329       1.958118430
                        -----------------------------------------
Magnitude (a.u.)       :      2.552400220
Magnitude (Debye)      :      6.487685774

Rotational constants in cm-1:             0.020323             0.013359             0.011723
Rotational constants in MHz :           609.281846           400.502469           351.437452

                             ****ORCA TERMINATED NORMALLY****
TOTAL RUN TIME: 0 days 0 hours 4 minutes 49 seconds 390 msec
