                         Program Version 6.0.0  -   RELEASE  -
|  1> ! Engrad def2-TZVPPD wB97M-D3BJ
|  2> %pal nprocs 8 end%pal nprocs 64 end
|  3> %tddft
|  4>  Iroot 2 Nroots 3
|  5> sf true
|  6> end
|  7> *xyz 0 3
|  8> O   3.04172868 -0.70567368 -1.64265221
|  9> O   -1.43336739 1.42072593 -2.1742825
| 10> O   -0.93066275 -2.6382192 -0.72638592
| 11> O   -3.49594609 0.08592282 1.64822937
| 12> N   0.02296854 -1.43807208 0.8740113
| 13> N   -1.32149506 0.7596957 1.86848754
| 14> N   1.04861581 -1.7131294 -1.20774108
| 15> N   -2.29359851 0.49878189 -0.20386329
| 16> C   2.11777892 -0.28122886 0.40989556
| 17> C   -0.11066797 1.4121005 -0.25080405
| 18> C   0.84566181 -0.26203572 1.20346089
| 19> C   -0.0543063 1.00373389 1.16615486
| 20> C   3.33637936 0.4699083 0.68437365
| 21> C   0.98816819 2.15180506 -0.81352739
| 22> C   2.1238844 -0.98917331 -0.81828272
| 23> C   -1.28712947 1.1253009 -0.94770706
| 24> C   -0.01570768 -1.95874287 -0.40092959
| 25> C   -2.40107817 0.390827 1.18760743
| 26> H   1.15258366 -0.2957586 2.27617568
| 27> H   0.54909134 1.69151522 1.83705673
| 28> H   3.71466626 0.86695159 -0.23944754
| 29> H   3.29792794 1.20202496 1.44619899
| 30> H   4.0662442 -0.25796602 1.03327652
| 31> H   0.68165642 2.92250642 -1.52999051
| 32> H   1.75452338 2.5665284 -0.17066369
| 33> H   1.51057449 1.42454571 -1.49800554
| 34> H   -0.72941512 -1.66322987 1.42251838
| 35> H   -1.43880009 1.05130131 2.82498179
| 36> H   0.95577982 -2.12857776 -2.07512649
| 37> H   -3.10784345 0.21737857 -0.67055528
| 38> *
| 39>
| 40>                          ****END OF INPUT****

CARTESIAN COORDINATES (ANGSTROEM)
---------------------------------
  O      3.041729   -0.705674   -1.642652
  O     -1.433367    1.420726   -2.174282
  O     -0.930663   -2.638219   -0.726386
  O     -3.495946    0.085923    1.648229
  N      0.022969   -1.438072    0.874011
  N     -1.321495    0.759696    1.868488
  N      1.048616   -1.713129   -1.207741
  N     -2.293599    0.498782   -0.203863
  C      2.117779   -0.281229    0.409896
  C     -0.110668    1.412100   -0.250804
  C      0.845662   -0.262036    1.203461
  C     -0.054306    1.003734    1.166155
  C      3.336379    0.469908    0.684374
  C      0.988168    2.151805   -0.813527
  C      2.123884   -0.989173   -0.818283
  C     -1.287129    1.125301   -0.947707
  C     -0.015708   -1.958743   -0.400930
  C     -2.401078    0.390827    1.187607
  H      1.152584   -0.295759    2.276176
  H      0.549091    1.691515    1.837057
  H      3.714666    0.866952   -0.239448
  H      3.297928    1.202025    1.446199
  H      4.066244   -0.257966    1.033277
  H      0.681656    2.922506   -1.529991
  H      1.754523    2.566528   -0.170664
  H      1.510574    1.424546   -1.498006
  H     -0.729415   -1.663230    1.422518
  H     -1.438800    1.051301    2.824982
  H      0.955780   -2.128578   -2.075126
  H     -3.107843    0.217379   -0.670555

 Total Charge           Charge          ....    0
 Multiplicity           Mult            ....    3
 Number of Electrons    NEL             ....  132
 Basis Dimension        Dim             ....  882

ORBITAL ENERGIES
----------------
                 SPIN UP ORBITALS
  NO   OCC          E(Eh)            E(eV)
   0   1.0000     -19.332921      -526.0755
   1   1.0000     -19.329465      -525.9815
   2   1.0000     -19.317043      -525.6435
   3   1.0000     -19.316800      -525.6368
   4   1.0000     -14.575219      -396.6119
   5   1.0000     -14.569953      -396.4686
   6   1.0000     -14.556621      -396.1058
   7   1.0000     -14.551249      -395.9596
   8   1.0000     -10.505765      -285.8764
   9   1.0000     -10.498891      -285.6893
  10   1.0000     -10.482826      -285.2522
  11   1.0000     -10.476517      -285.0805
  12   1.0000     -10.453333      -284.4497
  13   1.0000     -10.449574      -284.3474
  14   1.0000     -10.424247      -283.6582
  15   1.0000     -10.415641      -283.4240
  16   1.0000     -10.373862      -282.2871
  17   1.0000     -10.369354      -282.1645
  18   1.0000      -1.233848       -33.5747
  19   1.0000      -1.213945       -33.0331
  20   1.0000      -1.188670       -32.3454
  21   1.0000      -1.170308       -31.8457
  22   1.0000      -1.122906       -30.5558
  23   1.0000      -1.104099       -30.0440
  24   1.0000      -1.074968       -29.2514
  25   1.0000      -1.057881       -28.7864
  26   1.0000      -0.998395       -27.1677
  27   1.0000      -0.966457       -26.2986
  28   1.0000      -0.903494       -24.5853
  29   1.0000      -0.852254       -23.1910
  30   1.0000      -0.841510       -22.8987
  31   1.0000      -0.805320       -21.9139
  32   1.0000      -0.795248       -21.6398
  33   1.0000      -0.788729       -21.4624
  34   1.0000      -0.721201       -19.6249
  35   1.0000      -0.705840       -19.2069
  36   1.0000      -0.701799       -19.0969
  37   1.0000      -0.681956       -18.5570
  38   1.0000      -0.654755       -17.8168
  39   1.0000      -0.652489       -17.7551
  40   1.0000      -0.632038       -17.1986
  41   1.0000      -0.615927       -16.7602
  42   1.0000      -0.596993       -16.2450
  43   1.0000      -0.584375       -15.9017
  44   1.0000      -0.579969       -15.7817
  45   1.0000      -0.572779       -15.5861
  46   1.0000      -0.567185       -15.4339
  47   1.0000      -0.563959       -15.3461
  48   1.0000      -0.561548       -15.2805
  49   1.0000      -0.554970       -15.1015
  50   1.0000      -0.552752       -15.0411
  51   1.0000      -0.544563       -14.8183
  52   1.0000      -0.530701       -14.4411
  53   1.0000      -0.522563       -14.2197
  54   1.0000      -0.511234       -13.9114
  55   1.0000      -0.501532       -13.6474
  56   1.0000      -0.494153       -13.4466
  57   1.0000      -0.422258       -11.4902
  58   1.0000      -0.413660       -11.2563
  59   1.0000      -0.413197       -11.2437
  60   1.0000      -0.406257       -11.0548
  61   1.0000      -0.396218       -10.7816
  62   1.0000      -0.394964       -10.7475
  63   1.0000      -0.388601       -10.5744
  64   1.0000      -0.383726       -10.4417
  65   1.0000      -0.346648        -9.4328
  66   1.0000      -0.326617        -8.8877
  67   0.0000       0.002569         0.0699
  68   0.0000       0.028143         0.7658
  69   0.0000       0.031120         0.8468
  70   0.0000       0.036330         0.9886
  71   0.0000       0.055287         1.5044

                 SPIN DOWN ORBITALS
  NO   OCC          E(Eh)            E(eV)
   0   1.0000     -19.327567      -525.9298
   1   1.0000     -19.323618      -525.8224
   2   1.0000     -19.316913      -525.6399
   3   1.0000     -19.316712      -525.6345
   4   1.0000     -14.575096      -396.6085
   5   1.0000     -14.569357      -396.4523
   6   1.0000     -14.555919      -396.0867
   7   1.0000     -14.551216      -395.9587
   8   1.0000     -10.505818      -285.8778
   9   1.0000     -10.498937      -285.6906
  10   1.0000     -10.483814      -285.2791
  11   1.0000     -10.477593      -285.1098
  12   1.0000     -10.452949      -284.4392
  13   1.0000     -10.449053      -284.3332
  14   1.0000     -10.413278      -283.3597
  15   1.0000     -10.405262      -283.1416
  16   1.0000     -10.374289      -282.2988
  17   1.0000     -10.369824      -282.1772
  18   1.0000      -1.233040       -33.5527
  19   1.0000      -1.213040       -33.0085
  20   1.0000      -1.182226       -32.1700
  21   1.0000      -1.162597       -31.6359
  22   1.0000      -1.120296       -30.4848
  23   1.0000      -1.101208       -29.9654
  24   1.0000      -1.072908       -29.1953
  25   1.0000      -1.055252       -28.7149
  26   1.0000      -0.985742       -26.8234
  27   1.0000      -0.949527       -25.8379
  28   1.0000      -0.897525       -24.4229
  29   1.0000      -0.846346       -23.0303
  30   1.0000      -0.833183       -22.6721
  31   1.0000      -0.801796       -21.8180
  32   1.0000      -0.793958       -21.6047
  33   1.0000      -0.786730       -21.4080
  34   1.0000      -0.715177       -19.4609
  35   1.0000      -0.700170       -19.0526
  36   1.0000      -0.696771       -18.9601
  37   1.0000      -0.674587       -18.3564
  38   1.0000      -0.652237       -17.7483
  39   1.0000      -0.642037       -17.4707
  40   1.0000      -0.626355       -17.0440
  41   1.0000      -0.609706       -16.5909
  42   1.0000      -0.588657       -16.0182
  43   1.0000      -0.579309       -15.7638
  44   1.0000      -0.570769       -15.5314
  45   1.0000      -0.567110       -15.4319
  46   1.0000      -0.561364       -15.2755
  47   1.0000      -0.556991       -15.1565
  48   1.0000      -0.552017       -15.0212
  49   1.0000      -0.548220       -14.9178
  50   1.0000      -0.544800       -14.8248
  51   1.0000      -0.533856       -14.5270
  52   1.0000      -0.525750       -14.3064
  53   1.0000      -0.513143       -13.9633
  54   1.0000      -0.505333       -13.7508
  55   1.0000      -0.490463       -13.3462
  56   1.0000      -0.486030       -13.2256
  57   1.0000      -0.416668       -11.3381
  58   1.0000      -0.409515       -11.1435
  59   1.0000      -0.402350       -10.9485
  60   1.0000      -0.394742       -10.7415
  61   1.0000      -0.389021       -10.5858
  62   1.0000      -0.384176       -10.4540
  63   1.0000      -0.378570       -10.3014
  64   1.0000      -0.375210       -10.2100
  65   0.0000      -0.066710        -1.8153
  66   0.0000      -0.059091        -1.6079
  67   0.0000       0.002301         0.0626
  68   0.0000       0.028332         0.7709
  69   0.0000       0.030640         0.8337

----------------------------------------------------------------------------------------------------
          SPIN FLIP ABSORPTION SPECTRUM VIA TRANSITION ELECTRIC DIPOLE MOMENTS
----------------------------------------------------------------------------------------------------
     Transition      Energy     Energy  Wavelength fosc(D2)      D2        DX        DY        DZ
                      (eV)      (cm-1)    (nm)                 (au**2)    (au)      (au)      (au)
----------------------------------------------------------------------------------------------------
  1-3A  ->  2-3A    0.055256     445.7  22438.1   0.000002488   0.00184   0.03490  -0.01758  -0.01763
  1-3A  ->  3-3A    1.874741   15120.8   661.3   0.000523621   0.01140  -0.00653  -0.04826   0.09502

Dispersion correction             ... done (  0.1 sec)

MULLIKEN ATOMIC CHARGES AND SPIN DENSITIES
------------------------------------------
   0 O :   -0.731373   -0.183187
   1 O :   -0.704336    0.206342
   2 O :   -0.639038   -0.003111
   3 O :   -0.673331    0.002245
   4 N :   -0.199842   -0.018161
   5 N :   -0.197005    0.000778
   6 N :    0.106803   -0.024124
   7 N :    0.111673    0.025711
   8 C :    1.096752    0.185919
   9 C :    0.040964    0.293445
  10 C :   -0.366178   -0.363854
  11 C :    0.627279    0.086115
  12 C :   -1.488426   -0.005458
  13 C :   -1.249954    0.013880
  14 C :    0.124263   -0.378111
  15 C :    0.303720    0.088786
  16 C :    0.454869    0.037379
  17 C :    0.418280   -0.003214
  18 H :    0.438298   -0.051171
  19 H :    0.540652    0.030723
  20 H :    0.370765   -0.009912
  21 H :    0.364088    0.000586
  22 H :    0.413216   -0.009424
  23 H :    0.356213    0.018232
  24 H :    0.253483   -0.008826
  25 H :    0.246260    0.058097
  26 H :   -0.018099    0.004286
  27 H :    0.058054    0.000554
  28 H :   -0.037413    0.006444
  29 H :   -0.020637   -0.000969
Sum of atomic charges       :   -0.0000000

LOEWDIN ATOMIC CHARGES AND SPIN DENSITIES
-----------------------------------------
   0 O :    0.026781   -0.156741
   1 O :    0.060743    0.182372
   2 O :    0.124359   -0.002731
   3 O :    0.075173    0.002070
   4 N :    0.325322   -0.002773
   5 N :    0.294540   -0.002130
   6 N :    0.373719   -0.015974
   7 N :    0.347545    0.024070
   8 C :   -0.028743   -0.430330
   9 C :   -0.072935    0.406870
  10 C :   -0.095227   -0.022762
  11 C :   -0.098691    0.028335
  12 C :    0.189743   -0.065158
  13 C :    0.196310    0.061302
  14 C :   -0.395420   -0.083189
  15 C :   -0.353139    0.074151
  16 C :   -0.503120    0.000639
  17 C :   -0.494078    0.000501
  18 H :    0.069072   -0.010510
  19 H :    0.085860    0.009483
  20 H :   -0.006619   -0.011157
  21 H :   -0.015018   -0.001003
  22 H :    0.026224   -0.024683
  23 H :    0.022632    0.012444
  24 H :    0.002391    0.000678
  25 H :    0.036356    0.026283
  26 H :   -0.094291   -0.000513
  27 H :   -0.015225   -0.000145
  28 H :   -0.041152   -0.001948
  29 H :   -0.043114    0.002550

  Mayer bond orders larger than 0.100000
B(  0-O , 14-C ) :   1.3161 B(  1-O , 13-C ) :   0.1060 B(  1-O , 15-C ) :   1.1951
B(  2-O , 16-C ) :   1.4902 B(  3-O , 17-C ) :   1.5906 B(  4-N ,  8-C ) :   0.1761
B(  4-N , 10-C ) :   0.3835 B(  4-N , 16-C ) :   1.0405 B(  4-N , 18-H ) :  -0.1136
B(  4-N , 26-H ) :   1.1220 B(  5-N , 10-C ) :   0.1954 B(  5-N , 11-C ) :   0.3229
B(  5-N , 17-C ) :   1.1668 B(  5-N , 27-H ) :   1.1075 B(  6-N , 14-C ) :   1.0702
B(  6-N , 16-C ) :   0.9646 B(  6-N , 28-H ) :   1.1667 B(  7-N ,  9-C ) :  -0.1011
B(  7-N , 11-C ) :   0.1250 B(  7-N , 15-C ) :   1.0838 B(  7-N , 17-C ) :   0.9515
B(  7-N , 29-H ) :   1.1172 B(  8-C ,  9-C ) :   0.1051 B(  8-C , 10-C ) :   0.3833
B(  8-C , 12-C ) :   0.3076 B(  8-C , 14-C ) :   0.6622 B(  8-C , 16-C ) :   0.1005
B(  8-C , 18-H ) :  -0.1719 B(  8-C , 21-H ) :  -0.1246 B(  9-C , 10-C ) :   0.4268
B(  9-C , 11-C ) :  -0.1789 B(  9-C , 13-C ) :   0.2974 B(  9-C , 15-C ) :   1.0940
B(  9-C , 19-H ) :  -0.1901 B(  9-C , 24-H ) :  -0.1648 B( 10-C , 11-C ) :   0.4959
B( 10-C , 16-C ) :  -0.1222 B( 10-C , 18-H ) :   0.8721 B( 10-C , 19-H ) :  -0.1372
B( 11-C , 15-C ) :  -0.3140 B( 11-C , 17-C ) :  -0.2145 B( 11-C , 19-H ) :   0.9332
B( 12-C , 20-H ) :   0.8563 B( 12-C , 21-H ) :   1.0030 B( 12-C , 22-H ) :   0.8257
B( 13-C , 23-H ) :   0.9055 B( 13-C , 24-H ) :   1.1820 B( 13-C , 25-H ) :   0.8701
B( 14-C , 16-C ) :  -0.1092 B( 20-H , 22-H ) :   0.1050

Dispersion correction           -0.060754952
FINAL SINGLE POINT ENERGY      -908.767629871957

DIPOLE MOMENT
-------------

Method             : TDA/CIS
Type of density    : Electron Density
Level              : Relaxed density
State              :   2
Multiplicity       :   3
Irrep              :   0
Energy             :     0.0000000000000000 Eh
Relativity type    :
Basis              : AO
                                X                 Y                 Z
Electronic contribution:     -9.824474163      -6.365965991      -2.316951057
Nuclear contribution   :     11.657674442       7.605308543       4.599399445
                        -----------------------------------------
Total Dipole Moment    :      1.833200279       1.239342552       2.282448388
                        -----------------------------------------
Magnitude (a.u.)       :      3.179019324
Magnitude (Debye)      :      8.080424961

Rotational constants in cm-1:             0.022614             0.012901             0.012098
Rotational constants in MHz :           677.951254           386.754020           362.679022

                             ****ORCA TERMINATED NORMALLY****
TOTAL RUN TIME: 0 days 0 hours 5 minutes 36 seconds 908 msec
