                         Program Version 6.0.0  -   RELEASE  -
|  1> ! Engrad def2-TZVPPD wB97M-D3BJ
|  2> %pal nprocs 8 end%pal nprocs 64 end
|  3> %tddft
|  4>  Iroot 1 Nroots 3
|  5> sf true
|  6> end
|  7> *xyz 0 3
|  8> O   0.18659732 0.37892518 1.11780873
|  9> C   0.03176163 -0.34150515 -0.04290873
| 10> C   1.07579743 0.13314892 -0.96556616
| 11> H   -1.03243038 -0.02194013 -0.3639804
| 12> H   -0.06382392 -1.28163232 0.2777648
| 13> H   1.61804821 -0.58146484 -1.4275566
| 14> H   1.27343616 1.15158054 -1.07518468
| 15> *
| 16>
| 17>                          ****END OF INPUT****

CARTESIAN COORDINATES (ANGSTROEM)
---------------------------------
  O      0.186597    0.378925    1.117809
  C      0.031762   -0.341505   -0.042909
  C      1.075797    0.133149   -0.965566
  H     -1.032430   -0.021940   -0.363980
  H     -0.063824   -1.281632    0.277765
  H      1.618048   -0.581465   -1.427557
  H      1.273436    1.151581   -1.075185

 Total Charge           Charge          ....    0
 Multiplicity           Mult            ....    3
 Number of Electrons    NEL             ....   24
 Basis Dimension        Dim             ....  182

ORBITAL ENERGIES
----------------
                 SPIN UP ORBITALS
  NO   OCC          E(Eh)            E(eV)
   0   1.0000     -19.376949      -527.2736
   1   1.0000     -10.404221      -283.1132
   2   1.0000     -10.357216      -281.8342
   3   1.0000      -1.165328       -31.7102
   4   1.0000      -0.877617       -23.8812
   5   1.0000      -0.751116       -20.4389
   6   1.0000      -0.624596       -16.9961
   7   1.0000      -0.590997       -16.0819
   8   1.0000      -0.555512       -15.1162
   9   1.0000      -0.525324       -14.2948
  10   1.0000      -0.431083       -11.7304
  11   1.0000      -0.412845       -11.2341
  12   1.0000      -0.322640        -8.7795
  13   0.0000       0.042144         1.1468
  14   0.0000       0.061601         1.6762
  15   0.0000       0.078883         2.1465
  16   0.0000       0.087563         2.3827
  17   0.0000       0.115261         3.1364

                 SPIN DOWN ORBITALS
  NO   OCC          E(Eh)            E(eV)
   0   1.0000     -19.352842      -526.6176
   1   1.0000     -10.405568      -283.1499
   2   1.0000     -10.344016      -281.4750
   3   1.0000      -1.112906       -30.2837
   4   1.0000      -0.842574       -22.9276
   5   1.0000      -0.726952       -19.7814
   6   1.0000      -0.601728       -16.3739
   7   1.0000      -0.547608       -14.9012
   8   1.0000      -0.530918       -14.4470
   9   1.0000      -0.497758       -13.5447
  10   1.0000      -0.379299       -10.3212
  11   0.0000      -0.045512        -1.2384
  12   0.0000      -0.000015        -0.0004
  13   0.0000       0.041237         1.1221
  14   0.0000       0.061481         1.6730
  15   0.0000       0.078507         2.1363

----------------------------------------------------------------------------------------------------
          SPIN FLIP ABSORPTION SPECTRUM VIA TRANSITION ELECTRIC DIPOLE MOMENTS
----------------------------------------------------------------------------------------------------
     Transition      Energy     Energy  Wavelength fosc(D2)      D2        DX        DY        DZ
                      (eV)      (cm-1)    (nm)                 (au**2)    (au)      (au)      (au)
----------------------------------------------------------------------------------------------------
  1-3A  ->  2-3A    0.224998    1814.7  5510.5   0.000063969   0.01160  -0.06682   0.05667   0.06268
  1-3A  ->  3-3A    1.071934    8645.7  1156.6   0.002024465   0.07709  -0.07496  -0.11621  -0.24076

Dispersion correction             ... done (  0.1 sec)

MULLIKEN ATOMIC CHARGES AND SPIN DENSITIES
------------------------------------------
   0 O :   -0.445964   -0.505791
   1 C :   -0.019537    0.009083
   2 C :   -0.515097    0.428307
   3 H :    0.194406    0.051805
   4 H :    0.245233   -0.073422
   5 H :    0.253110    0.052596
   6 H :    0.287850    0.037421
Sum of atomic charges       :   -0.0000000

LOEWDIN ATOMIC CHARGES AND SPIN DENSITIES
-----------------------------------------
   0 O :   -0.041242   -0.492262
   1 C :   -0.248524    0.004233
   2 C :    0.410224    0.401912
   3 H :    0.064585    0.013309
   4 H :   -0.054667   -0.039359
   5 H :   -0.085081    0.059326
   6 H :   -0.045295    0.052841

  Mayer bond orders larger than 0.100000
B(  0-O ,  1-C ) :   0.8045 B(  0-O ,  2-C ) :   0.4393 B(  1-C ,  2-C ) :   0.7799
B(  1-C ,  3-H ) :   0.9888 B(  1-C ,  4-H ) :   0.9415 B(  2-C ,  5-H ) :   0.9195
B(  2-C ,  6-H ) :   0.9338

Dispersion correction           -0.005588574
FINAL SINGLE POINT ENERGY      -153.741677136849

DIPOLE MOMENT
-------------

Method             : TDA/CIS
Type of density    : Electron Density
Level              : Relaxed density
State              :   1
Multiplicity       :   3
Irrep              :   0
Energy             :     0.0000000000000000 Eh
Relativity type    :
Basis              : AO
                                X                 Y                 Z
Electronic contribution:      0.055173242       0.465737360       1.451877560
Nuclear contribution   :      0.139239804      -0.923725035      -2.682732225
                        -----------------------------------------
Total Dipole Moment    :      0.194413046      -0.457987675      -1.230854664
                        -----------------------------------------
Magnitude (a.u.)       :      1.327611520
Magnitude (Debye)      :      3.374520306

Rotational constants in cm-1:             1.345146             0.386002             0.327157
Rotational constants in MHz :         40326.467096         11572.063634          9807.919226

                             ****ORCA TERMINATED NORMALLY****
TOTAL RUN TIME: 0 days 0 hours 0 minutes 27 seconds 584 msec
