                         Program Version 6.0.0  -   RELEASE  -
|  1> ! Opt wB97M-D3BJ def2-TZVPPD
|  2> %pal nprocs 8 end %pal nprocs 64 end
|  3> %geom
|  4> Constraints
|  5>     {A 2 1 0 75.25423728813558 C }
|  6> end
|  7> MaxIter 200
|  8> end
|  9> *xyz 0 1
| 10> O   0.3850286898558393 0.979467208996445 0.0
| 11> C   0.7509 -0.4065 0.0
| 12> C   -0.7502 -0.4076 0.0
| 13> H   1.2625 -0.6786 0.9136
| 14> H   1.2625 -0.6787 -0.9136
| 15> H   -1.2614 -0.6806 -0.9136
| 16> H   -1.2614 -0.6805 0.9136
| 17> *
| 18>
| 19>                          ****END OF INPUT****
 Total Charge           Charge          ....    0
 Multiplicity           Mult            ....    1
 Number of Electrons    NEL             ....   24
Dispersion correction           -0.005282770
FINAL SINGLE POINT ENERGY      -153.844964625956
Dispersion correction             ... done (  0.1 sec)
Dispersion correction           -0.005254787
FINAL SINGLE POINT ENERGY      -153.858645741340
Dispersion correction             ... done (  0.1 sec)
Dispersion correction           -0.005264752
FINAL SINGLE POINT ENERGY      -153.863015188125
Dispersion correction             ... done (  0.1 sec)
FINAL SINGLE POINT ENERGY      -153.863743539826
FINAL SINGLE POINT ENERGY      -153.863935475793
Dispersion correction             ... done (  0.1 sec)
Dispersion correction           -0.005256570
FINAL SINGLE POINT ENERGY      -153.863960934426
Dispersion correction             ... done (  0.1 sec)
Dispersion correction           -0.005257960
FINAL SINGLE POINT ENERGY      -153.863971380573
Dispersion correction             ... done (  0.1 sec)
                    ***********************HURRAY********************

CARTESIAN COORDINATES (ANGSTROEM)
---------------------------------
  O      0.259173    0.893258   -0.000172
  C      0.727718   -0.380358    0.000025
  C     -0.683015   -0.515005   -0.000188
  H      1.266925   -0.688435    0.897984
  H      1.266998   -0.688766   -0.897816
  H     -1.225308   -0.587342   -0.927546
  H     -1.224563   -0.586384    0.927714

 Multiplicity           Mult            ....    1
 Number of Electrons    NEL             ....   24
 Basis Dimension        Dim             ....  182

ORBITAL ENERGIES
----------------

  NO   OCC          E(Eh)            E(eV)
   0   2.0000     -19.346040      -526.4325
   1   2.0000     -10.411756      -283.3183
   2   2.0000     -10.396581      -282.9053
   3   2.0000      -1.173066       -31.9207
   4   2.0000      -0.838782       -22.8244
   5   2.0000      -0.741634       -20.1809
   6   2.0000      -0.628033       -17.0896
   7   2.0000      -0.588984       -16.0271
   8   2.0000      -0.502378       -13.6704
   9   2.0000      -0.497041       -13.5252
  10   2.0000      -0.413767       -11.2592
  11   2.0000      -0.375681       -10.2228
  12   0.0000       0.036812         1.0017
  13   0.0000       0.052058         1.4166
  14   0.0000       0.061686         1.6786
  15   0.0000       0.076995         2.0951
  16   0.0000       0.105748         2.8776

MULLIKEN ATOMIC CHARGES
-----------------------
   0 O :   -0.423842
   1 C :   -0.104257
   2 C :   -0.275076
   3 H :    0.202313
   4 H :    0.202344
   5 H :    0.199211
   6 H :    0.199308
Sum of atomic charges:   -0.0000000

LOEWDIN ATOMIC CHARGES
----------------------
   0 O :   -0.026393
   1 C :   -0.225762
   2 C :    0.205737
   3 H :    0.023783
   4 H :    0.023792
   5 H :   -0.000573
   6 H :   -0.000583

  Mayer bond orders larger than 0.100000
B(  0-O ,  1-C ) :   0.7103 B(  0-O ,  2-C ) :   0.9154 B(  1-C ,  2-C ) :   0.7889
B(  1-C ,  3-H ) :   1.0483 B(  1-C ,  4-H ) :   1.0482 B(  2-C ,  5-H ) :   0.9795
B(  2-C ,  6-H ) :   0.9795

Dispersion correction           -0.005258440
FINAL SINGLE POINT ENERGY      -153.863972327468

DIPOLE MOMENT
-------------

Method             : SCF
Type of density    : Electron Density
Multiplicity       :   1
Irrep              :   0
Energy             :  -153.8587138871428124 Eh
Relativity type    :
Basis              : AO
                                X                 Y                 Z
Electronic contribution:      0.097671626       1.523207186      -0.000616388
Nuclear contribution   :     -0.325092923      -2.462596418       0.000687386
                        -----------------------------------------
Total Dipole Moment    :     -0.227421298      -0.939389233       0.000070997
                        -----------------------------------------
Magnitude (a.u.)       :      0.966526038
Magnitude (Debye)      :      2.456713950

Rotational constants in cm-1:             0.925620             0.633516             0.442438
Rotational constants in MHz :         27749.400086         18992.325180         13263.957541

                             ****ORCA TERMINATED NORMALLY****
TOTAL RUN TIME: 0 days 0 hours 1 minutes 43 seconds 56 msec
