                         Program Version 6.0.0  -   RELEASE  -
|  1> ! Opt wB97M-D3BJ def2-TZVPPD
|  2> %pal nprocs 8 end %pal nprocs 64 end
|  3> %geom
|  4> Constraints
|  5>     {A 2 1 0 82.72727272727272 C }
|  6> end
|  7> MaxIter 500
|  8> end
|  9> *xyz 0 1
| 10> O   -0.0007 0.8141 0.0
| 11> C   0.7509 -0.4065 0.0
| 12> C   -0.7502 -0.4076 0.0
| 13> H   1.2625 -0.6786 0.9136
| 14> H   1.2625 -0.6787 -0.9136
| 15> H   -1.2614 -0.6806 -0.9136
| 16> H   -1.2614 -0.6805 0.9136
| 17> *
| 18>
| 19>                          ****END OF INPUT****
 Total Charge           Charge          ....    0
 Multiplicity           Mult            ....    1
 Number of Electrons    NEL             ....   24
Dispersion correction           -0.005393815
FINAL SINGLE POINT ENERGY      -153.827853548077
Dispersion correction             ... done (  0.1 sec)
Dispersion correction           -0.005404858
FINAL SINGLE POINT ENERGY      -153.839459074971
Dispersion correction             ... done (  0.2 sec)
Dispersion correction           -0.005427743
FINAL SINGLE POINT ENERGY      -153.843527485747
Dispersion correction             ... done (  0.1 sec)
FINAL SINGLE POINT ENERGY      -153.844483071436
FINAL SINGLE POINT ENERGY      -153.844724688508
FINAL SINGLE POINT ENERGY      -153.844802925771
FINAL SINGLE POINT ENERGY      -153.844824430607
Dispersion correction             ... done (  0.1 sec)
Dispersion correction           -0.005440578
FINAL SINGLE POINT ENERGY      -153.844832651893
Dispersion correction             ... done (  0.1 sec)
Dispersion correction           -0.005441412
FINAL SINGLE POINT ENERGY      -153.844836958786
Dispersion correction             ... done (  0.1 sec)
                    ***********************HURRAY********************

CARTESIAN COORDINATES (ANGSTROEM)
---------------------------------
  O      0.211797    0.928953   -0.001152
  C      0.654227   -0.342923   -0.000216
  C     -0.732867   -0.635427    0.000263
  H      1.211352   -0.645259    0.892396
  H      1.211490   -0.646108   -0.892418
  H     -1.277282   -0.690145   -0.927749
  H     -1.276517   -0.687491    0.928876

 Multiplicity           Mult            ....    1
 Number of Electrons    NEL             ....   24
 Basis Dimension        Dim             ....  182

ORBITAL ENERGIES
----------------

  NO   OCC          E(Eh)            E(eV)
   0   2.0000     -19.341799      -526.3171
   1   2.0000     -10.421420      -283.5812
   2   2.0000     -10.396658      -282.9075
   3   2.0000      -1.157266       -31.4908
   4   2.0000      -0.854500       -23.2521
   5   2.0000      -0.737273       -20.0622
   6   2.0000      -0.626542       -17.0491
   7   2.0000      -0.584218       -15.8974
   8   2.0000      -0.509644       -13.8681
   9   2.0000      -0.502777       -13.6813
  10   2.0000      -0.398669       -10.8483
  11   2.0000      -0.369056       -10.0425
  12   0.0000       0.012588         0.3425
  13   0.0000       0.042851         1.1660
  14   0.0000       0.060690         1.6514
  15   0.0000       0.076712         2.0874
  16   0.0000       0.099994         2.7210

MULLIKEN ATOMIC CHARGES
-----------------------
   0 O :   -0.456558
   1 C :   -0.086670
   2 C :   -0.307609
   3 H :    0.212641
   4 H :    0.212673
   5 H :    0.212694
   6 H :    0.212830
Sum of atomic charges:    0.0000000

LOEWDIN ATOMIC CHARGES
----------------------
   0 O :   -0.021382
   1 C :   -0.297926
   2 C :    0.278453
   3 H :    0.024800
   4 H :    0.024802
   5 H :   -0.004368
   6 H :   -0.004379

  Mayer bond orders larger than 0.100000
B(  0-O ,  1-C ) :   0.6734 B(  0-O ,  2-C ) :   0.9436 B(  1-C ,  2-C ) :   0.7702
B(  1-C ,  3-H ) :   1.0512 B(  1-C ,  4-H ) :   1.0510 B(  2-C ,  5-H ) :   0.9674
B(  2-C ,  6-H ) :   0.9675

Dispersion correction           -0.005441618
FINAL SINGLE POINT ENERGY      -153.844838446892

DIPOLE MOMENT
-------------

Method             : SCF
Type of density    : Electron Density
Multiplicity       :   1
Irrep              :   0
Energy             :  -153.8393968289697398 Eh
Relativity type    :
Basis              : AO
                                X                 Y                 Z
Electronic contribution:      0.037823619       1.468979654      -0.001578999
Nuclear contribution   :     -0.317454043      -2.526262066       0.002451542
                        -----------------------------------------
Total Dipole Moment    :     -0.279630423      -1.057282412       0.000872543
                        -----------------------------------------
Magnitude (a.u.)       :      1.093636152
Magnitude (Debye)      :      2.779802184

Rotational constants in cm-1:             0.989408             0.562993             0.418352
Rotational constants in MHz :         29661.719018         16878.104378         12541.887366

                             ****ORCA TERMINATED NORMALLY****
TOTAL RUN TIME: 0 days 0 hours 2 minutes 17 seconds 213 msec
