                         Program Version 6.0.0  -   RELEASE  -
|  1> ! Engrad def2-TZVPPD wB97M-D3BJ
|  2> %pal nprocs 8 end%pal nprocs 64 end
|  3> %tddft
|  4>  Iroot 2 Nroots 3
|  5> sf true
|  6> end
|  7> *xyz 0 3
|  8> O   3.38576801 -1.0649877 -1.92265849
|  9> O   -2.17735882 1.89056391 -1.4300851
| 10> O   -1.0684728 -2.09584508 -1.71367571
| 11> O   -3.04148762 0.44061648 2.80259246
| 12> N   0.09971382 -1.62298437 0.21530576
| 13> N   -0.90140615 0.36962172 2.06813669
| 14> N   1.15009893 -1.52227434 -1.81357356
| 15> N   -2.65751163 0.92968794 0.59086949
| 16> C   2.20640754 -0.55408273 0.09733776
| 17> C   -0.34201996 1.32797051 -0.02771219
| 18> C   1.01526394 -0.72266445 0.91129845
| 19> C   0.19756083 0.66233219 1.17997432
| 20> C   3.42126296 -0.01170124 0.67591265
| 21> C   0.61636396 1.98046026 -1.00864042
| 22> C   2.35473456 -1.08434106 -1.24196796
| 23> C   -1.7691988 1.43155954 -0.38671738
| 24> C   -0.05097782 -1.75030025 -1.17019725
| 25> C   -2.26552311 0.61279348 1.91076609
| 26> H   1.26847898 -1.15076391 1.89148462
| 27> H   0.82245262 1.42372211 1.65507098
| 28> H   3.19076581 0.80464647 1.34357461
| 29> H   3.92334171 -0.8308343 1.21900651
| 30> H   4.18772606 0.29578044 -0.00750426
| 31> H   0.62513193 1.5633743 -2.0166209
| 32> H   0.32618843 2.96386235 -1.22731724
| 33> H   1.70382285 1.94801053 -0.56382978
| 34> H   -0.76103025 -1.8250065 0.68580635
| 35> H   -0.66198397 -0.22857683 2.84253779
| 36> H   1.23485838 -1.52219883 -2.77198635
| 37> H   -3.66198102 1.22335396 0.48407742
| 38> *
| 39>
| 40>                          ****END OF INPUT****

CARTESIAN COORDINATES (ANGSTROEM)
---------------------------------
  O      3.385768   -1.064988   -1.922658
  O     -2.177359    1.890564   -1.430085
  O     -1.068473   -2.095845   -1.713676
  O     -3.041488    0.440616    2.802592
  N      0.099714   -1.622984    0.215306
  N     -0.901406    0.369622    2.068137
  N      1.150099   -1.522274   -1.813574
  N     -2.657512    0.929688    0.590869
  C      2.206408   -0.554083    0.097338
  C     -0.342020    1.327971   -0.027712
  C      1.015264   -0.722664    0.911298
  C      0.197561    0.662332    1.179974
  C      3.421263   -0.011701    0.675913
  C      0.616364    1.980460   -1.008640
  C      2.354735   -1.084341   -1.241968
  C     -1.769199    1.431560   -0.386717
  C     -0.050978   -1.750300   -1.170197
  C     -2.265523    0.612793    1.910766
  H      1.268479   -1.150764    1.891485
  H      0.822453    1.423722    1.655071
  H      3.190766    0.804646    1.343575
  H      3.923342   -0.830834    1.219007
  H      4.187726    0.295780   -0.007504
  H      0.625132    1.563374   -2.016621
  H      0.326188    2.963862   -1.227317
  H      1.703823    1.948011   -0.563830
  H     -0.761030   -1.825006    0.685806
  H     -0.661984   -0.228577    2.842538
  H      1.234858   -1.522199   -2.771986
  H     -3.661981    1.223354    0.484077

 Total Charge           Charge          ....    0
 Multiplicity           Mult            ....    3
 Number of Electrons    NEL             ....  132
 Basis Dimension        Dim             ....  882

ORBITAL ENERGIES
----------------
                 SPIN UP ORBITALS
  NO   OCC          E(Eh)            E(eV)
   0   1.0000     -19.341477      -526.3083
   1   1.0000     -19.338144      -526.2177
   2   1.0000     -19.328064      -525.9434
   3   1.0000     -19.325972      -525.8864
   4   1.0000     -14.567052      -396.3896
   5   1.0000     -14.560892      -396.2220
   6   1.0000     -14.558762      -396.1641
   7   1.0000     -14.554472      -396.0473
   8   1.0000     -10.512661      -286.0640
   9   1.0000     -10.509483      -285.9776
  10   1.0000     -10.487106      -285.3687
  11   1.0000     -10.486602      -285.3549
  12   1.0000     -10.456927      -284.5474
  13   1.0000     -10.450512      -284.3729
  14   1.0000     -10.423677      -283.6427
  15   1.0000     -10.419647      -283.5330
  16   1.0000     -10.378061      -282.4014
  17   1.0000     -10.372726      -282.2562
  18   1.0000      -1.224324       -33.3155
  19   1.0000      -1.219763       -33.1914
  20   1.0000      -1.203433       -32.7471
  21   1.0000      -1.195537       -32.5322
  22   1.0000      -1.119578       -30.4653
  23   1.0000      -1.099676       -29.9237
  24   1.0000      -1.065721       -28.9997
  25   1.0000      -1.051397       -28.6100
  26   1.0000      -0.985749       -26.8236
  27   1.0000      -0.958443       -26.0806
  28   1.0000      -0.887436       -24.1484
  29   1.0000      -0.847533       -23.0625
  30   1.0000      -0.824912       -22.4470
  31   1.0000      -0.802748       -21.8439
  32   1.0000      -0.791603       -21.5406
  33   1.0000      -0.778777       -21.1916
  34   1.0000      -0.702218       -19.1083
  35   1.0000      -0.691555       -18.8182
  36   1.0000      -0.685468       -18.6525
  37   1.0000      -0.678525       -18.4636
  38   1.0000      -0.655463       -17.8361
  39   1.0000      -0.642539       -17.4844
  40   1.0000      -0.619016       -16.8443
  41   1.0000      -0.605417       -16.4742
  42   1.0000      -0.601496       -16.3675
  43   1.0000      -0.587866       -15.9967
  44   1.0000      -0.577620       -15.7178
  45   1.0000      -0.573440       -15.6041
  46   1.0000      -0.568405       -15.4671
  47   1.0000      -0.565966       -15.4007
  48   1.0000      -0.563563       -15.3353
  49   1.0000      -0.562901       -15.3173
  50   1.0000      -0.556563       -15.1449
  51   1.0000      -0.531952       -14.4751
  52   1.0000      -0.526316       -14.3218
  53   1.0000      -0.520218       -14.1558
  54   1.0000      -0.515735       -14.0339
  55   1.0000      -0.508621       -13.8403
  56   1.0000      -0.504551       -13.7295
  57   1.0000      -0.427105       -11.6221
  58   1.0000      -0.423732       -11.5303
  59   1.0000      -0.409652       -11.1472
  60   1.0000      -0.408175       -11.1070
  61   1.0000      -0.404064       -10.9951
  62   1.0000      -0.399221       -10.8634
  63   1.0000      -0.393675       -10.7124
  64   1.0000      -0.385957       -10.5024
  65   1.0000      -0.354620        -9.6497
  66   1.0000      -0.324566        -8.8319
  67   0.0000       0.009094         0.2475
  68   0.0000       0.027660         0.7527
  69   0.0000       0.031459         0.8560
  70   0.0000       0.034576         0.9408
  71   0.0000       0.053196         1.4475

                 SPIN DOWN ORBITALS
  NO   OCC          E(Eh)            E(eV)
   0   1.0000     -19.337177      -526.1913
   1   1.0000     -19.334470      -526.1177
   2   1.0000     -19.328001      -525.9416
   3   1.0000     -19.325773      -525.8810
   4   1.0000     -14.566373      -396.3712
   5   1.0000     -14.560782      -396.2190
   6   1.0000     -14.558031      -396.1442
   7   1.0000     -14.554503      -396.0482
   8   1.0000     -10.512688      -286.0648
   9   1.0000     -10.509543      -285.9792
  10   1.0000     -10.488021      -285.3935
  11   1.0000     -10.487585      -285.3817
  12   1.0000     -10.456560      -284.5375
  13   1.0000     -10.450032      -284.3598
  14   1.0000     -10.412174      -283.3297
  15   1.0000     -10.408680      -283.2346
  16   1.0000     -10.378494      -282.4132
  17   1.0000     -10.373229      -282.2699
  18   1.0000      -1.223379       -33.2898
  19   1.0000      -1.218316       -33.1521
  20   1.0000      -1.198572       -32.6148
  21   1.0000      -1.190358       -32.3913
  22   1.0000      -1.116788       -30.3893
  23   1.0000      -1.097352       -29.8605
  24   1.0000      -1.063659       -28.9436
  25   1.0000      -1.049952       -28.5706
  26   1.0000      -0.972318       -26.4581
  27   1.0000      -0.941791       -25.6274
  28   1.0000      -0.882243       -24.0070
  29   1.0000      -0.842369       -22.9220
  30   1.0000      -0.815967       -22.2036
  31   1.0000      -0.796478       -21.6733
  32   1.0000      -0.789438       -21.4817
  33   1.0000      -0.777313       -21.1518
  34   1.0000      -0.698009       -18.9938
  35   1.0000      -0.686168       -18.6716
  36   1.0000      -0.679605       -18.4930
  37   1.0000      -0.671690       -18.2776
  38   1.0000      -0.641768       -17.4634
  39   1.0000      -0.638341       -17.3701
  40   1.0000      -0.611807       -16.6481
  41   1.0000      -0.601799       -16.3758
  42   1.0000      -0.595498       -16.2043
  43   1.0000      -0.581515       -15.8238
  44   1.0000      -0.570873       -15.5342
  45   1.0000      -0.568602       -15.4724
  46   1.0000      -0.564706       -15.3664
  47   1.0000      -0.560386       -15.2489
  48   1.0000      -0.557561       -15.1720
  49   1.0000      -0.554258       -15.0821
  50   1.0000      -0.542289       -14.7564
  51   1.0000      -0.524121       -14.2620
  52   1.0000      -0.517898       -14.0927
  53   1.0000      -0.509597       -13.8668
  54   1.0000      -0.508770       -13.8443
  55   1.0000      -0.503526       -13.7016
  56   1.0000      -0.499475       -13.5914
  57   1.0000      -0.423844       -11.5334
  58   1.0000      -0.420519       -11.4429
  59   1.0000      -0.402278       -10.9465
  60   1.0000      -0.397363       -10.8128
  61   1.0000      -0.394382       -10.7317
  62   1.0000      -0.393827       -10.7166
  63   1.0000      -0.389240       -10.5917
  64   1.0000      -0.377812       -10.2808
  65   0.0000      -0.071779        -1.9532
  66   0.0000      -0.050507        -1.3744
  67   0.0000       0.008900         0.2422
  68   0.0000       0.027418         0.7461
  69   0.0000       0.031349         0.8530

----------------------------------------------------------------------------------------------------
          SPIN FLIP ABSORPTION SPECTRUM VIA TRANSITION ELECTRIC DIPOLE MOMENTS
----------------------------------------------------------------------------------------------------
     Transition      Energy     Energy  Wavelength fosc(D2)      D2        DX        DY        DZ
                      (eV)      (cm-1)    (nm)                 (au**2)    (au)      (au)      (au)
----------------------------------------------------------------------------------------------------
  1-3A  ->  2-3A    0.145502    1173.6  8521.1   0.000047669   0.01337   0.09671  -0.04405  -0.04560
  1-3A  ->  3-3A    2.396352   19327.9   517.4   0.001196454   0.02038  -0.13870   0.01694   0.02923

Dispersion correction             ... done (  0.1 sec)

MULLIKEN ATOMIC CHARGES AND SPIN DENSITIES
------------------------------------------
   0 O :   -0.672832    0.031205
   1 O :   -0.649910   -0.031128
   2 O :   -0.625521   -0.000030
   3 O :   -0.610392    0.000076
   4 N :   -0.313822   -0.008995
   5 N :   -0.277285   -0.001767
   6 N :    0.056491    0.005050
   7 N :   -0.054384   -0.005728
   8 C :    0.180386    0.314627
   9 C :    0.804714    0.417145
  10 C :    0.537619   -0.099421
  11 C :   -0.049946   -0.375620
  12 C :   -1.676949    0.002778
  13 C :   -1.549772    0.010380
  14 C :    0.446125   -0.088907
  15 C :    0.268983   -0.231602
  16 C :    0.435953   -0.001364
  17 C :    0.374121    0.015029
  18 H :    0.515965    0.006257
  19 H :    0.567290    0.013271
  20 H :    0.383447    0.005513
  21 H :    0.426138    0.012169
  22 H :    0.283095    0.001348
  23 H :    0.238403    0.002493
  24 H :    0.468443    0.004592
  25 H :    0.264456   -0.003322
  26 H :    0.061810    0.000597
  27 H :    0.079138    0.003071
  28 H :   -0.053481    0.000420
  29 H :    0.141719    0.001862
Sum of atomic charges       :    0.0000000

LOEWDIN ATOMIC CHARGES AND SPIN DENSITIES
-----------------------------------------
   0 O :    0.078111    0.027550
   1 O :    0.097696   -0.025728
   2 O :    0.109389    0.000037
   3 O :    0.102296    0.000080
   4 N :    0.274786   -0.002050
   5 N :    0.255407    0.001161
   6 N :    0.351652    0.003809
   7 N :    0.301309   -0.008088
   8 C :   -0.072510    0.104465
   9 C :    0.010125   -0.094690
  10 C :   -0.089145    0.006028
  11 C :   -0.115676   -0.007747
  12 C :    0.178998    0.015931
  13 C :    0.199146   -0.013912
  14 C :   -0.366236    0.012700
  15 C :   -0.406536   -0.021022
  16 C :   -0.465775   -0.000820
  17 C :   -0.474433   -0.000262
  18 H :    0.065087    0.002240
  19 H :    0.048537   -0.003621
  20 H :   -0.005875    0.001634
  21 H :    0.032637    0.007361
  22 H :   -0.005644    0.000988
  23 H :    0.007816   -0.004048
  24 H :   -0.036281   -0.003290
  25 H :    0.053644    0.001269
  26 H :   -0.049070   -0.000089
  27 H :   -0.036870    0.000278
  28 H :   -0.069931    0.000377
  29 H :    0.027347   -0.000541

  Mayer bond orders larger than 0.100000
B(  0-O ,  8-C ) :   0.1049 B(  0-O , 14-C ) :   1.2347 B(  1-O , 13-C ) :   0.1091
B(  1-O , 15-C ) :   1.2741 B(  2-O , 16-C ) :   1.5451 B(  3-O , 17-C ) :   1.6564
B(  4-N ,  8-C ) :   0.2992 B(  4-N , 10-C ) :   0.2484 B(  4-N , 16-C ) :   1.0779
B(  4-N , 18-H ) :  -0.1736 B(  4-N , 26-H ) :   1.0302 B(  5-N ,  9-C ) :   0.1049
B(  5-N , 11-C ) :   0.4147 B(  5-N , 17-C ) :   1.0813 B(  5-N , 27-H ) :   1.1149
B(  6-N ,  8-C ) :  -0.1794 B(  6-N , 10-C ) :   0.1167 B(  6-N , 14-C ) :   1.0360
B(  6-N , 16-C ) :   0.8739 B(  6-N , 28-H ) :   1.1806 B(  7-N , 15-C ) :   1.0008
B(  7-N , 17-C ) :   0.9751 B(  7-N , 29-H ) :   1.0050 B(  8-C , 10-C ) :   0.5881
B(  8-C , 11-C ) :   0.1898 B(  8-C , 12-C ) :   0.1639 B(  8-C , 13-C ) :   0.1561
B(  8-C , 14-C ) :   0.8820 B(  8-C , 16-C ) :   0.1144 B(  8-C , 18-H ) :  -0.1382
B(  8-C , 20-H ) :  -0.1571 B(  8-C , 22-H ) :  -0.1360 B(  9-C , 11-C ) :   0.6969
B(  9-C , 13-C ) :   0.3432 B(  9-C , 15-C ) :   0.6214 B(  9-C , 19-H ) :  -0.1491
B(  9-C , 25-H ) :  -0.1189 B( 10-C , 11-C ) :   0.5007 B( 10-C , 12-C ) :  -0.1022
B( 10-C , 13-C ) :  -0.1026 B( 10-C , 16-C ) :  -0.1010 B( 10-C , 18-H ) :   0.8434
B( 11-C , 13-C ) :  -0.1896 B( 11-C , 15-C ) :   0.1178 B( 11-C , 17-C ) :  -0.1474
B( 11-C , 19-H ) :   0.7529 B( 12-C , 14-C ) :  -0.1060 B( 12-C , 20-H ) :   0.9585
B( 12-C , 21-H ) :   0.7786 B( 12-C , 22-H ) :   1.1170 B( 13-C , 15-C ) :  -0.1061
B( 13-C , 23-H ) :   1.0501 B( 13-C , 24-H ) :   0.7758 B( 13-C , 25-H ) :   1.0233

Dispersion correction           -0.057436321
FINAL SINGLE POINT ENERGY      -908.778815659137

DIPOLE MOMENT
-------------

Method             : TDA/CIS
Type of density    : Electron Density
Level              : Relaxed density
State              :   2
Multiplicity       :   3
Irrep              :   0
Energy             :     0.0000000000000000 Eh
Relativity type    :
Basis              : AO
                                X                 Y                 Z
Electronic contribution:     -9.767859931      -4.289668868      -1.986627322
Nuclear contribution   :     11.469157092       4.880582174       3.580716088
                        -----------------------------------------
Total Dipole Moment    :      1.701297161       0.590913307       1.594088767
                        -----------------------------------------
Magnitude (a.u.)       :      2.405142316
Magnitude (Debye)      :      6.113385929

Rotational constants in cm-1:             0.023460             0.010860             0.010233
Rotational constants in MHz :           703.316614           325.586562           306.786911

                             ****ORCA TERMINATED NORMALLY****
TOTAL RUN TIME: 0 days 0 hours 4 minutes 59 seconds 230 msec
