                         Program Version 6.0.0  -   RELEASE  -
|  1> ! Engrad wB97M-D3BJ def2-TZVPPD
|  2> %pal nprocs 8 end%pal nprocs 16 end
|  3> %tddft nroots 2 Iroot 2
|  4>  sf true
|  5> end
|  6> *xyz 0 3
|  7> O   1.46891798079737 1.02315377125307 -0.05665228497543
|  8> C   0.94326161487178 -0.01089367182443 0.24946597363317
|  9> C   -0.31018492719935 -0.67202574243949 -0.23341644303589
| 10> H   1.43978072335934 -0.6276472502299 1.03120329162598
| 11> H   -0.0470801731722 -1.6586325325093 -0.61521033786492
| 12> H   -0.82324634658301 -0.09744040644048 -1.00003792110245
| 13> H   -0.96495678958671 -0.82446574875168 0.62464772171953
| 14> *
| 15>
| 16>                          ****END OF INPUT****

CARTESIAN COORDINATES (ANGSTROEM)
---------------------------------
  O      1.468918    1.023154   -0.056652
  C      0.943262   -0.010894    0.249466
  C     -0.310185   -0.672026   -0.233416
  H      1.439781   -0.627647    1.031203
  H     -0.047080   -1.658633   -0.615210
  H     -0.823246   -0.097440   -1.000038
  H     -0.964957   -0.824466    0.624648

 Total Charge           Charge          ....    0
 Multiplicity           Mult            ....    3
 Number of Electrons    NEL             ....   24
 Basis Dimension        Dim             ....  182

ORBITAL ENERGIES
----------------
                 SPIN UP ORBITALS
  NO   OCC          E(Eh)            E(eV)
   0   1.0000     -19.407806      -528.1133
   1   1.0000     -10.379750      -282.4474
   2   1.0000     -10.368595      -282.1438
   3   1.0000      -1.244568       -33.8664
   4   1.0000      -0.885744       -24.1023
   5   1.0000      -0.716669       -19.5016
   6   1.0000      -0.632136       -17.2013
   7   1.0000      -0.588682       -16.0189
   8   1.0000      -0.581278       -15.8174
   9   1.0000      -0.516219       -14.0470
  10   1.0000      -0.515375       -14.0241
  11   1.0000      -0.429288       -11.6815
  12   1.0000      -0.218579        -5.9478
  13   0.0000       0.039455         1.0736
  14   0.0000       0.060019         1.6332
  15   0.0000       0.077980         2.1219
  16   0.0000       0.087662         2.3854
  17   0.0000       0.107062         2.9133

                 SPIN DOWN ORBITALS
  NO   OCC          E(Eh)            E(eV)
   0   1.0000     -19.380465      -527.3693
   1   1.0000     -10.369504      -282.1685
   2   1.0000     -10.366546      -282.0881
   3   1.0000      -1.187723       -32.3196
   4   1.0000      -0.866686       -23.5837
   5   1.0000      -0.671265       -18.2660
   6   1.0000      -0.585649       -15.9363
   7   1.0000      -0.541356       -14.7311
   8   1.0000      -0.535773       -14.5791
   9   1.0000      -0.498418       -13.5626
  10   1.0000      -0.471584       -12.8324
  11   0.0000      -0.083060        -2.2602
  12   0.0000       0.040202         1.0939
  13   0.0000       0.059685         1.6241
  14   0.0000       0.077677         2.1137
  15   0.0000       0.084649         2.3034

----------------------------------------------------------------------------------------------------
          SPIN FLIP ABSORPTION SPECTRUM VIA TRANSITION ELECTRIC DIPOLE MOMENTS
----------------------------------------------------------------------------------------------------
     Transition      Energy     Energy  Wavelength fosc(D2)      D2        DX        DY        DZ
                      (eV)      (cm-1)    (nm)                 (au**2)    (au)      (au)      (au)
----------------------------------------------------------------------------------------------------
  1-3A  ->  2-3A    4.622153   37280.2   268.2   0.000207470   0.00183   0.02242  -0.02032  -0.03027

Dispersion correction             ... done (  0.0 sec)

MULLIKEN ATOMIC CHARGES AND SPIN DENSITIES
------------------------------------------
   0 O :   -0.267629    0.570994
   1 C :    0.229213   -0.609593
   2 C :   -0.710631    0.119033
   3 H :    0.090919    0.017414
   4 H :    0.204506   -0.048495
   5 H :    0.248329   -0.002504
   6 H :    0.205293   -0.046850
Sum of atomic charges       :   -0.0000000

LOEWDIN ATOMIC CHARGES AND SPIN DENSITIES
-----------------------------------------
   0 O :    0.158166    0.383012
   1 C :   -0.259161   -0.338236
   2 C :    0.133573   -0.017624
   3 H :    0.014781    0.010111
   4 H :   -0.019970   -0.022112
   5 H :   -0.007377    0.006970
   6 H :   -0.020010   -0.022121

  Mayer bond orders larger than 0.100000
B(  0-O ,  1-C ) :   1.2898 B(  1-C ,  2-C ) :   0.6187 B(  1-C ,  3-H ) :   1.0007
B(  2-C ,  4-H ) :   1.0147 B(  2-C ,  5-H ) :   0.9298 B(  2-C ,  6-H ) :   1.0135

Dispersion correction           -0.005519394
FINAL SINGLE POINT ENERGY      -153.753222418342

DIPOLE MOMENT
-------------

Method             : TDA/CIS
Type of density    : Electron Density
Level              : Relaxed density
State              :   2
Multiplicity       :   3
Irrep              :   0
Energy             :     0.0000000000000000 Eh
Relativity type    :
Basis              : AO
                                X                 Y                 Z
Electronic contribution:      2.570579084       2.909127681      -0.053861360
Nuclear contribution   :     -2.975398800      -3.416595526       0.094783672
                        -----------------------------------------
Total Dipole Moment    :     -0.404819716      -0.507467846       0.040922312
                        -----------------------------------------
Magnitude (a.u.)       :      0.650443889
Magnitude (Debye)      :      1.653296976

Rotational constants in cm-1:             2.123673             0.323747             0.296225
Rotational constants in MHz :         63666.125781          9705.686792          8880.604362

                             ****ORCA TERMINATED NORMALLY****
TOTAL RUN TIME: 0 days 0 hours 0 minutes 16 seconds 182 msec
