                         Program Version 6.0.0  -   RELEASE  -
|  1> ! Engrad def2-TZVPPD wB97M-D3BJ
|  2> %pal nprocs 8 end%pal nprocs 64 end
|  3> %tddft Nroots 2 Iroot 1
|  4> sf true
|  5> end
|  6> *xyz 0 3
|  7> O   3.56742517 0.56250219 -0.28262391
|  8> O   -0.82187818 0.99003835 -2.44915075
|  9> O   0.5888358 -2.77723006 -0.82165347
| 10> O   -3.69552467 -1.28064013 0.0487476
| 11> N   0.27015526 -1.38829231 0.85678639
| 12> N   -2.14731268 -0.02724741 1.24414908
| 13> N   1.87319186 -0.8944474 -0.78958824
| 14> N   -1.99043423 -0.33427405 -1.04745443
| 15> C   1.71012555 0.56109102 1.19098273
| 16> C   -0.71611772 1.38667391 -0.17392301
| 17> C   0.3998681 -0.10112252 1.51013576
| 18> C   -0.92876556 0.80522396 1.19540126
| 19> C   2.38798409 1.50043648 2.11274033
| 20> C   0.06527837 2.67824066 -0.4653859
| 21> C   2.45755228 0.09803932 0.03807644
| 22> C   -1.15077728 0.69259929 -1.32294017
| 23> C   0.92255702 -1.78084324 -0.29119236
| 24> C   -2.72929189 -0.56707676 0.09654508
| 25> H   0.47704611 -0.2438412 2.57795676
| 26> H   -0.87652742 1.55158087 1.95250156
| 27> H   3.21227051 1.95038702 1.61233075
| 28> H   1.67109193 2.23534705 2.37575191
| 29> H   2.71637023 1.02514648 3.00868631
| 30> H   -0.48898611 3.2510683 -1.19553123
| 31> H   0.11158183 3.28240915 0.46266107
| 32> H   1.11527572 2.51260158 -0.87066783
| 33> H   -0.48750233 -1.96935998 1.08885278
| 34> H   -2.62970263 -0.1441728 2.10109561
| 35> H   2.39858758 -1.20780352 -1.57892442
| 36> H   -2.44798879 -0.73624112 -1.86392289
| 37> *
| 38>
| 39>                          ****END OF INPUT****

CARTESIAN COORDINATES (ANGSTROEM)
---------------------------------
  O      3.567425    0.562502   -0.282624
  O     -0.821878    0.990038   -2.449151
  O      0.588836   -2.777230   -0.821653
  O     -3.695525   -1.280640    0.048748
  N      0.270155   -1.388292    0.856786
  N     -2.147313   -0.027247    1.244149
  N      1.873192   -0.894447   -0.789588
  N     -1.990434   -0.334274   -1.047454
  C      1.710126    0.561091    1.190983
  C     -0.716118    1.386674   -0.173923
  C      0.399868   -0.101123    1.510136
  C     -0.928766    0.805224    1.195401
  C      2.387984    1.500436    2.112740
  C      0.065278    2.678241   -0.465386
  C      2.457552    0.098039    0.038076
  C     -1.150777    0.692599   -1.322940
  C      0.922557   -1.780843   -0.291192
  C     -2.729292   -0.567077    0.096545
  H      0.477046   -0.243841    2.577957
  H     -0.876527    1.551581    1.952502
  H      3.212271    1.950387    1.612331
  H      1.671092    2.235347    2.375752
  H      2.716370    1.025146    3.008686
  H     -0.488986    3.251068   -1.195531
  H      0.111582    3.282409    0.462661
  H      1.115276    2.512602   -0.870668
  H     -0.487502   -1.969360    1.088853
  H     -2.629703   -0.144173    2.101096
  H      2.398588   -1.207804   -1.578924
  H     -2.447989   -0.736241   -1.863923

 Total Charge           Charge          ....    0
 Multiplicity           Mult            ....    3
 Number of Electrons    NEL             ....  132
 Basis Dimension        Dim             ....  882

ORBITAL ENERGIES
----------------
                 SPIN UP ORBITALS
  NO   OCC          E(Eh)            E(eV)
   0   1.0000     -19.336224      -526.1654
   1   1.0000     -19.327018      -525.9149
   2   1.0000     -19.325700      -525.8790
   3   1.0000     -19.312766      -525.5271
   4   1.0000     -14.569721      -396.4623
   5   1.0000     -14.560198      -396.2031
   6   1.0000     -14.557608      -396.1326
   7   1.0000     -14.547340      -395.8533
   8   1.0000     -10.511287      -286.0267
   9   1.0000     -10.494762      -285.5770
  10   1.0000     -10.483855      -285.2802
  11   1.0000     -10.467134      -284.8252
  12   1.0000     -10.453470      -284.4534
  13   1.0000     -10.444542      -284.2104
  14   1.0000     -10.423924      -283.6494
  15   1.0000     -10.414529      -283.3937
  16   1.0000     -10.378017      -282.4002
  17   1.0000     -10.368732      -282.1476
  18   1.0000      -1.227047       -33.3896
  19   1.0000      -1.223677       -33.2980
  20   1.0000      -1.198790       -32.6207
  21   1.0000      -1.188953       -32.3531
  22   1.0000      -1.116751       -30.3884
  23   1.0000      -1.095284       -29.8042
  24   1.0000      -1.066102       -29.0101
  25   1.0000      -1.052579       -28.6421
  26   1.0000      -0.980937       -26.6926
  27   1.0000      -0.953762       -25.9532
  28   1.0000      -0.886255       -24.1162
  29   1.0000      -0.843704       -22.9584
  30   1.0000      -0.827781       -22.5251
  31   1.0000      -0.802076       -21.8256
  32   1.0000      -0.791815       -21.5464
  33   1.0000      -0.773711       -21.0537
  34   1.0000      -0.701569       -19.0907
  35   1.0000      -0.697047       -18.9676
  36   1.0000      -0.689873       -18.7724
  37   1.0000      -0.670357       -18.2413
  38   1.0000      -0.647907       -17.6304
  39   1.0000      -0.641894       -17.4668
  40   1.0000      -0.619890       -16.8681
  41   1.0000      -0.604418       -16.4470
  42   1.0000      -0.598099       -16.2751
  43   1.0000      -0.585060       -15.9203
  44   1.0000      -0.576146       -15.6777
  45   1.0000      -0.571157       -15.5420
  46   1.0000      -0.567116       -15.4320
  47   1.0000      -0.563032       -15.3209
  48   1.0000      -0.561874       -15.2894
  49   1.0000      -0.555363       -15.1122
  50   1.0000      -0.550435       -14.9781
  51   1.0000      -0.533861       -14.5271
  52   1.0000      -0.526562       -14.3285
  53   1.0000      -0.520003       -14.1500
  54   1.0000      -0.512934       -13.9576
  55   1.0000      -0.508491       -13.8367
  56   1.0000      -0.497450       -13.5363
  57   1.0000      -0.424378       -11.5479
  58   1.0000      -0.419879       -11.4255
  59   1.0000      -0.411890       -11.2081
  60   1.0000      -0.403256       -10.9731
  61   1.0000      -0.400870       -10.9082
  62   1.0000      -0.391916       -10.6646
  63   1.0000      -0.389497       -10.5988
  64   1.0000      -0.384321       -10.4579
  65   1.0000      -0.346479        -9.4282
  66   1.0000      -0.327206        -8.9037
  67   0.0000       0.006746         0.1836
  68   0.0000       0.030859         0.8397
  69   0.0000       0.031454         0.8559
  70   0.0000       0.037044         1.0080
  71   0.0000       0.056067         1.5257

                 SPIN DOWN ORBITALS
  NO   OCC          E(Eh)            E(eV)
   0   1.0000     -19.331009      -526.0235
   1   1.0000     -19.326835      -525.9099
   2   1.0000     -19.321542      -525.7659
   3   1.0000     -19.312712      -525.5256
   4   1.0000     -14.569437      -396.4545
   5   1.0000     -14.559683      -396.1891
   6   1.0000     -14.556838      -396.1117
   7   1.0000     -14.547205      -395.8496
   8   1.0000     -10.511323      -286.0277
   9   1.0000     -10.494799      -285.5780
  10   1.0000     -10.485007      -285.3115
  11   1.0000     -10.468072      -284.8507
  12   1.0000     -10.453084      -284.4429
  13   1.0000     -10.443860      -284.1919
  14   1.0000     -10.412769      -283.3458
  15   1.0000     -10.403220      -283.0860
  16   1.0000     -10.378526      -282.4140
  17   1.0000     -10.369225      -282.1610
  18   1.0000      -1.225859       -33.3573
  19   1.0000      -1.222924       -33.2775
  20   1.0000      -1.193716       -32.4827
  21   1.0000      -1.181830       -32.1592
  22   1.0000      -1.114042       -30.3146
  23   1.0000      -1.092788       -29.7363
  24   1.0000      -1.064059       -28.9545
  25   1.0000      -1.051008       -28.5994
  26   1.0000      -0.967229       -26.3196
  27   1.0000      -0.936760       -25.4905
  28   1.0000      -0.880306       -23.9543
  29   1.0000      -0.838191       -22.8084
  30   1.0000      -0.820221       -22.3193
  31   1.0000      -0.796782       -21.6815
  32   1.0000      -0.790117       -21.5002
  33   1.0000      -0.772365       -21.0171
  34   1.0000      -0.696950       -18.9650
  35   1.0000      -0.692284       -18.8380
  36   1.0000      -0.683596       -18.6016
  37   1.0000      -0.662844       -18.0369
  38   1.0000      -0.638979       -17.3875
  39   1.0000      -0.634383       -17.2624
  40   1.0000      -0.616599       -16.7785
  41   1.0000      -0.599928       -16.3249
  42   1.0000      -0.589808       -16.0495
  43   1.0000      -0.579005       -15.7555
  44   1.0000      -0.568847       -15.4791
  45   1.0000      -0.565795       -15.3961
  46   1.0000      -0.562342       -15.3021
  47   1.0000      -0.557503       -15.1704
  48   1.0000      -0.551905       -15.0181
  49   1.0000      -0.545993       -14.8572
  50   1.0000      -0.543335       -14.7849
  51   1.0000      -0.526503       -14.3269
  52   1.0000      -0.517309       -14.0767
  53   1.0000      -0.510124       -13.8812
  54   1.0000      -0.504684       -13.7331
  55   1.0000      -0.502112       -13.6632
  56   1.0000      -0.492275       -13.3955
  57   1.0000      -0.420995       -11.4558
  58   1.0000      -0.414672       -11.2838
  59   1.0000      -0.403532       -10.9807
  60   1.0000      -0.394189       -10.7264
  61   1.0000      -0.387253       -10.5377
  62   1.0000      -0.385684       -10.4950
  63   1.0000      -0.384474       -10.4621
  64   1.0000      -0.372443       -10.1347
  65   0.0000      -0.062195        -1.6924
  66   0.0000      -0.054685        -1.4881
  67   0.0000       0.006215         0.1691
  68   0.0000       0.030656         0.8342
  69   0.0000       0.031248         0.8503

----------------------------------------------------------------------------------------------------
          SPIN FLIP ABSORPTION SPECTRUM VIA TRANSITION ELECTRIC DIPOLE MOMENTS
----------------------------------------------------------------------------------------------------
     Transition      Energy     Energy  Wavelength fosc(D2)      D2        DX        DY        DZ
                      (eV)      (cm-1)    (nm)                 (au**2)    (au)      (au)      (au)
----------------------------------------------------------------------------------------------------
  1-3A  ->  2-3A    0.020183     162.8  61431.0   0.000000843   0.00171  -0.04128   0.00113  -0.00053

Dispersion correction             ... done (  0.1 sec)

MULLIKEN ATOMIC CHARGES AND SPIN DENSITIES
------------------------------------------
   0 O :   -0.679242    0.180227
   1 O :   -0.699298   -0.143111
   2 O :   -0.620664    0.000600
   3 O :   -0.630604   -0.002242
   4 N :   -0.311238    0.000956
   5 N :   -0.219713   -0.010293
   6 N :    0.090637    0.010131
   7 N :    0.027534   -0.034324
   8 C :   -0.034132    0.310227
   9 C :    1.202421    0.193314
  10 C :    0.404536    0.100585
  11 C :   -0.001884   -0.284694
  12 C :   -1.497049   -0.001173
  13 C :   -1.471639   -0.040318
  14 C :    0.566201    0.142250
  15 C :   -0.179094   -0.416378
  16 C :    0.403635   -0.013972
  17 C :    0.395766    0.010722
  18 H :    0.557223    0.027509
  19 H :    0.546728   -0.035927
  20 H :    0.312053    0.008454
  21 H :    0.338243    0.007407
  22 H :    0.362730    0.019830
  23 H :    0.446126   -0.004723
  24 H :    0.319899   -0.000119
  25 H :    0.233339   -0.023191
  26 H :    0.001837   -0.002736
  27 H :    0.019372   -0.000603
  28 H :    0.048268   -0.002430
  29 H :    0.068009    0.004024
Sum of atomic charges       :    0.0000000

LOEWDIN ATOMIC CHARGES AND SPIN DENSITIES
-----------------------------------------
   0 O :    0.063491    0.157510
   1 O :    0.095480   -0.123601
   2 O :    0.124215    0.000683
   3 O :    0.102157   -0.002914
   4 N :    0.289927    0.001022
   5 N :    0.296470    0.001617
   6 N :    0.346905    0.008118
   7 N :    0.319031   -0.032555
   8 C :   -0.037044    0.456009
   9 C :   -0.003145   -0.441834
  10 C :   -0.070008    0.006972
  11 C :   -0.050125   -0.026078
  12 C :    0.216753    0.065541
  13 C :    0.199277   -0.050689
  14 C :   -0.354378    0.070454
  15 C :   -0.489428   -0.091415
  16 C :   -0.509561   -0.001201
  17 C :   -0.473314   -0.001819
  18 H :    0.039436    0.003051
  19 H :    0.026489   -0.004135
  20 H :   -0.014091    0.000088
  21 H :   -0.023404    0.012389
  22 H :   -0.000885    0.020500
  23 H :   -0.007901   -0.010203
  24 H :    0.000537    0.000692
  25 H :    0.041934   -0.017635
  26 H :   -0.061760    0.000483
  27 H :   -0.053121    0.000413
  28 H :   -0.023174    0.000947
  29 H :    0.009237   -0.002413

  Mayer bond orders larger than 0.100000
B(  0-O , 14-C ) :   1.3272 B(  1-O , 15-C ) :   1.3284 B(  2-O , 16-C ) :   1.5466
B(  3-O , 17-C ) :   1.6085 B(  4-N ,  8-C ) :   0.2264 B(  4-N , 10-C ) :   0.4464
B(  4-N , 15-C ) :   0.1174 B(  4-N , 16-C ) :   1.0242 B(  4-N , 18-H ) :  -0.1229
B(  4-N , 26-H ) :   1.1434 B(  5-N , 10-C ) :   0.1580 B(  5-N , 11-C ) :   0.4086
B(  5-N , 17-C ) :   1.1130 B(  5-N , 27-H ) :   1.1520 B(  6-N , 14-C ) :   1.0816
B(  6-N , 16-C ) :   0.9744 B(  6-N , 28-H ) :   1.0709 B(  7-N , 11-C ) :   0.1468
B(  7-N , 15-C ) :   1.0383 B(  7-N , 17-C ) :   1.0086 B(  7-N , 29-H ) :   1.0505
B(  8-C ,  9-C ) :   0.1120 B(  8-C , 10-C ) :   0.1214 B(  8-C , 11-C ) :   0.2572
B(  8-C , 12-C ) :   0.6279 B(  8-C , 14-C ) :   0.6605 B(  8-C , 16-C ) :   0.1384
B(  8-C , 18-H ) :  -0.1733 B(  8-C , 20-H ) :  -0.1012 B(  9-C , 10-C ) :   0.1322
B(  9-C , 11-C ) :   0.5574 B(  9-C , 13-C ) :   0.2230 B(  9-C , 15-C ) :   0.4865
B(  9-C , 24-H ) :  -0.1389 B( 10-C , 11-C ) :   0.5478 B( 10-C , 12-C ) :  -0.2041
B( 10-C , 16-C ) :  -0.1665 B( 10-C , 18-H ) :   0.8126 B( 11-C , 17-C ) :  -0.1616
B( 11-C , 19-H ) :   0.7994 B( 12-C , 14-C ) :  -0.1509 B( 12-C , 20-H ) :   1.0285
B( 12-C , 21-H ) :   0.9238 B( 12-C , 22-H ) :   0.8322 B( 13-C , 23-H ) :   0.8537
B( 13-C , 24-H ) :   1.0684 B( 13-C , 25-H ) :   0.9135 B( 14-C , 16-C ) :  -0.1020

Dispersion correction           -0.058759518
FINAL SINGLE POINT ENERGY      -908.787010507551

DIPOLE MOMENT
-------------

Method             : TDA/CIS
Type of density    : Electron Density
Level              : Relaxed density
State              :   1
Multiplicity       :   3
Irrep              :   0
Energy             :     0.0000000000000000 Eh
Relativity type    :
Basis              : AO
                                X                 Y                 Z
Electronic contribution:     -4.408767630      -9.333508380      -6.175728241
Nuclear contribution   :      4.453737066      10.842308757       8.838154696
                        -----------------------------------------
Total Dipole Moment    :      0.044969436       1.508800377       2.662426455
                        -----------------------------------------
Magnitude (a.u.)       :      3.060558030
Magnitude (Debye)      :      7.779320279

Rotational constants in cm-1:             0.021874             0.012774             0.011794
Rotational constants in MHz :           655.760680           382.949756           353.577569

                             ****ORCA TERMINATED NORMALLY****
TOTAL RUN TIME: 0 days 0 hours 4 minutes 36 seconds 938 msec
