                         Program Version 6.0.0  -   RELEASE  -
|  1> ! EnGrad wB97M-D3BJ def2-TZVPPD
|  2> %pal nprocs 8 end%pal nprocs 16 end
|  3> %tddft
|  4>  sf true
|  5>  nroots 2 Iroot 1 end
|  6> *xyz 0 3
|  7> O   0.23037835684426 0.94155793098676 -0.00142425711619
|  8> C   0.65021753863476 -0.33605328535258 -0.00027672380919
|  9> C   -0.73381188611605 -0.64888691828955 0.00038573939778
| 10> H   1.20773589942337 -0.64368279827926 0.89110002870987
| 11> H   1.20782326516699 -0.64500964718321 -0.89109710527534
| 12> H   -1.28043291335727 -0.69443206209628 -0.92724500742355
| 13> H   -1.27971026059607 -0.69189321978588 0.92855732551662
| 14> *
| 15>
| 16>                          ****END OF INPUT****

CARTESIAN COORDINATES (ANGSTROEM)
---------------------------------
  O      0.230378    0.941558   -0.001424
  C      0.650218   -0.336053   -0.000277
  C     -0.733812   -0.648887    0.000386
  H      1.207736   -0.643683    0.891100
  H      1.207823   -0.645010   -0.891097
  H     -1.280433   -0.694432   -0.927245
  H     -1.279710   -0.691893    0.928557

 Total Charge           Charge          ....    0
 Multiplicity           Mult            ....    3
 Number of Electrons    NEL             ....   24
 Basis Dimension        Dim             ....  182

ORBITAL ENERGIES
----------------
                 SPIN UP ORBITALS
  NO   OCC          E(Eh)            E(eV)
   0   1.0000     -19.416163      -528.3407
   1   1.0000     -10.407733      -283.2088
   2   1.0000     -10.335519      -281.2438
   3   1.0000      -1.225271       -33.3413
   4   1.0000      -0.863337       -23.4926
   5   1.0000      -0.744327       -20.2542
   6   1.0000      -0.650457       -17.6998
   7   1.0000      -0.613926       -16.7058
   8   1.0000      -0.549834       -14.9618
   9   1.0000      -0.503066       -13.6891
  10   1.0000      -0.459564       -12.5054
  11   1.0000      -0.444958       -12.1079
  12   1.0000      -0.250726        -6.8226
  13   0.0000       0.040525         1.1028
  14   0.0000       0.063694         1.7332
  15   0.0000       0.072428         1.9709
  16   0.0000       0.085632         2.3302
  17   0.0000       0.115792         3.1508

                 SPIN DOWN ORBITALS
  NO   OCC          E(Eh)            E(eV)
   0   1.0000     -19.386493      -527.5333
   1   1.0000     -10.408804      -283.2379
   2   1.0000     -10.323110      -280.9061
   3   1.0000      -1.162988       -31.6465
   4   1.0000      -0.828880       -22.5550
   5   1.0000      -0.723770       -19.6948
   6   1.0000      -0.605471       -16.4757
   7   1.0000      -0.577118       -15.7042
   8   1.0000      -0.524122       -14.2621
   9   1.0000      -0.471865       -12.8401
  10   1.0000      -0.395701       -10.7676
  11   0.0000      -0.080556        -2.1920
  12   0.0000       0.038171         1.0387
  13   0.0000       0.042346         1.1523
  14   0.0000       0.063591         1.7304
  15   0.0000       0.070535         1.9194

----------------------------------------------------------------------------------------------------
          SPIN FLIP ABSORPTION SPECTRUM VIA TRANSITION ELECTRIC DIPOLE MOMENTS
----------------------------------------------------------------------------------------------------
     Transition      Energy     Energy  Wavelength fosc(D2)      D2        DX        DY        DZ
                      (eV)      (cm-1)    (nm)                 (au**2)    (au)      (au)      (au)
----------------------------------------------------------------------------------------------------
  1-3A  ->  2-3A    3.185292   25691.1   389.2   0.001305883   0.01673   0.00029   0.00032   0.12936

Dispersion correction             ... done (  0.0 sec)

MULLIKEN ATOMIC CHARGES AND SPIN DENSITIES
------------------------------------------
   0 O :   -0.491397   -0.057375
   1 C :   -0.141388   -0.065993
   2 C :   -0.324598    0.026369
   3 H :    0.229580    0.032323
   4 H :    0.229606    0.032257
   5 H :    0.249074    0.016152
   6 H :    0.249123    0.016266
Sum of atomic charges       :   -0.0000000

LOEWDIN ATOMIC CHARGES AND SPIN DENSITIES
-----------------------------------------
   0 O :   -0.058361   -0.088494
   1 C :   -0.314926   -0.006264
   2 C :    0.314715    0.073620
   3 H :    0.029934    0.005539
   4 H :    0.029927    0.005521
   5 H :   -0.000642    0.005036
   6 H :   -0.000647    0.005042

  Mayer bond orders larger than 0.100000
B(  0-O ,  1-C ) :   0.7317 B(  0-O ,  2-C ) :   0.9129 B(  1-C ,  2-C ) :   0.7882
B(  1-C ,  3-H ) :   1.0304 B(  1-C ,  4-H ) :   1.0303 B(  2-C ,  5-H ) :   0.9352
B(  2-C ,  6-H ) :   0.9352

Dispersion correction           -0.005515432
FINAL SINGLE POINT ENERGY      -153.821933127694

DIPOLE MOMENT
-------------

Method             : TDA/CIS
Type of density    : Electron Density
Level              : Relaxed density
State              :   1
Multiplicity       :   3
Irrep              :   0
Energy             :     0.0000000000000000 Eh
Relativity type    :
Basis              : AO
                                X                 Y                 Z
Electronic contribution:     -0.022154989       1.251212410      -0.001549639
Nuclear contribution   :     -0.349124284      -2.541677352       0.002936262
                        -----------------------------------------
Total Dipole Moment    :     -0.371279273      -1.290464942       0.001386623
                        -----------------------------------------
Magnitude (a.u.)       :      1.342814204
Magnitude (Debye)      :      3.413162458

Rotational constants in cm-1:             1.006368             0.547118             0.412273
Rotational constants in MHz :         30170.163938         16402.184175         12359.642902

                             ****ORCA TERMINATED NORMALLY****
TOTAL RUN TIME: 0 days 0 hours 0 minutes 17 seconds 831 msec
