                         Program Version 6.0.0  -   RELEASE  -
|  1> ! Engrad def2-TZVPPD wB97M-D3BJ
|  2> %pal nprocs 8 end%pal nprocs 64 end
|  3> %tddft
|  4>  Iroot 1 Nroots 3
|  5> sf true
|  6> end
|  7> *xyz 0 3
|  8> O   1.19067242 0.96830331 0.06232761
|  9> C   0.12328125 0.20288832 0.43171144
| 10> C   -0.09290918 -1.10037228 -0.30962476
| 11> H   -0.68860037 0.99544723 0.41122492
| 12> H   0.26047105 0.16254571 1.54899274
| 13> H   0.53738808 -1.87416901 0.08561984
| 14> H   -0.72917675 -1.20697082 -1.20302137
| 15> *
| 16>
| 17>                          ****END OF INPUT****

CARTESIAN COORDINATES (ANGSTROEM)
---------------------------------
  O      1.190672    0.968303    0.062328
  C      0.123281    0.202888    0.431711
  C     -0.092909   -1.100372   -0.309625
  H     -0.688600    0.995447    0.411225
  H      0.260471    0.162546    1.548993
  H      0.537388   -1.874169    0.085620
  H     -0.729177   -1.206971   -1.203021

 Total Charge           Charge          ....    0
 Multiplicity           Mult            ....    3
 Number of Electrons    NEL             ....   24
 Basis Dimension        Dim             ....  182

ORBITAL ENERGIES
----------------
                 SPIN UP ORBITALS
  NO   OCC          E(Eh)            E(eV)
   0   1.0000     -19.378344      -527.3115
   1   1.0000     -10.419076      -283.5175
   2   1.0000     -10.378147      -282.4037
   3   1.0000      -1.165020       -31.7018
   4   1.0000      -0.867679       -23.6108
   5   1.0000      -0.735621       -20.0173
   6   1.0000      -0.614450       -16.7200
   7   1.0000      -0.575353       -15.6561
   8   1.0000      -0.547272       -14.8920
   9   1.0000      -0.532576       -14.4921
  10   1.0000      -0.414093       -11.2680
  11   1.0000      -0.406531       -11.0623
  12   1.0000      -0.338066        -9.1992
  13   0.0000       0.040356         1.0982
  14   0.0000       0.059604         1.6219
  15   0.0000       0.076280         2.0757
  16   0.0000       0.089255         2.4288
  17   0.0000       0.114398         3.1129

                 SPIN DOWN ORBITALS
  NO   OCC          E(Eh)            E(eV)
   0   1.0000     -19.354405      -526.6601
   1   1.0000     -10.420335      -283.5517
   2   1.0000     -10.365076      -282.0481
   3   1.0000      -1.112948       -30.2849
   4   1.0000      -0.833216       -22.6730
   5   1.0000      -0.708738       -19.2857
   6   1.0000      -0.581399       -15.8207
   7   1.0000      -0.553804       -15.0698
   8   1.0000      -0.518642       -14.1130
   9   1.0000      -0.491137       -13.3645
  10   1.0000      -0.376008       -10.2317
  11   0.0000      -0.043220        -1.1761
  12   0.0000      -0.010573        -0.2877
  13   0.0000       0.039538         1.0759
  14   0.0000       0.060072         1.6347
  15   0.0000       0.076255         2.0750

----------------------------------------------------------------------------------------------------
          SPIN FLIP ABSORPTION SPECTRUM VIA TRANSITION ELECTRIC DIPOLE MOMENTS
----------------------------------------------------------------------------------------------------
     Transition      Energy     Energy  Wavelength fosc(D2)      D2        DX        DY        DZ
                      (eV)      (cm-1)    (nm)                 (au**2)    (au)      (au)      (au)
----------------------------------------------------------------------------------------------------
  1-3A  ->  2-3A    0.195333    1575.5  6347.3   0.000029483   0.00616   0.02800   0.05966   0.04263
  1-3A  ->  3-3A    0.687416    5544.4  1803.6   0.000010246   0.00061   0.02037   0.00977   0.00990

Dispersion correction             ... done (  0.1 sec)

MULLIKEN ATOMIC CHARGES AND SPIN DENSITIES
------------------------------------------
   0 O :   -0.355677    0.760500
   1 C :   -0.080285    0.117082
   2 C :   -0.219741   -0.826259
   3 H :    0.206331    0.058136
   4 H :    0.212547    0.037417
   5 H :    0.112211   -0.073383
   6 H :    0.124613   -0.073493
Sum of atomic charges       :    0.0000000

LOEWDIN ATOMIC CHARGES AND SPIN DENSITIES
-----------------------------------------
   0 O :    0.023381    0.724645
   1 C :   -0.286728    0.010229
   2 C :    0.316106   -0.640625
   3 H :    0.049345    0.045731
   4 H :    0.038906    0.027178
   5 H :   -0.084813   -0.085824
   6 H :   -0.056197   -0.081334

  Mayer bond orders larger than 0.100000
B(  0-O ,  1-C ) :   0.9335 B(  1-C ,  2-C ) :   0.8438 B(  1-C ,  3-H ) :   0.9123
B(  1-C ,  4-H ) :   0.9414 B(  2-C ,  5-H ) :   1.0460 B(  2-C ,  6-H ) :   1.0411

Dispersion correction           -0.005401249
FINAL SINGLE POINT ENERGY      -153.744400886486

DIPOLE MOMENT
-------------

Method             : TDA/CIS
Type of density    : Electron Density
Level              : Relaxed density
State              :   1
Multiplicity       :   3
Irrep              :   0
Energy             :     0.0000000000000000 Eh
Relativity type    :
Basis              : AO
                                X                 Y                 Z
Electronic contribution:      1.565322870       1.649837824      -0.293923791
Nuclear contribution   :     -2.170895530      -2.027140213       0.508287675
                        -----------------------------------------
Total Dipole Moment    :     -0.605572661      -0.377302389       0.214363884
                        -----------------------------------------
Magnitude (a.u.)       :      0.745001487
Magnitude (Debye)      :      1.893643289

Rotational constants in cm-1:             1.476632             0.328291             0.299949
Rotational constants in MHz :         44268.300707          9841.905088          8992.246563

                             ****ORCA TERMINATED NORMALLY****
TOTAL RUN TIME: 0 days 0 hours 0 minutes 25 seconds 943 msec
