                         Program Version 6.0.0  -   RELEASE  -
|  1> ! Engrad def2-TZVPPD wB97M-D3BJ
|  2> %pal nprocs 8 end%pal nprocs 64 end
|  3> %tddft
|  4>  Iroot 2 Nroots 3
|  5> sf true
|  6> end
|  7> *xyz 0 3
|  8> O   3.43262777 -0.26655304 -0.2001156
|  9> O   -0.63012592 0.86349286 -2.78824589
| 10> O   -0.08888353 -2.91677998 -0.53520344
| 11> O   -3.77012766 -0.31380576 0.13560974
| 12> N   -0.19281345 -1.38604482 1.15042322
| 13> N   -1.99750879 0.89298228 0.91676638
| 14> N   1.47628185 -1.31111769 -0.51707476
| 15> N   -1.96101745 -0.05667631 -1.20364334
| 16> C   1.65272388 0.08682384 1.38605487
| 17> C   -0.15486631 1.27842628 -0.5586094
| 18> C   0.19377193 -0.03012019 1.61864313
| 19> C   -0.58749108 1.10275985 0.83429802
| 20> C   2.41998314 1.16016446 2.06279257
| 21> C   1.13117542 2.01029994 -0.99067582
| 22> C   2.30486077 -0.54472005 0.24755397
| 23> C   -0.92159661 0.69519841 -1.61506225
| 24> C   0.39558801 -1.98870637 0.04645032
| 25> C   -2.69480275 0.14377454 -0.02125138
| 26> H   -0.09772426 0.04615163 2.68101599
| 27> H   -0.46663708 2.02035586 1.41370933
| 28> H   3.36079044 1.2796861 1.50764562
| 29> H   1.88347945 2.15450235 2.07340146
| 30> H   2.62228863 1.03550439 3.17165304
| 31> H   1.82072426 1.32553386 -1.46477279
| 32> H   0.88390876 2.6936097 -1.7923905
| 33> H   1.57177578 2.5534782 -0.15545782
| 34> H   -1.11435124 -1.59935216 1.16286331
| 35> H   -2.42761269 1.00698113 1.764333
| 36> H   1.85095275 -1.88144947 -1.26872505
| 37> H   -2.48236107 -0.55468872 -1.93623321
| 38> *
| 39>
| 40>                          ****END OF INPUT****

CARTESIAN COORDINATES (ANGSTROEM)
---------------------------------
  O      3.432628   -0.266553   -0.200116
  O     -0.630126    0.863493   -2.788246
  O     -0.088884   -2.916780   -0.535203
  O     -3.770128   -0.313806    0.135610
  N     -0.192813   -1.386045    1.150423
  N     -1.997509    0.892982    0.916766
  N      1.476282   -1.311118   -0.517075
  N     -1.961017   -0.056676   -1.203643
  C      1.652724    0.086824    1.386055
  C     -0.154866    1.278426   -0.558609
  C      0.193772   -0.030120    1.618643
  C     -0.587491    1.102760    0.834298
  C      2.419983    1.160164    2.062793
  C      1.131175    2.010300   -0.990676
  C      2.304861   -0.544720    0.247554
  C     -0.921597    0.695198   -1.615062
  C      0.395588   -1.988706    0.046450
  C     -2.694803    0.143775   -0.021251
  H     -0.097724    0.046152    2.681016
  H     -0.466637    2.020356    1.413709
  H      3.360790    1.279686    1.507646
  H      1.883479    2.154502    2.073401
  H      2.622289    1.035504    3.171653
  H      1.820724    1.325534   -1.464773
  H      0.883909    2.693610   -1.792390
  H      1.571776    2.553478   -0.155458
  H     -1.114351   -1.599352    1.162863
  H     -2.427613    1.006981    1.764333
  H      1.850953   -1.881449   -1.268725
  H     -2.482361   -0.554689   -1.936233

 Total Charge           Charge          ....    0
 Multiplicity           Mult            ....    3
 Number of Electrons    NEL             ....  132
 Basis Dimension        Dim             ....  882

ORBITAL ENERGIES
----------------
                 SPIN UP ORBITALS
  NO   OCC          E(Eh)            E(eV)
   0   1.0000     -19.337359      -526.1963
   1   1.0000     -19.332945      -526.0762
   2   1.0000     -19.326258      -525.8942
   3   1.0000     -19.324905      -525.8574
   4   1.0000     -14.566878      -396.3849
   5   1.0000     -14.562346      -396.2616
   6   1.0000     -14.561326      -396.2338
   7   1.0000     -14.554505      -396.0482
   8   1.0000     -10.511848      -286.0419
   9   1.0000     -10.505459      -285.8681
  10   1.0000     -10.486659      -285.3565
  11   1.0000     -10.469093      -284.8785
  12   1.0000     -10.450892      -284.3832
  13   1.0000     -10.445446      -284.2350
  14   1.0000     -10.425610      -283.6953
  15   1.0000     -10.411983      -283.3245
  16   1.0000     -10.382137      -282.5123
  17   1.0000     -10.364454      -282.0311
  18   1.0000      -1.238277       -33.6952
  19   1.0000      -1.228955       -33.4416
  20   1.0000      -1.196999       -32.5720
  21   1.0000      -1.193719       -32.4828
  22   1.0000      -1.130511       -30.7628
  23   1.0000      -1.104697       -30.0603
  24   1.0000      -1.074178       -29.2299
  25   1.0000      -1.064553       -28.9679
  26   1.0000      -0.985585       -26.8191
  27   1.0000      -0.950722       -25.8705
  28   1.0000      -0.887997       -24.1636
  29   1.0000      -0.840508       -22.8714
  30   1.0000      -0.828090       -22.5335
  31   1.0000      -0.806733       -21.9523
  32   1.0000      -0.796354       -21.6699
  33   1.0000      -0.782548       -21.2942
  34   1.0000      -0.704642       -19.1743
  35   1.0000      -0.701475       -19.0881
  36   1.0000      -0.692012       -18.8306
  37   1.0000      -0.675638       -18.3850
  38   1.0000      -0.661920       -18.0118
  39   1.0000      -0.641357       -17.4522
  40   1.0000      -0.623955       -16.9787
  41   1.0000      -0.608264       -16.5517
  42   1.0000      -0.601138       -16.3578
  43   1.0000      -0.589861       -16.0509
  44   1.0000      -0.578506       -15.7420
  45   1.0000      -0.572279       -15.5725
  46   1.0000      -0.568077       -15.4582
  47   1.0000      -0.566652       -15.4194
  48   1.0000      -0.559079       -15.2133
  49   1.0000      -0.555859       -15.1257
  50   1.0000      -0.548852       -14.9350
  51   1.0000      -0.533255       -14.5106
  52   1.0000      -0.531411       -14.4604
  53   1.0000      -0.518698       -14.1145
  54   1.0000      -0.504478       -13.7275
  55   1.0000      -0.503133       -13.6909
  56   1.0000      -0.495130       -13.4732
  57   1.0000      -0.429261       -11.6808
  58   1.0000      -0.426501       -11.6057
  59   1.0000      -0.421378       -11.4663
  60   1.0000      -0.408670       -11.1205
  61   1.0000      -0.407148       -11.0791
  62   1.0000      -0.398319       -10.8388
  63   1.0000      -0.393369       -10.7041
  64   1.0000      -0.387130       -10.5343
  65   1.0000      -0.348258        -9.4766
  66   1.0000      -0.326858        -8.8943
  67   0.0000       0.006963         0.1895
  68   0.0000       0.031897         0.8680
  69   0.0000       0.033832         0.9206
  70   0.0000       0.036216         0.9855
  71   0.0000       0.054660         1.4874

                 SPIN DOWN ORBITALS
  NO   OCC          E(Eh)            E(eV)
   0   1.0000     -19.332855      -526.0737
   1   1.0000     -19.332759      -526.0711
   2   1.0000     -19.326200      -525.8926
   3   1.0000     -19.320827      -525.7464
   4   1.0000     -14.566024      -396.3617
   5   1.0000     -14.561644      -396.2425
   6   1.0000     -14.561067      -396.2268
   7   1.0000     -14.554360      -396.0443
   8   1.0000     -10.511892      -286.0431
   9   1.0000     -10.505513      -285.8695
  10   1.0000     -10.487698      -285.3848
  11   1.0000     -10.470047      -284.9045
  12   1.0000     -10.450351      -284.3685
  13   1.0000     -10.445100      -284.2256
  14   1.0000     -10.414390      -283.3900
  15   1.0000     -10.400558      -283.0136
  16   1.0000     -10.382841      -282.5315
  17   1.0000     -10.364962      -282.0449
  18   1.0000      -1.237569       -33.6760
  19   1.0000      -1.228029       -33.4164
  20   1.0000      -1.191597       -32.4250
  21   1.0000      -1.188195       -32.3324
  22   1.0000      -1.127817       -30.6895
  23   1.0000      -1.102059       -29.9885
  24   1.0000      -1.071824       -29.1658
  25   1.0000      -1.062816       -28.9207
  26   1.0000      -0.972311       -26.4579
  27   1.0000      -0.932877       -25.3849
  28   1.0000      -0.881585       -23.9891
  29   1.0000      -0.836265       -22.7559
  30   1.0000      -0.820744       -22.3336
  31   1.0000      -0.801812       -21.8184
  32   1.0000      -0.794940       -21.6314
  33   1.0000      -0.780975       -21.2514
  34   1.0000      -0.698740       -19.0137
  35   1.0000      -0.695649       -18.9296
  36   1.0000      -0.685654       -18.6576
  37   1.0000      -0.667942       -18.1756
  38   1.0000      -0.651925       -17.7398
  39   1.0000      -0.636377       -17.3167
  40   1.0000      -0.619794       -16.8655
  41   1.0000      -0.603684       -16.4271
  42   1.0000      -0.595255       -16.1977
  43   1.0000      -0.585682       -15.9372
  44   1.0000      -0.571193       -15.5430
  45   1.0000      -0.569201       -15.4888
  46   1.0000      -0.563147       -15.3240
  47   1.0000      -0.559537       -15.2258
  48   1.0000      -0.553157       -15.0522
  49   1.0000      -0.545394       -14.8409
  50   1.0000      -0.534156       -14.5351
  51   1.0000      -0.527276       -14.3479
  52   1.0000      -0.522762       -14.2251
  53   1.0000      -0.510932       -13.9032
  54   1.0000      -0.498760       -13.5720
  55   1.0000      -0.494002       -13.4425
  56   1.0000      -0.490054       -13.3351
  57   1.0000      -0.425661       -11.5828
  58   1.0000      -0.422862       -11.5066
  59   1.0000      -0.412867       -11.2347
  60   1.0000      -0.398498       -10.8437
  61   1.0000      -0.391901       -10.6642
  62   1.0000      -0.391114       -10.6427
  63   1.0000      -0.387604       -10.5472
  64   1.0000      -0.379042       -10.3142
  65   0.0000      -0.067541        -1.8379
  66   0.0000      -0.050504        -1.3743
  67   0.0000       0.006456         0.1757
  68   0.0000       0.031733         0.8635
  69   0.0000       0.033450         0.9102

----------------------------------------------------------------------------------------------------
          SPIN FLIP ABSORPTION SPECTRUM VIA TRANSITION ELECTRIC DIPOLE MOMENTS
----------------------------------------------------------------------------------------------------
     Transition      Energy     Energy  Wavelength fosc(D2)      D2        DX        DY        DZ
                      (eV)      (cm-1)    (nm)                 (au**2)    (au)      (au)      (au)
----------------------------------------------------------------------------------------------------
  1-3A  ->  2-3A    0.034391     277.4  36051.2   0.000009352   0.01110  -0.09543   0.03861  -0.02240
  1-3A  ->  3-1A    2.048495   16522.2   605.2   0.021960645   0.43757   0.61642  -0.08367   0.22495

Dispersion correction             ... done (  0.1 sec)

MULLIKEN ATOMIC CHARGES AND SPIN DENSITIES
------------------------------------------
   0 O :   -0.681890    0.064680
   1 O :   -0.696855   -0.060066
   2 O :   -0.633414    0.000814
   3 O :   -0.589298    0.000056
   4 N :   -0.213429    0.003671
   5 N :   -0.218416   -0.009975
   6 N :    0.144011   -0.001484
   7 N :    0.055552   -0.016877
   8 C :    0.109657    0.328929
   9 C :    0.600434    0.330221
  10 C :    0.367771   -0.059576
  11 C :    0.290883   -0.332922
  12 C :   -1.361765   -0.008612
  13 C :   -1.531790    0.011573
  14 C :    0.429687   -0.046255
  15 C :    0.153834   -0.252110
  16 C :    0.359013   -0.002603
  17 C :    0.360135    0.012995
  18 H :    0.443891    0.010193
  19 H :    0.527253    0.000887
  20 H :    0.287910    0.000231
  21 H :    0.323845    0.012127
  22 H :    0.354852    0.015225
  23 H :    0.257621   -0.001928
  24 H :    0.464641   -0.004456
  25 H :    0.288485    0.001805
  26 H :   -0.015844   -0.000662
  27 H :   -0.019372    0.001403
  28 H :    0.071695   -0.002063
  29 H :    0.070904    0.004781
Sum of atomic charges       :    0.0000000

LOEWDIN ATOMIC CHARGES AND SPIN DENSITIES
-----------------------------------------
   0 O :    0.060738    0.055970
   1 O :    0.090685   -0.050426
   2 O :    0.112796    0.000886
   3 O :    0.131199   -0.000340
   4 N :    0.329273    0.001629
   5 N :    0.307364    0.000940
   6 N :    0.323854   -0.002007
   7 N :    0.322167   -0.012867
   8 C :   -0.039500    0.198146
   9 C :    0.016440   -0.180090
  10 C :   -0.070369    0.006985
  11 C :   -0.127962   -0.016624
  12 C :    0.163776    0.029477
  13 C :    0.227473   -0.021980
  14 C :   -0.411271    0.026136
  15 C :   -0.460803   -0.037415
  16 C :   -0.463952   -0.000419
  17 C :   -0.477859   -0.000464
  18 H :    0.067714    0.000742
  19 H :    0.056364   -0.004328
  20 H :   -0.006289   -0.000232
  21 H :    0.013963    0.008131
  22 H :    0.032645    0.010066
  23 H :   -0.005397   -0.006413
  24 H :    0.000762   -0.005930
  25 H :   -0.008562    0.000918
  26 H :   -0.125661    0.000115
  27 H :   -0.085503    0.000279
  28 H :    0.005972    0.000041
  29 H :    0.019944   -0.000926

  Mayer bond orders larger than 0.100000
B(  0-O , 14-C ) :   1.3491 B(  1-O , 15-C ) :   1.2247 B(  2-O , 16-C ) :   1.5236
B(  3-O , 17-C ) :   1.6526 B(  4-N ,  8-C ) :   0.2763 B(  4-N , 10-C ) :   0.1960
B(  4-N , 16-C ) :   0.9769 B(  4-N , 26-H ) :   1.0795 B(  5-N ,  9-C ) :   0.2612
B(  5-N , 10-C ) :   0.1574 B(  5-N , 17-C ) :   1.1162 B(  5-N , 27-H ) :   1.1567
B(  6-N ,  8-C ) :  -0.1061 B(  6-N , 14-C ) :   1.0863 B(  6-N , 16-C ) :   0.9943
B(  6-N , 28-H ) :   1.0316 B(  7-N , 11-C ) :   0.1165 B(  7-N , 15-C ) :   1.0773
B(  7-N , 17-C ) :   0.9423 B(  7-N , 29-H ) :   1.0611 B(  8-C ,  9-C ) :   0.1506
B(  8-C , 10-C ) :   0.4589 B(  8-C , 11-C ) :   0.1157 B(  8-C , 12-C ) :   0.4444
B(  8-C , 14-C ) :   0.8188 B(  8-C , 18-H ) :  -0.1575 B(  8-C , 20-H ) :  -0.1125
B(  9-C , 11-C ) :   0.2161 B(  9-C , 13-C ) :   0.2775 B(  9-C , 15-C ) :   0.8129
B(  9-C , 19-H ) :  -0.2364 B(  9-C , 25-H ) :  -0.1269 B( 10-C , 11-C ) :   0.7319
B( 10-C , 16-C ) :  -0.2010 B( 10-C , 18-H ) :   0.8956 B( 11-C , 13-C ) :  -0.2322
B( 11-C , 17-C ) :  -0.2436 B( 11-C , 18-H ) :  -0.1062 B( 11-C , 19-H ) :   0.8761
B( 12-C , 20-H ) :   1.0237 B( 12-C , 21-H ) :   0.8801 B( 12-C , 22-H ) :   0.9380
B( 13-C , 15-C ) :  -0.1244 B( 13-C , 23-H ) :   0.9964 B( 13-C , 24-H ) :   0.8049
B( 13-C , 25-H ) :   1.0785 B( 15-C , 17-C ) :  -0.1080

Dispersion correction           -0.061301022
FINAL SINGLE POINT ENERGY      -908.780169392516

DIPOLE MOMENT
-------------

Method             : TDA/CIS
Type of density    : Electron Density
Level              : Relaxed density
State              :   2
Multiplicity       :   3
Irrep              :   0
Energy             :     0.0000000000000000 Eh
Relativity type    :
Basis              : AO
                                X                 Y                 Z
Electronic contribution:     -6.745223756      -8.414925352      -4.643759755
Nuclear contribution   :      7.006741438       9.903777344       6.935259613
                        -----------------------------------------
Total Dipole Moment    :      0.261517682       1.488851992       2.291499858
                        -----------------------------------------
Magnitude (a.u.)       :      2.745185485
Magnitude (Debye)      :      6.977706976

Rotational constants in cm-1:             0.021986             0.013163             0.012732
Rotational constants in MHz :           659.113813           394.627487           381.706096

                             ****ORCA TERMINATED NORMALLY****
TOTAL RUN TIME: 0 days 0 hours 5 minutes 3 seconds 595 msec
