                         Program Version 6.0.0  -   RELEASE  -
|  1> ! opt def2-TZVPPD wB97M-D3BJ
|  2> %pal nprocs 8 end%pal nprocs 32 end
|  3> %geom Constraints
|  4> {B 9 8 3.6 C}
|  5> {A 8 9 11 70.57142857142857 C}
|  6>  end
|  7>  end
|  8> *xyz 0 1
|  9> O   2.98579685529314 0.88758230159078 -0.86184571092411
| 10> O   -0.03983205397054 0.68929041702508 -2.10362336723772
| 11> O   0.93431434349854 -3.13274393337945 -0.68767288184107
| 12> O   -3.75829998830163 -0.84727300865116 -0.0472717177755
| 13> N   0.21184538946282 -1.54604804365365 0.7617588924445
| 14> N   -2.13631993928911 0.03188773433438 1.27350571071531
| 15> N   2.02598672506387 -1.14318467211666 -0.64531219127023
| 16> N   -1.91814233924584 0.03137116037665 -1.04498946748291
| 17> C   1.18097737274226 0.71693507080484 0.70173889017321
| 18> C   -0.20686880480777 1.27024627933494 0.21345042231937
| 19> C   0.41441080275909 -0.34173258966541 1.52336266615173
| 20> C   -0.82922175114212 0.58960593673968 1.44434972027296
| 21> C   1.92822011286806 1.69488653817281 1.5963734975385
| 22> C   -0.37809776891576 2.77134929626422 0.04819649358288
| 23> C   2.1403947470937 0.1972384729179 -0.35038567829864
| 24> C   -0.67361678962426 0.6214190571346 -1.0793014500539
| 25> C   1.04142578622994 -2.02697492875068 -0.21027082435993
| 26> C   -2.68467002550422 -0.30396816036989 0.07167054343891
| 27> H   0.80817443950001 -0.54572267081061 2.51895215321335
| 28> H   -0.83785272399001 1.27240685039143 2.28901317073582
| 29> H   2.31167340578204 2.52284411740894 1.00913016264629
| 30> H   1.28982602448342 2.08257620823614 2.38710022492991
| 31> H   2.77390820759972 1.19140411795486 2.06045858523949
| 32> H   -1.41857211141493 3.00964947214868 -0.16882755561625
| 33> H   -0.09065531563179 3.29799318042223 0.95389844358819
| 34> H   0.23426221611057 3.12492645074476 -0.77764887675592
| 35> H   -0.46772570547622 -2.21560145172536 1.0787081584806
| 36> H   -2.71769301149571 -0.17090724573546 2.06627440900372
| 37> H   2.60065167263658 -1.49057255715425 -1.3966820077142
| 38> H   -2.27169977231386 -0.32388339999036 -1.91951041514436
| 39> *
| 40>
| 41>                          ****END OF INPUT****
 Total Charge           Charge          ....    0
 Multiplicity           Mult            ....    1
 Number of Electrons    NEL             ....  132
Dispersion correction           -0.050718165
FINAL SINGLE POINT ENERGY      -908.561982538983
Dispersion correction             ... done (  0.0 sec)
Dispersion correction           -0.051480375
FINAL SINGLE POINT ENERGY      -908.625398125376
Dispersion correction             ... done (  0.0 sec)
Dispersion correction           -0.052204130
FINAL SINGLE POINT ENERGY      -908.681807790150
Dispersion correction             ... done (  0.0 sec)
FINAL SINGLE POINT ENERGY      -908.752045135574
FINAL SINGLE POINT ENERGY      -908.811592699020
FINAL SINGLE POINT ENERGY      -908.847296970882
FINAL SINGLE POINT ENERGY      -908.869748364406
FINAL SINGLE POINT ENERGY      -908.894011421107
FINAL SINGLE POINT ENERGY      -908.909043231775
FINAL SINGLE POINT ENERGY      -908.916912933669
FINAL SINGLE POINT ENERGY      -908.935564715583
FINAL SINGLE POINT ENERGY      -908.935663233812
FINAL SINGLE POINT ENERGY      -908.935780183923
FINAL SINGLE POINT ENERGY      -908.935927835175
FINAL SINGLE POINT ENERGY      -908.936015840102
FINAL SINGLE POINT ENERGY      -908.936070245630
FINAL SINGLE POINT ENERGY      -908.936090829182
Dispersion correction             ... done (  0.0 sec)
Dispersion correction           -0.058707305
FINAL SINGLE POINT ENERGY      -908.936100976766
Dispersion correction             ... done (  0.0 sec)
Dispersion correction           -0.058697399
FINAL SINGLE POINT ENERGY      -908.936106471969
Dispersion correction             ... done (  0.0 sec)
                    ***********************HURRAY********************

CARTESIAN COORDINATES (ANGSTROEM)
---------------------------------
  O      2.459156    1.270591   -0.314108
  O     -0.822204    0.815729   -2.402676
  O      0.529248   -2.631380   -1.612522
  O     -2.391745   -1.526751    1.162105
  N      0.636455   -2.155625    0.610621
  N     -1.841969    0.664078    1.443881
  N      1.593033   -0.731757   -0.927177
  N     -1.669724   -0.308193   -0.629598
  C      1.500654   -0.075239    1.388603
  C     -0.916612    1.967124   -0.327667
  C      0.889988   -1.245970    1.609013
  C     -1.283427    1.822807    0.950442
  C      1.788341    0.931427    2.453928
  C     -0.280736    3.198440   -0.884598
  C      1.905985    0.243036    0.018481
  C     -1.116665    0.830080   -1.228645
  C      0.894142   -1.901392   -0.718585
  C     -2.004909   -0.475643    0.693116
  H      0.549026   -1.541530    2.589656
  H     -1.165523    2.616122    1.672765
  H      1.346280    1.893027    2.197395
  H      1.395948    0.603152    3.414036
  H      2.859250    1.098890    2.552295
  H     -0.835819    3.557457   -1.748602
  H     -0.242397    3.984976   -0.134500
  H      0.733707    2.978642   -1.211578
  H      0.021657   -2.931759    0.784884
  H     -2.073493    0.576481    2.416272
  H      1.752842   -0.488418   -1.893176
  H     -1.757889   -1.123403   -1.219458

 Multiplicity           Mult            ....    1
 Number of Electrons    NEL             ....  132
 Basis Dimension        Dim             ....  882

ORBITAL ENERGIES
----------------

  NO   OCC          E(Eh)            E(eV)
   0   2.0000     -19.328232      -525.9479
   1   2.0000     -19.323026      -525.8063
   2   2.0000     -19.320766      -525.7448
   3   2.0000     -19.319665      -525.7148
   4   2.0000     -14.584274      -396.8583
   5   2.0000     -14.575392      -396.6166
   6   2.0000     -14.570455      -396.4822
   7   2.0000     -14.564294      -396.3146
   8   2.0000     -10.514791      -286.1220
   9   2.0000     -10.506406      -285.8938
  10   2.0000     -10.478362      -285.1307
  11   2.0000     -10.476381      -285.0768
  12   2.0000     -10.430647      -283.8323
  13   2.0000     -10.429485      -283.8007
  14   2.0000     -10.379224      -282.4331
  15   2.0000     -10.378686      -282.4184
  16   2.0000     -10.361768      -281.9580
  17   2.0000     -10.348004      -281.5835
  18   2.0000      -1.227565       -33.4037
  19   2.0000      -1.219653       -33.1884
  20   2.0000      -1.193676       -32.4816
  21   2.0000      -1.189699       -32.3734
  22   2.0000      -1.123109       -30.5613
  23   2.0000      -1.116991       -30.3949
  24   2.0000      -1.069790       -29.1105
  25   2.0000      -1.064412       -28.9641
  26   2.0000      -0.956522       -26.0283
  27   2.0000      -0.954702       -25.9788
  28   2.0000      -0.848765       -23.0961
  29   2.0000      -0.844796       -22.9881
  30   2.0000      -0.809668       -22.0322
  31   2.0000      -0.807406       -21.9706
  32   2.0000      -0.794289       -21.6137
  33   2.0000      -0.788164       -21.4470
  34   2.0000      -0.694753       -18.9052
  35   2.0000      -0.692129       -18.8338
  36   2.0000      -0.690906       -18.8005
  37   2.0000      -0.687699       -18.7132
  38   2.0000      -0.642112       -17.4728
  39   2.0000      -0.637143       -17.3375
  40   2.0000      -0.634650       -17.2697
  41   2.0000      -0.597125       -16.2486
  42   2.0000      -0.595589       -16.2068
  43   2.0000      -0.591955       -16.1079
  44   2.0000      -0.568044       -15.4573
  45   2.0000      -0.561279       -15.2732
  46   2.0000      -0.559281       -15.2188
  47   2.0000      -0.550610       -14.9828
  48   2.0000      -0.549592       -14.9552
  49   2.0000      -0.547316       -14.8932
  50   2.0000      -0.519682       -14.1413
  51   2.0000      -0.515759       -14.0345
  52   2.0000      -0.514390       -13.9973
  53   2.0000      -0.513403       -13.9704
  54   2.0000      -0.505103       -13.7445
  55   2.0000      -0.495839       -13.4925
  56   2.0000      -0.479349       -13.0437
  57   2.0000      -0.470042       -12.7905
  58   2.0000      -0.420433       -11.4406
  59   2.0000      -0.412896       -11.2355
  60   2.0000      -0.404470       -11.0062
  61   2.0000      -0.397018       -10.8034
  62   2.0000      -0.387067       -10.5326
  63   2.0000      -0.384086       -10.4515
  64   2.0000      -0.347147        -9.4463
  65   2.0000      -0.343355        -9.3432
  66   0.0000       0.011689         0.3181
  67   0.0000       0.020926         0.5694
  68   0.0000       0.024136         0.6568
  69   0.0000       0.033626         0.9150
  70   0.0000       0.041118         1.1189

MULLIKEN ATOMIC CHARGES
-----------------------
   0 O :   -0.679538
   1 O :   -0.658887
   2 O :   -0.641877
   3 O :   -0.670007
   4 N :   -0.033487
   5 N :    0.024206
   6 N :    0.046236
   7 N :    0.057750
   8 C :    0.709172
   9 C :    0.820175
  10 C :    0.092673
  11 C :   -0.219580
  12 C :   -1.434558
  13 C :   -1.349238
  14 C :    0.425791
  15 C :    0.460125
  16 C :    0.328110
  17 C :    0.436412
  18 H :    0.129757
  19 H :    0.160329
  20 H :    0.244291
  21 H :    0.337402
  22 H :    0.350201
  23 H :    0.330485
  24 H :    0.336260
  25 H :    0.229060
  26 H :    0.055160
  27 H :    0.023705
  28 H :    0.048490
  29 H :    0.041382
Sum of atomic charges:    0.0000000

LOEWDIN ATOMIC CHARGES
----------------------
   0 O :    0.087787
   1 O :    0.101652
   2 O :    0.086899
   3 O :    0.070039
   4 N :    0.279120
   5 N :    0.282145
   6 N :    0.343689
   7 N :    0.345312
   8 C :   -0.141210
   9 C :   -0.132998
  10 C :    0.046373
  11 C :    0.046987
  12 C :    0.174372
  13 C :    0.183479
  14 C :   -0.395441
  15 C :   -0.393282
  16 C :   -0.486960
  17 C :   -0.489036
  18 H :    0.041103
  19 H :    0.036202
  20 H :   -0.013676
  21 H :   -0.006352
  22 H :    0.001829
  23 H :    0.000382
  24 H :   -0.005067
  25 H :   -0.011557
  26 H :   -0.019147
  27 H :   -0.019646
  28 H :   -0.003640
  29 H :   -0.009359

  Mayer bond orders larger than 0.100000
B(  0-O , 14-C ) :   1.4575 B(  1-O , 15-C ) :   1.4706 B(  2-O , 16-C ) :   1.5700
B(  3-O , 17-C ) :   1.5287 B(  4-N , 10-C ) :   0.8650 B(  4-N , 16-C ) :   1.0163
B(  4-N , 26-H ) :   1.1108 B(  5-N , 11-C ) :   0.9647 B(  5-N , 17-C ) :   1.0328
B(  5-N , 27-H ) :   1.1257 B(  6-N , 14-C ) :   1.0010 B(  6-N , 16-C ) :   0.9116
B(  6-N , 28-H ) :   1.1019 B(  7-N , 15-C ) :   0.9553 B(  7-N , 16-C ) :   0.1165
B(  7-N , 17-C ) :   0.9510 B(  7-N , 29-H ) :   1.1117 B(  8-C , 10-C ) :   1.1621
B(  8-C , 12-C ) :   0.3358 B(  8-C , 14-C ) :   0.7734 B(  9-C , 11-C ) :   1.1801
B(  9-C , 13-C ) :   0.3640 B(  9-C , 15-C ) :   0.7722 B(  9-C , 19-H ) :  -0.1094
B( 10-C , 12-C ) :  -0.1250 B( 10-C , 18-H ) :   1.1423 B( 11-C , 13-C ) :  -0.1115
B( 11-C , 19-H ) :   1.1310 B( 12-C , 20-H ) :   0.9960 B( 12-C , 21-H ) :   0.9885
B( 12-C , 22-H ) :   0.9445 B( 13-C , 23-H ) :   0.9446 B( 13-C , 24-H ) :   0.9891
B( 13-C , 25-H ) :   0.9953

Dispersion correction           -0.058687281
FINAL SINGLE POINT ENERGY      -908.936107809761

DIPOLE MOMENT
-------------

Method             : SCF
Type of density    : Electron Density
Multiplicity       :   1
Irrep              :   0
Energy             :  -908.8774205290691270 Eh
Relativity type    :
Basis              : AO
                                X                 Y                 Z
Electronic contribution:     -2.878403900      -9.448711762      -5.717449671
Nuclear contribution   :      2.522610886      10.201850167       8.196154212
                        -----------------------------------------
Total Dipole Moment    :     -0.355793014       0.753138405       2.478704541
                        -----------------------------------------
Magnitude (a.u.)       :      2.614915358
Magnitude (Debye)      :      6.646586627

Rotational constants in cm-1:             0.017020             0.015615             0.014035
Rotational constants in MHz :           510.251400           468.133294           420.764470

                             ****ORCA TERMINATED NORMALLY****
TOTAL RUN TIME: 0 days 1 hours 16 minutes 5 seconds 442 msec
