                         Program Version 6.0.0  -   RELEASE  -
|  1> ! opt def2-TZVPPD wB97M-D3BJ
|  2> %pal nprocs 8 end%pal nprocs 64 end
|  3> %geom Constraints
|  4> {B 9 8 3.5 C}
|  5> {A 8 9 11 98.0 C}
|  6> end
|  7> MaxIter 300
|  8> end
|  9> *xyz 0 1
| 10> O   2.98579685529314 0.88758230159078 -0.86184571092411
| 11> O   -0.03983205397054 0.68929041702508 -2.10362336723772
| 12> O   0.93431434349854 -3.13274393337945 -0.68767288184107
| 13> O   -3.75829998830163 -0.84727300865116 -0.0472717177755
| 14> N   0.21184538946282 -1.54604804365365 0.7617588924445
| 15> N   -2.13631993928911 0.03188773433438 1.27350571071531
| 16> N   2.02598672506387 -1.14318467211666 -0.64531219127023
| 17> N   -1.91814233924584 0.03137116037665 -1.04498946748291
| 18> C   1.18097737274226 0.71693507080484 0.70173889017321
| 19> C   -0.20686880480777 1.27024627933494 0.21345042231937
| 20> C   0.41441080275909 -0.34173258966541 1.52336266615173
| 21> C   -0.82922175114212 0.58960593673968 1.44434972027296
| 22> C   1.92822011286806 1.69488653817281 1.5963734975385
| 23> C   -0.37809776891576 2.77134929626422 0.04819649358288
| 24> C   2.1403947470937 0.1972384729179 -0.35038567829864
| 25> C   -0.67361678962426 0.6214190571346 -1.0793014500539
| 26> C   1.04142578622994 -2.02697492875068 -0.21027082435993
| 27> C   -2.68467002550422 -0.30396816036989 0.07167054343891
| 28> H   0.80817443950001 -0.54572267081061 2.51895215321335
| 29> H   -0.83785272399001 1.27240685039143 2.28901317073582
| 30> H   2.31167340578204 2.52284411740894 1.00913016264629
| 31> H   1.28982602448342 2.08257620823614 2.38710022492991
| 32> H   2.77390820759972 1.19140411795486 2.06045858523949
| 33> H   -1.41857211141493 3.00964947214868 -0.16882755561625
| 34> H   -0.09065531563179 3.29799318042223 0.95389844358819
| 35> H   0.23426221611057 3.12492645074476 -0.77764887675592
| 36> H   -0.46772570547622 -2.21560145172536 1.0787081584806
| 37> H   -2.71769301149571 -0.17090724573546 2.06627440900372
| 38> H   2.60065167263658 -1.49057255715425 -1.3966820077142
| 39> H   -2.27169977231386 -0.32388339999036 -1.91951041514436
| 40> *
| 41>
| 42>                          ****END OF INPUT****
 Total Charge           Charge          ....    0
 Multiplicity           Mult            ....    1
 Number of Electrons    NEL             ....  132
Dispersion correction           -0.051506473
FINAL SINGLE POINT ENERGY      -908.508667653720
Dispersion correction             ... done (  0.1 sec)
Dispersion correction           -0.051615777
FINAL SINGLE POINT ENERGY      -908.573513562749
Dispersion correction             ... done (  0.1 sec)
Dispersion correction           -0.051912113
FINAL SINGLE POINT ENERGY      -908.630425364904
Dispersion correction             ... done (  0.2 sec)
FINAL SINGLE POINT ENERGY      -908.706023541007
FINAL SINGLE POINT ENERGY      -908.786458045758
FINAL SINGLE POINT ENERGY      -908.841654063258
FINAL SINGLE POINT ENERGY      -908.867097874440
FINAL SINGLE POINT ENERGY      -908.882373605280
FINAL SINGLE POINT ENERGY      -908.899529415787
FINAL SINGLE POINT ENERGY      -908.915086491593
FINAL SINGLE POINT ENERGY      -908.932444418794
FINAL SINGLE POINT ENERGY      -908.932524576536
FINAL SINGLE POINT ENERGY      -908.932581818378
FINAL SINGLE POINT ENERGY      -908.932635047910
FINAL SINGLE POINT ENERGY      -908.932680180118
FINAL SINGLE POINT ENERGY      -908.932706525668
FINAL SINGLE POINT ENERGY      -908.932717005124
Dispersion correction             ... done (  0.1 sec)
Dispersion correction           -0.057179976
FINAL SINGLE POINT ENERGY      -908.932721056818
Dispersion correction             ... done (  0.1 sec)
Dispersion correction           -0.057210777
FINAL SINGLE POINT ENERGY      -908.932722756990
Dispersion correction             ... done (  0.1 sec)
                    ***********************HURRAY********************

CARTESIAN COORDINATES (ANGSTROEM)
---------------------------------
  O      2.840839    1.070716   -0.715229
  O     -0.406860    0.830403   -2.046185
  O      0.579458   -2.788252   -1.484207
  O     -2.633340   -1.734065    0.966612
  N      0.704664   -2.012068    0.651347
  N     -2.443972    0.502767    1.355443
  N      1.841382   -0.938841   -1.042340
  N     -1.614619   -0.408405   -0.586443
  C      1.716125    0.094475    1.128309
  C     -1.070089    1.874250   -0.020349
  C      1.005887   -0.976329    1.505086
  C     -1.849859    1.711563    1.052395
  C      2.048519    1.233809    2.036437
  C     -0.355913    3.141509   -0.364724
  C      2.195222    0.155241   -0.253718
  C     -0.980270    0.771252   -0.981465
  C      1.012491   -1.979871   -0.691919
  C     -2.260708   -0.637308    0.605786
  H      0.621901   -1.086493    2.508305
  H     -2.018008    2.499902    1.770247
  H      1.627289    2.162443    1.655078
  H      1.659993    1.057130    3.036905
  H      3.125467    1.377289    2.096559
  H     -0.724715    3.548251   -1.304364
  H     -0.483935    3.885344    0.418354
  H      0.707029    2.948268   -0.502548
  H      0.022588   -2.703303    0.914945
  H     -2.940506    0.374046    2.218215
  H      2.026760   -0.849222   -2.029499
  H     -1.500222   -1.209501   -1.192435

 Multiplicity           Mult            ....    1
 Number of Electrons    NEL             ....  132
 Basis Dimension        Dim             ....  882

ORBITAL ENERGIES
----------------

  NO   OCC          E(Eh)            E(eV)
   0   2.0000     -19.329556      -525.9840
   1   2.0000     -19.324115      -525.8359
   2   2.0000     -19.318779      -525.6907
   3   2.0000     -19.317075      -525.6443
   4   2.0000     -14.585604      -396.8945
   5   2.0000     -14.573997      -396.5786
   6   2.0000     -14.570696      -396.4888
   7   2.0000     -14.560733      -396.2177
   8   2.0000     -10.515580      -286.1435
   9   2.0000     -10.504837      -285.8512
  10   2.0000     -10.479661      -285.1661
  11   2.0000     -10.472113      -284.9607
  12   2.0000     -10.432921      -283.8942
  13   2.0000     -10.427433      -283.7449
  14   2.0000     -10.381530      -282.4958
  15   2.0000     -10.376784      -282.3666
  16   2.0000     -10.357173      -281.8330
  17   2.0000     -10.353836      -281.7422
  18   2.0000      -1.228367       -33.4256
  19   2.0000      -1.218094       -33.1460
  20   2.0000      -1.195193       -32.5229
  21   2.0000      -1.186426       -32.2843
  22   2.0000      -1.123865       -30.5819
  23   2.0000      -1.114915       -30.3384
  24   2.0000      -1.071148       -29.1474
  25   2.0000      -1.061718       -28.8908
  26   2.0000      -0.958121       -26.0718
  27   2.0000      -0.952309       -25.9136
  28   2.0000      -0.848505       -23.0890
  29   2.0000      -0.844618       -22.9832
  30   2.0000      -0.810963       -22.0674
  31   2.0000      -0.804989       -21.9049
  32   2.0000      -0.795145       -21.6370
  33   2.0000      -0.785475       -21.3738
  34   2.0000      -0.696441       -18.9511
  35   2.0000      -0.693102       -18.8603
  36   2.0000      -0.688954       -18.7474
  37   2.0000      -0.684865       -18.6361
  38   2.0000      -0.644175       -17.5289
  39   2.0000      -0.633914       -17.2497
  40   2.0000      -0.630944       -17.1689
  41   2.0000      -0.599104       -16.3025
  42   2.0000      -0.598756       -16.2930
  43   2.0000      -0.589912       -16.0523
  44   2.0000      -0.569023       -15.4839
  45   2.0000      -0.560612       -15.2550
  46   2.0000      -0.558269       -15.1913
  47   2.0000      -0.552054       -15.0221
  48   2.0000      -0.546097       -14.8601
  49   2.0000      -0.540567       -14.7096
  50   2.0000      -0.521018       -14.1776
  51   2.0000      -0.517571       -14.0838
  52   2.0000      -0.515511       -14.0278
  53   2.0000      -0.511775       -13.9261
  54   2.0000      -0.500773       -13.6267
  55   2.0000      -0.500549       -13.6206
  56   2.0000      -0.479653       -13.0520
  57   2.0000      -0.472265       -12.8510
  58   2.0000      -0.421256       -11.4630
  59   2.0000      -0.411755       -11.2044
  60   2.0000      -0.405139       -11.0244
  61   2.0000      -0.393558       -10.7092
  62   2.0000      -0.387236       -10.5372
  63   2.0000      -0.380691       -10.3591
  64   2.0000      -0.350933        -9.5494
  65   2.0000      -0.339697        -9.2436
  66   0.0000       0.010409         0.2832
  67   0.0000       0.017478         0.4756
  68   0.0000       0.025324         0.6891
  69   0.0000       0.034757         0.9458
  70   0.0000       0.039402         1.0722

MULLIKEN ATOMIC CHARGES
-----------------------
   0 O :   -0.667867
   1 O :   -0.653372
   2 O :   -0.644950
   3 O :   -0.663549
   4 N :   -0.062042
   5 N :   -0.049171
   6 N :    0.016382
   7 N :    0.008672
   8 C :    0.710214
   9 C :    0.490673
  10 C :    0.060857
  11 C :    0.090610
  12 C :   -1.357540
  13 C :   -1.422257
  14 C :    0.449744
  15 C :    0.637996
  16 C :    0.373970
  17 C :    0.459282
  18 H :    0.144220
  19 H :    0.142310
  20 H :    0.186547
  21 H :    0.337358
  22 H :    0.331697
  23 H :    0.357848
  24 H :    0.328448
  25 H :    0.224212
  26 H :    0.068651
  27 H :    0.022795
  28 H :    0.031013
  29 H :    0.047249
Sum of atomic charges:    0.0000000

LOEWDIN ATOMIC CHARGES
----------------------
   0 O :    0.094627
   1 O :    0.103237
   2 O :    0.082408
   3 O :    0.074894
   4 N :    0.276585
   5 N :    0.278058
   6 N :    0.341485
   7 N :    0.341896
   8 C :   -0.135703
   9 C :   -0.136539
  10 C :    0.052302
  11 C :    0.060965
  12 C :    0.178698
  13 C :    0.178381
  14 C :   -0.401417
  15 C :   -0.390217
  16 C :   -0.489092
  17 C :   -0.483854
  18 H :    0.038909
  19 H :    0.035641
  20 H :   -0.015644
  21 H :   -0.006762
  22 H :    0.001544
  23 H :    0.002226
  24 H :   -0.005343
  25 H :   -0.012407
  26 H :   -0.023340
  27 H :   -0.022896
  28 H :   -0.003357
  29 H :   -0.015286

  Mayer bond orders larger than 0.100000
B(  0-O , 14-C ) :   1.4620 B(  1-O , 15-C ) :   1.4323 B(  2-O , 16-C ) :   1.5761
B(  3-O , 17-C ) :   1.5470 B(  4-N , 10-C ) :   0.8992 B(  4-N , 16-C ) :   0.9802
B(  4-N , 26-H ) :   1.1132 B(  5-N , 11-C ) :   0.9671 B(  5-N , 17-C ) :   1.0448
B(  5-N , 27-H ) :   1.1358 B(  6-N , 14-C ) :   0.9916 B(  6-N , 16-C ) :   0.9341
B(  6-N , 28-H ) :   1.0981 B(  7-N , 15-C ) :   0.9734 B(  7-N , 17-C ) :   0.9565
B(  7-N , 29-H ) :   1.1138 B(  8-C , 10-C ) :   1.1667 B(  8-C , 12-C ) :   0.3881
B(  8-C , 14-C ) :   0.7689 B(  9-C , 11-C ) :   1.2446 B(  9-C , 13-C ) :   0.3316
B(  9-C , 15-C ) :   0.8560 B(  9-C , 25-H ) :  -0.1226 B( 10-C , 12-C ) :  -0.1083
B( 10-C , 14-C ) :  -0.1230 B( 10-C , 18-H ) :   1.1072 B( 11-C , 13-C ) :  -0.1538
B( 11-C , 19-H ) :   1.0926 B( 12-C , 20-H ) :   1.0528 B( 12-C , 21-H ) :   0.9801
B( 12-C , 22-H ) :   0.9300 B( 13-C , 23-H ) :   0.9117 B( 13-C , 24-H ) :   1.0192
B( 13-C , 25-H ) :   1.0190

Dispersion correction           -0.057222347
FINAL SINGLE POINT ENERGY      -908.932723323422

DIPOLE MOMENT
-------------

Method             : SCF
Type of density    : Electron Density
Multiplicity       :   1
Irrep              :   0
Energy             :  -908.8755009761785004 Eh
Relativity type    :
Basis              : AO
                                X                 Y                 Z
Electronic contribution:     -2.657131777     -10.383100130      -5.998041286
Nuclear contribution   :      1.783358804      11.437950687       8.467890029
                        -----------------------------------------
Total Dipole Moment    :     -0.873772973       1.054850557       2.469848743
                        -----------------------------------------
Magnitude (a.u.)       :      2.824241796
Magnitude (Debye)      :      7.178652148

Rotational constants in cm-1:             0.017770             0.015246             0.012070
Rotational constants in MHz :           532.721394           457.051981           361.838295

                             ****ORCA TERMINATED NORMALLY****
TOTAL RUN TIME: 0 days 1 hours 9 minutes 8 seconds 717 msec
