                         Program Version 6.0.0  -   RELEASE  -
|  1> ! Opt wB97M-D3BJ def2-TZVPPD
|  2> %pal nprocs 8 end %pal nprocs 64 end
|  3> %geom
|  4> Constraints
|  5>     {A 2 1 0 130.16949152542372 C }
|  6> end
|  7> MaxIter 200
|  8> end
|  9> *xyz 0 1
| 10> O   1.6747425916099745 0.6895300114172817 0.0
| 11> C   0.7509 -0.4065 0.0
| 12> C   -0.7502 -0.4076 0.0
| 13> H   1.2625 -0.6786 0.9136
| 14> H   1.2625 -0.6787 -0.9136
| 15> H   -1.2614 -0.6806 -0.9136
| 16> H   -1.2614 -0.6805 0.9136
| 17> *
| 18>
| 19>                          ****END OF INPUT****
 Total Charge           Charge          ....    0
 Multiplicity           Mult            ....    1
 Number of Electrons    NEL             ....   24
Dispersion correction           -0.005343724
FINAL SINGLE POINT ENERGY      -153.692830932511
Dispersion correction             ... done (  0.1 sec)
Dispersion correction           -0.005420007
FINAL SINGLE POINT ENERGY      -153.710966974595
Dispersion correction             ... done (  0.1 sec)
Dispersion correction           -0.005484999
FINAL SINGLE POINT ENERGY      -153.719941588221
Dispersion correction             ... done (  0.1 sec)
FINAL SINGLE POINT ENERGY      -153.726218202034
FINAL SINGLE POINT ENERGY      -153.735718146049
FINAL SINGLE POINT ENERGY      -153.750541490137
FINAL SINGLE POINT ENERGY      -153.768289404810
FINAL SINGLE POINT ENERGY      -153.785135286214
FINAL SINGLE POINT ENERGY      -153.792511411541
FINAL SINGLE POINT ENERGY      -153.807363407424
FINAL SINGLE POINT ENERGY      -153.930216295540
FINAL SINGLE POINT ENERGY      -153.930302162328
FINAL SINGLE POINT ENERGY      -153.930391676621
FINAL SINGLE POINT ENERGY      -153.930488154748
FINAL SINGLE POINT ENERGY      -153.930561155312
FINAL SINGLE POINT ENERGY      -153.930589639451
FINAL SINGLE POINT ENERGY      -153.930594085421
Dispersion correction             ... done (  0.1 sec)
Dispersion correction           -0.005522612
FINAL SINGLE POINT ENERGY      -153.930595041191
Dispersion correction             ... done (  0.1 sec)
Dispersion correction           -0.005522777
FINAL SINGLE POINT ENERGY      -153.930595367927
Dispersion correction             ... done (  0.1 sec)
                    ***********************HURRAY********************

CARTESIAN COORDINATES (ANGSTROEM)
---------------------------------
  O      1.432303    1.038795   -0.057075
  C      0.938276   -0.008693    0.257490
  C     -0.310641   -0.673345   -0.232583
  H      1.453153   -0.617567    1.031707
  H     -0.044939   -1.652755   -0.630996
  H     -0.823444   -0.086621   -0.989764
  H     -0.967065   -0.842784    0.621221

 Multiplicity           Mult            ....    1
 Number of Electrons    NEL             ....   24
 Basis Dimension        Dim             ....  182

ORBITAL ENERGIES
----------------

  NO   OCC          E(Eh)            E(eV)
   0   2.0000     -19.340697      -526.2871
   1   2.0000     -10.443458      -284.1809
   2   2.0000     -10.360264      -281.9171
   3   2.0000      -1.189088       -32.3567
   4   2.0000      -0.888757       -24.1843
   5   2.0000      -0.700125       -19.0514
   6   2.0000      -0.597589       -16.2612
   7   2.0000      -0.562998       -15.3200
   8   2.0000      -0.557028       -15.1575
   9   2.0000      -0.509217       -13.8565
  10   2.0000      -0.478072       -13.0090
  11   2.0000      -0.367414        -9.9978
  12   0.0000       0.036527         0.9939
  13   0.0000       0.056079         1.5260
  14   0.0000       0.059234         1.6118
  15   0.0000       0.082606         2.2478
  16   0.0000       0.085832         2.3356

MULLIKEN ATOMIC CHARGES
-----------------------
   0 O :   -0.474733
   1 C :    0.233099
   2 C :   -0.695455
   3 H :    0.233661
   4 H :    0.230991
   5 H :    0.241373
   6 H :    0.231065
Sum of atomic charges:   -0.0000000

LOEWDIN ATOMIC CHARGES
----------------------
   0 O :    0.073257
   1 C :   -0.238684
   2 C :    0.170494
   3 H :    0.022438
   4 H :   -0.009498
   5 H :   -0.008498
   6 H :   -0.009509

  Mayer bond orders larger than 0.100000
B(  0-O ,  1-C ) :   1.7701 B(  1-C ,  2-C ) :   0.7504 B(  1-C ,  3-H ) :   0.9926
B(  2-C ,  4-H ) :   0.9918 B(  2-C ,  5-H ) :   0.9577 B(  2-C ,  6-H ) :   0.9915

Dispersion correction           -0.005522961
FINAL SINGLE POINT ENERGY      -153.930595416086

DIPOLE MOMENT
-------------

Method             : SCF
Type of density    : Electron Density
Multiplicity       :   1
Irrep              :   0
Energy             :  -153.9250724549960410 Eh
Relativity type    :
Basis              : AO
                                X                 Y                 Z
Electronic contribution:      2.293776241       2.464559979       0.093864123
Nuclear contribution   :     -2.908999291      -3.431465340       0.079071964
                        -----------------------------------------
Total Dipole Moment    :     -0.615223050      -0.966905361       0.172936088
                        -----------------------------------------
Magnitude (a.u.)       :      1.159013489
Magnitude (Debye)      :      2.945978170

Rotational constants in cm-1:             2.077045             0.327200             0.298165
Rotational constants in MHz :         62268.236318          9809.215227          8938.750775

                             ****ORCA TERMINATED NORMALLY****
TOTAL RUN TIME: 0 days 0 hours 7 minutes 26 seconds 76 msec
