                         Program Version 6.0.0  -   RELEASE  -
|  1> ! Engrad def2-TZVPPD wB97M-D3BJ
|  2> %pal nprocs 8 end%pal nprocs 64 end
|  3> %tddft
|  4>  Iroot 2 Nroots 3
|  5> sf true
|  6> end
|  7> *xyz 0 3
|  8> O   -0.25316842 0.98245258 0.3474107
|  9> C   0.54608103 -0.11585123 0.53147036
| 10> C   1.02141207 -0.74891303 -0.72170051
| 11> H   -0.03151655 -0.78905502 1.26203437
| 12> H   1.42746054 0.28459598 1.11063592
| 13> H   0.72707533 -1.70256363 -0.85920845
| 14> H   1.55535497 -0.14004962 -1.47105833
| 15> *
| 16>
| 17>                          ****END OF INPUT****

CARTESIAN COORDINATES (ANGSTROEM)
---------------------------------
  O     -0.253168    0.982453    0.347411
  C      0.546081   -0.115851    0.531470
  C      1.021412   -0.748913   -0.721701
  H     -0.031517   -0.789055    1.262034
  H      1.427461    0.284596    1.110636
  H      0.727075   -1.702564   -0.859208
  H      1.555355   -0.140050   -1.471058

 Total Charge           Charge          ....    0
 Multiplicity           Mult            ....    3
 Number of Electrons    NEL             ....   24
 Basis Dimension        Dim             ....  182

ORBITAL ENERGIES
----------------
                 SPIN UP ORBITALS
  NO   OCC          E(Eh)            E(eV)
   0   1.0000     -19.384077      -527.4676
   1   1.0000     -10.417260      -283.4680
   2   1.0000     -10.364697      -282.0377
   3   1.0000      -1.165887       -31.7254
   4   1.0000      -0.878600       -23.9079
   5   1.0000      -0.731569       -19.9070
   6   1.0000      -0.619156       -16.8481
   7   1.0000      -0.582577       -15.8527
   8   1.0000      -0.551469       -15.0062
   9   1.0000      -0.527611       -14.3570
  10   1.0000      -0.431952       -11.7540
  11   1.0000      -0.409151       -11.1336
  12   1.0000      -0.329320        -8.9613
  13   0.0000       0.041768         1.1366
  14   0.0000       0.060865         1.6562
  15   0.0000       0.076116         2.0712
  16   0.0000       0.088260         2.4017
  17   0.0000       0.114768         3.1230

                 SPIN DOWN ORBITALS
  NO   OCC          E(Eh)            E(eV)
   0   1.0000     -19.359948      -526.8110
   1   1.0000     -10.418671      -283.5065
   2   1.0000     -10.351567      -281.6805
   3   1.0000      -1.112038       -30.2601
   4   1.0000      -0.844392       -22.9771
   5   1.0000      -0.704695       -19.1757
   6   1.0000      -0.593949       -16.1622
   7   1.0000      -0.542478       -14.7616
   8   1.0000      -0.527837       -14.3632
   9   1.0000      -0.496278       -13.5044
  10   1.0000      -0.378831       -10.3085
  11   0.0000      -0.050047        -1.3618
  12   0.0000      -0.005213        -0.1419
  13   0.0000       0.040816         1.1107
  14   0.0000       0.061084         1.6622
  15   0.0000       0.075799         2.0626

----------------------------------------------------------------------------------------------------
          SPIN FLIP ABSORPTION SPECTRUM VIA TRANSITION ELECTRIC DIPOLE MOMENTS
----------------------------------------------------------------------------------------------------
     Transition      Energy     Energy  Wavelength fosc(D2)      D2        DX        DY        DZ
                      (eV)      (cm-1)    (nm)                 (au**2)    (au)      (au)      (au)
----------------------------------------------------------------------------------------------------
  1-3A  ->  2-3A    0.112837     910.1  10987.9   0.000123660   0.04473   0.05999  -0.15075  -0.13568
  1-3A  ->  3-3A    0.857587    6916.9  1445.7   0.005873736   0.27956   0.29637  -0.42433  -0.10802

Dispersion correction             ... done (  0.1 sec)

MULLIKEN ATOMIC CHARGES AND SPIN DENSITIES
------------------------------------------
   0 O :   -0.331210    0.607258
   1 C :   -0.050979    0.072307
   2 C :   -0.315636   -0.554230
   3 H :    0.226000   -0.014070
   4 H :    0.151839    0.003856
   5 H :    0.168507   -0.042630
   6 H :    0.151479   -0.072491
Sum of atomic charges       :   -0.0000000

LOEWDIN ATOMIC CHARGES AND SPIN DENSITIES
-----------------------------------------
   0 O :    0.037180    0.572862
   1 C :   -0.289657   -0.016882
   2 C :    0.324082   -0.437292
   3 H :    0.050114   -0.007681
   4 H :    0.045437    0.020040
   5 H :   -0.135795   -0.076396
   6 H :   -0.031362   -0.054651

  Mayer bond orders larger than 0.100000
B(  0-O ,  1-C ) :   0.8456 B(  0-O ,  2-C ) :   0.1346 B(  1-C ,  2-C ) :   0.8105
B(  1-C ,  3-H ) :   0.9735 B(  1-C ,  4-H ) :   0.9462 B(  2-C ,  5-H ) :   1.0109
B(  2-C ,  6-H ) :   1.0356

Dispersion correction           -0.005512906
FINAL SINGLE POINT ENERGY      -153.745155018030

DIPOLE MOMENT
-------------

Method             : TDA/CIS
Type of density    : Electron Density
Level              : Relaxed density
State              :   2
Multiplicity       :   3
Irrep              :   0
Energy             :     0.0000000000000000 Eh
Relativity type    :
Basis              : AO
                                X                 Y                 Z
Electronic contribution:     -1.369452989       1.887689213       0.325104064
Nuclear contribution   :      1.866389155      -2.441072558      -0.238680185
                        -----------------------------------------
Total Dipole Moment    :      0.496936166      -0.553383345       0.086423880
                        -----------------------------------------
Magnitude (a.u.)       :      0.748764159
Magnitude (Debye)      :      1.903207242

Rotational constants in cm-1:             1.430196             0.348701             0.309445
Rotational constants in MHz :         42876.199128         10453.784148          9276.923694

                             ****ORCA TERMINATED NORMALLY****
TOTAL RUN TIME: 0 days 0 hours 0 minutes 26 seconds 715 msec
