                         Program Version 6.0.0  -   RELEASE  -
|  1> ! Engrad def2-TZVPPD wB97M-D3BJ
|  2> %pal nprocs 8 end%pal nprocs 64 end
|  3> %tddft
|  4>  Iroot 2 Nroots 3
|  5> sf true
|  6> end
|  7> *xyz 0 3
|  8> O   -0.61232888 -0.00649485 0.60014751
|  9> C   0.54742935 0.58825473 0.12825794
| 10> C   1.38144708 -0.40740424 -0.56221512
| 11> H   1.05370528 0.98289861 0.9814702
| 12> H   0.26577265 1.48109237 -0.51930426
| 13> H   1.86755726 -1.23562123 0.01546188
| 14> H   1.52669392 -0.53190434 -1.64147693
| 15> *
| 16>
| 17>                          ****END OF INPUT****

CARTESIAN COORDINATES (ANGSTROEM)
---------------------------------
  O     -0.612329   -0.006495    0.600148
  C      0.547429    0.588255    0.128258
  C      1.381447   -0.407404   -0.562215
  H      1.053705    0.982899    0.981470
  H      0.265773    1.481092   -0.519304
  H      1.867557   -1.235621    0.015462
  H      1.526694   -0.531904   -1.641477

 Total Charge           Charge          ....    0
 Multiplicity           Mult            ....    3
 Number of Electrons    NEL             ....   24
 Basis Dimension        Dim             ....  182

ORBITAL ENERGIES
----------------
                 SPIN UP ORBITALS
  NO   OCC          E(Eh)            E(eV)
   0   1.0000     -19.390706      -527.6479
   1   1.0000     -10.414561      -283.3946
   2   1.0000     -10.369815      -282.1770
   3   1.0000      -1.166674       -31.7468
   4   1.0000      -0.874698       -23.8017
   5   1.0000      -0.735375       -20.0106
   6   1.0000      -0.618827       -16.8392
   7   1.0000      -0.583043       -15.8654
   8   1.0000      -0.554938       -15.1006
   9   1.0000      -0.507818       -13.8184
  10   1.0000      -0.439046       -11.9471
  11   1.0000      -0.417439       -11.3591
  12   1.0000      -0.326759        -8.8916
  13   0.0000       0.041544         1.1305
  14   0.0000       0.060750         1.6531
  15   0.0000       0.076543         2.0828
  16   0.0000       0.088613         2.4113
  17   0.0000       0.115096         3.1319

                 SPIN DOWN ORBITALS
  NO   OCC          E(Eh)            E(eV)
   0   1.0000     -19.365499      -526.9620
   1   1.0000     -10.415911      -283.4313
   2   1.0000     -10.356673      -281.8194
   3   1.0000      -1.109715       -30.1969
   4   1.0000      -0.841316       -22.8934
   5   1.0000      -0.709031       -19.2937
   6   1.0000      -0.585030       -15.9195
   7   1.0000      -0.555854       -15.1255
   8   1.0000      -0.526813       -14.3353
   9   1.0000      -0.475873       -12.9492
  10   1.0000      -0.384832       -10.4718
  11   0.0000      -0.054334        -1.4785
  12   0.0000      -0.002036        -0.0554
  13   0.0000       0.040434         1.1003
  14   0.0000       0.061334         1.6690
  15   0.0000       0.076583         2.0839

----------------------------------------------------------------------------------------------------
          SPIN FLIP ABSORPTION SPECTRUM VIA TRANSITION ELECTRIC DIPOLE MOMENTS
----------------------------------------------------------------------------------------------------
     Transition      Energy     Energy  Wavelength fosc(D2)      D2        DX        DY        DZ
                      (eV)      (cm-1)    (nm)                 (au**2)    (au)      (au)      (au)
----------------------------------------------------------------------------------------------------
  1-3A  ->  2-3A    0.265071    2137.9  4677.4   0.000038390   0.00591  -0.01590  -0.00324   0.07516
  1-3A  ->  3-3A    1.168618    9425.5  1060.9   0.000529983   0.01851   0.03389   0.12381  -0.04509

Dispersion correction             ... done (  0.1 sec)

MULLIKEN ATOMIC CHARGES AND SPIN DENSITIES
------------------------------------------
   0 O :   -0.328223    0.789039
   1 C :   -0.108025    0.094633
   2 C :   -0.202808   -0.781046
   3 H :    0.180740    0.008910
   4 H :    0.222402    0.031026
   5 H :    0.121869   -0.073884
   6 H :    0.114045   -0.068677
Sum of atomic charges       :   -0.0000000

LOEWDIN ATOMIC CHARGES AND SPIN DENSITIES
-----------------------------------------
   0 O :    0.047853    0.739415
   1 C :   -0.265212   -0.002833
   2 C :    0.266009   -0.625071
   3 H :    0.001650    0.015893
   4 H :    0.060580    0.027701
   5 H :   -0.041742   -0.071608
   6 H :   -0.069139   -0.083497

  Mayer bond orders larger than 0.100000
B(  0-O ,  1-C ) :   0.9039 B(  1-C ,  2-C ) :   0.8294 B(  1-C ,  3-H ) :   0.9611
B(  1-C ,  4-H ) :   0.9530 B(  2-C ,  5-H ) :   1.0311 B(  2-C ,  6-H ) :   1.0419

Dispersion correction           -0.005467570
FINAL SINGLE POINT ENERGY      -153.747927507277

DIPOLE MOMENT
-------------

Method             : TDA/CIS
Type of density    : Electron Density
Level              : Relaxed density
State              :   2
Multiplicity       :   3
Irrep              :   0
Energy             :     0.0000000000000000 Eh
Relativity type    :
Basis              : AO
                                X                 Y                 Z
Electronic contribution:     -2.323036839      -0.071421808       1.163451409
Nuclear contribution   :      2.863381419       0.416388312      -1.358087476
                        -----------------------------------------
Total Dipole Moment    :      0.540344580       0.344966504      -0.194636067
                        -----------------------------------------
Magnitude (a.u.)       :      0.669968173
Magnitude (Debye)      :      1.702923761

Rotational constants in cm-1:             1.337803             0.358476             0.314824
Rotational constants in MHz :         40106.330561         10746.850044          9438.189325

                             ****ORCA TERMINATED NORMALLY****
TOTAL RUN TIME: 0 days 0 hours 0 minutes 27 seconds 853 msec
