                         Program Version 6.0.0  -   RELEASE  -
|  1> ! Engrad def2-TZVPPD wB97M-D3BJ
|  2> %pal nprocs 8 end%pal nprocs 64 end
|  3> %tddft
|  4>  Iroot 1 Nroots 3
|  5> sf true
|  6> end
|  7> *xyz 0 3
|  8> O   3.17620821 0.37024568 -0.85304296
|  9> O   -0.62183214 1.53996117 -2.27125412
| 10> O   0.41956461 -3.08715208 -0.34220464
| 11> O   -2.99912941 -1.76398768 -0.50111542
| 12> N   0.33096846 -1.46464316 1.23121032
| 13> N   -2.09522364 -0.14919462 0.94451649
| 14> N   1.51635546 -1.17015564 -0.72550713
| 15> N   -1.51351092 -0.29835684 -1.27810536
| 16> C   1.64356158 0.55668502 0.92382759
| 17> C   -0.85402932 1.61016264 0.03355096
| 18> C   0.45299138 -0.08185006 1.60032873
| 19> C   -0.96304972 0.71546916 1.21707435
| 20> C   2.42114426 1.61644688 1.62973349
| 21> C   -0.65180501 3.04898487 0.18063985
| 22> C   2.16926859 -0.00689753 -0.26801584
| 23> C   -0.96667313 0.98074043 -1.24948561
| 24> C   0.71349702 -1.95987593 0.00408998
| 25> C   -2.26792929 -0.83511519 -0.26621298
| 26> H   0.52252435 -0.00369518 2.68709628
| 27> H   -1.17057351 1.30764486 2.10630356
| 28> H   3.42402025 1.51403336 1.16337464
| 29> H   2.0591587 2.61596989 1.4571479
| 30> H   2.43687347 1.39782902 2.70249781
| 31> H   -1.48868591 3.46010902 0.76400287
| 32> H   0.20833565 3.23812239 0.7838582
| 33> H   -0.63262748 3.53252001 -0.78984825
| 34> H   -0.40676279 -2.0520085 1.63527602
| 35> H   -2.4410761 -0.71412452 1.71879424
| 36> H   1.85678365 -1.56559311 -1.57832434
| 37> H   -1.62592304 -0.71762494 -2.19612286
| 38> *
| 39>
| 40>                          ****END OF INPUT****

CARTESIAN COORDINATES (ANGSTROEM)
---------------------------------
  O      3.176208    0.370246   -0.853043
  O     -0.621832    1.539961   -2.271254
  O      0.419565   -3.087152   -0.342205
  O     -2.999129   -1.763988   -0.501115
  N      0.330968   -1.464643    1.231210
  N     -2.095224   -0.149195    0.944516
  N      1.516355   -1.170156   -0.725507
  N     -1.513511   -0.298357   -1.278105
  C      1.643562    0.556685    0.923828
  C     -0.854029    1.610163    0.033551
  C      0.452991   -0.081850    1.600329
  C     -0.963050    0.715469    1.217074
  C      2.421144    1.616447    1.629733
  C     -0.651805    3.048985    0.180640
  C      2.169269   -0.006898   -0.268016
  C     -0.966673    0.980740   -1.249486
  C      0.713497   -1.959876    0.004090
  C     -2.267929   -0.835115   -0.266213
  H      0.522524   -0.003695    2.687096
  H     -1.170574    1.307645    2.106304
  H      3.424020    1.514033    1.163375
  H      2.059159    2.615970    1.457148
  H      2.436873    1.397829    2.702498
  H     -1.488686    3.460109    0.764003
  H      0.208336    3.238122    0.783858
  H     -0.632627    3.532520   -0.789848
  H     -0.406763   -2.052008    1.635276
  H     -2.441076   -0.714125    1.718794
  H      1.856784   -1.565593   -1.578324
  H     -1.625923   -0.717625   -2.196123

 Total Charge           Charge          ....    0
 Multiplicity           Mult            ....    3
 Number of Electrons    NEL             ....  132
 Basis Dimension        Dim             ....  882

ORBITAL ENERGIES
----------------
                 SPIN UP ORBITALS
  NO   OCC          E(Eh)            E(eV)
   0   1.0000     -19.339453      -526.2533
   1   1.0000     -19.331923      -526.0484
   2   1.0000     -19.323738      -525.8257
   3   1.0000     -19.308830      -525.4200
   4   1.0000     -14.567272      -396.3956
   5   1.0000     -14.558819      -396.1656
   6   1.0000     -14.558752      -396.1638
   7   1.0000     -14.558186      -396.1484
   8   1.0000     -10.505668      -285.8737
   9   1.0000     -10.495279      -285.5911
  10   1.0000     -10.482854      -285.2530
  11   1.0000     -10.475143      -285.0431
  12   1.0000     -10.449729      -284.3516
  13   1.0000     -10.444885      -284.2198
  14   1.0000     -10.424538      -283.6661
  15   1.0000     -10.410791      -283.2920
  16   1.0000     -10.377958      -282.3986
  17   1.0000     -10.371370      -282.2193
  18   1.0000      -1.223625       -33.2965
  19   1.0000      -1.217866       -33.1398
  20   1.0000      -1.198008       -32.5995
  21   1.0000      -1.194411       -32.5016
  22   1.0000      -1.118485       -30.4355
  23   1.0000      -1.097787       -29.8723
  24   1.0000      -1.067927       -29.0598
  25   1.0000      -1.053743       -28.6738
  26   1.0000      -0.983268       -26.7561
  27   1.0000      -0.959828       -26.1182
  28   1.0000      -0.886217       -24.1152
  29   1.0000      -0.843355       -22.9489
  30   1.0000      -0.836512       -22.7627
  31   1.0000      -0.805890       -21.9294
  32   1.0000      -0.785042       -21.3621
  33   1.0000      -0.776768       -21.1369
  34   1.0000      -0.701793       -19.0968
  35   1.0000      -0.692819       -18.8526
  36   1.0000      -0.688115       -18.7246
  37   1.0000      -0.663242       -18.0477
  38   1.0000      -0.658402       -17.9160
  39   1.0000      -0.652639       -17.7592
  40   1.0000      -0.612608       -16.6699
  41   1.0000      -0.603653       -16.4262
  42   1.0000      -0.595001       -16.1908
  43   1.0000      -0.588043       -16.0015
  44   1.0000      -0.585434       -15.9305
  45   1.0000      -0.574761       -15.6401
  46   1.0000      -0.568086       -15.4584
  47   1.0000      -0.562400       -15.3037
  48   1.0000      -0.555731       -15.1222
  49   1.0000      -0.552299       -15.0288
  50   1.0000      -0.546888       -14.8816
  51   1.0000      -0.540663       -14.7122
  52   1.0000      -0.531052       -14.4507
  53   1.0000      -0.529401       -14.4057
  54   1.0000      -0.517727       -14.0881
  55   1.0000      -0.507081       -13.7984
  56   1.0000      -0.491772       -13.3818
  57   1.0000      -0.422212       -11.4890
  58   1.0000      -0.419310       -11.4100
  59   1.0000      -0.410863       -11.1802
  60   1.0000      -0.409307       -11.1378
  61   1.0000      -0.397743       -10.8231
  62   1.0000      -0.392893       -10.6911
  63   1.0000      -0.388266       -10.5652
  64   1.0000      -0.385466       -10.4891
  65   1.0000      -0.342980        -9.3330
  66   1.0000      -0.328188        -8.9305
  67   0.0000       0.005807         0.1580
  68   0.0000       0.027277         0.7422
  69   0.0000       0.033544         0.9128
  70   0.0000       0.038479         1.0471
  71   0.0000       0.053446         1.4543

                 SPIN DOWN ORBITALS
  NO   OCC          E(Eh)            E(eV)
   0   1.0000     -19.334262      -526.1120
   1   1.0000     -19.327040      -525.9155
   2   1.0000     -19.323460      -525.8181
   3   1.0000     -19.308697      -525.4164
   4   1.0000     -14.566573      -396.3766
   5   1.0000     -14.558535      -396.1579
   6   1.0000     -14.558305      -396.1516
   7   1.0000     -14.557811      -396.1382
   8   1.0000     -10.505697      -285.8745
   9   1.0000     -10.495322      -285.5922
  10   1.0000     -10.483912      -285.2817
  11   1.0000     -10.476153      -285.0706
  12   1.0000     -10.449469      -284.3445
  13   1.0000     -10.444282      -284.2033
  14   1.0000     -10.413533      -283.3666
  15   1.0000     -10.399556      -282.9863
  16   1.0000     -10.378487      -282.4130
  17   1.0000     -10.371894      -282.2336
  18   1.0000      -1.221658       -33.2430
  19   1.0000      -1.215151       -33.0659
  20   1.0000      -1.192206       -32.4416
  21   1.0000      -1.189175       -32.3591
  22   1.0000      -1.115603       -30.3571
  23   1.0000      -1.095302       -29.8047
  24   1.0000      -1.066097       -29.0100
  25   1.0000      -1.052116       -28.6295
  26   1.0000      -0.968642       -26.3581
  27   1.0000      -0.943136       -25.6640
  28   1.0000      -0.881675       -23.9916
  29   1.0000      -0.838218       -22.8091
  30   1.0000      -0.827845       -22.5268
  31   1.0000      -0.800436       -21.7810
  32   1.0000      -0.783619       -21.3234
  33   1.0000      -0.775156       -21.0931
  34   1.0000      -0.696920       -18.9642
  35   1.0000      -0.686806       -18.6890
  36   1.0000      -0.681318       -18.5396
  37   1.0000      -0.655110       -17.8265
  38   1.0000      -0.649258       -17.6672
  39   1.0000      -0.646865       -17.6021
  40   1.0000      -0.610635       -16.6162
  41   1.0000      -0.599250       -16.3064
  42   1.0000      -0.586269       -15.9532
  43   1.0000      -0.577703       -15.7201
  44   1.0000      -0.576891       -15.6980
  45   1.0000      -0.567592       -15.4450
  46   1.0000      -0.563260       -15.3271
  47   1.0000      -0.556515       -15.1436
  48   1.0000      -0.552055       -15.0222
  49   1.0000      -0.542703       -14.7677
  50   1.0000      -0.539753       -14.6874
  51   1.0000      -0.532908       -14.5012
  52   1.0000      -0.525230       -14.2922
  53   1.0000      -0.517229       -14.0745
  54   1.0000      -0.507017       -13.7966
  55   1.0000      -0.500020       -13.6062
  56   1.0000      -0.486149       -13.2288
  57   1.0000      -0.418421       -11.3858
  58   1.0000      -0.413550       -11.2533
  59   1.0000      -0.404348       -11.0029
  60   1.0000      -0.393997       -10.7212
  61   1.0000      -0.386957       -10.5296
  62   1.0000      -0.384683       -10.4678
  63   1.0000      -0.382367       -10.4047
  64   1.0000      -0.374999       -10.2042
  65   0.0000      -0.072649        -1.9769
  66   0.0000      -0.046551        -1.2667
  67   0.0000       0.005444         0.1481
  68   0.0000       0.027274         0.7422
  69   0.0000       0.033205         0.9036

----------------------------------------------------------------------------------------------------
          SPIN FLIP ABSORPTION SPECTRUM VIA TRANSITION ELECTRIC DIPOLE MOMENTS
----------------------------------------------------------------------------------------------------
     Transition      Energy     Energy  Wavelength fosc(D2)      D2        DX        DY        DZ
                      (eV)      (cm-1)    (nm)                 (au**2)    (au)      (au)      (au)
----------------------------------------------------------------------------------------------------
  1-3A  ->  2-3A    0.084662     682.8  14644.6   0.000000470   0.00023  -0.00307  -0.01321   0.00653
  1-3A  ->  3-1A    1.938012   15631.1   639.7   0.011949155   0.25166  -0.38177   0.21297  -0.24609

Dispersion correction             ... done (  0.1 sec)

MULLIKEN ATOMIC CHARGES AND SPIN DENSITIES
------------------------------------------
   0 O :   -0.686503   -0.039311
   1 O :   -0.682478    0.029931
   2 O :   -0.673245   -0.002582
   3 O :   -0.624356   -0.001146
   4 N :   -0.341515    0.008054
   5 N :   -0.406819    0.001727
   6 N :    0.084525   -0.002250
   7 N :    0.043546    0.010208
   8 C :    0.733004    0.535070
   9 C :    0.433848    0.465869
  10 C :   -0.048865   -0.341820
  11 C :    0.681195   -0.142964
  12 C :   -1.101415    0.059070
  13 C :   -1.178886   -0.014238
  14 C :    0.054328   -0.432576
  15 C :   -0.155118   -0.251749
  16 C :    0.426896    0.029307
  17 C :    0.367243    0.010173
  18 H :    0.557773    0.002045
  19 H :    0.468625    0.005732
  20 H :    0.319211   -0.001829
  21 H :    0.216076    0.014045
  22 H :    0.357365    0.007878
  23 H :    0.333058    0.015186
  24 H :    0.231327    0.030763
  25 H :    0.316769   -0.003351
  26 H :    0.109577    0.001503
  27 H :    0.113473    0.000673
  28 H :    0.007734    0.005399
  29 H :    0.043628    0.001182
Sum of atomic charges       :   -0.0000000

LOEWDIN ATOMIC CHARGES AND SPIN DENSITIES
-----------------------------------------
   0 O :    0.090534   -0.032775
   1 O :    0.098789    0.025648
   2 O :    0.086740   -0.001778
   3 O :    0.108268   -0.000687
   4 N :    0.260665    0.000700
   5 N :    0.266384    0.001075
   6 N :    0.331532   -0.004011
   7 N :    0.319802    0.001359
   8 C :   -0.011055   -0.077121
   9 C :   -0.034791    0.093320
  10 C :   -0.073138   -0.001637
  11 C :   -0.085730    0.004553
  12 C :    0.211232   -0.013127
  13 C :    0.206614    0.012845
  14 C :   -0.390212   -0.020870
  15 C :   -0.414334    0.010911
  16 C :   -0.523519    0.000072
  17 C :   -0.487772   -0.000197
  18 H :    0.040423    0.000147
  19 H :    0.042849    0.000124
  20 H :    0.012701   -0.000849
  21 H :   -0.020494   -0.003673
  22 H :    0.008696   -0.001679
  23 H :    0.022590    0.004414
  24 H :   -0.033739    0.003495
  25 H :    0.007475   -0.000266
  26 H :   -0.010377    0.000004
  27 H :   -0.025889    0.000196
  28 H :   -0.011499   -0.000337
  29 H :    0.007256    0.000145

  Mayer bond orders larger than 0.100000
B(  0-O ,  8-C ) :   0.1003 B(  0-O , 14-C ) :   1.2110 B(  1-O , 15-C ) :   1.4414
B(  2-O , 16-C ) :   1.4921 B(  3-O , 17-C ) :   1.5625 B(  4-N ,  5-N ) :   0.1453
B(  4-N ,  8-C ) :   0.2760 B(  4-N , 10-C ) :   0.2830 B(  4-N , 11-C ) :  -0.1031
B(  4-N , 16-C ) :   1.0820 B(  4-N , 18-H ) :  -0.1059 B(  4-N , 26-H ) :   1.0389
B(  5-N ,  9-C ) :   0.4681 B(  5-N , 11-C ) :  -0.1833 B(  5-N , 15-C ) :   0.1042
B(  5-N , 17-C ) :   1.0888 B(  5-N , 19-H ) :  -0.1179 B(  5-N , 27-H ) :   1.0246
B(  6-N ,  8-C ) :  -0.1334 B(  6-N , 10-C ) :   0.1565 B(  6-N , 14-C ) :   1.0113
B(  6-N , 16-C ) :   0.9634 B(  6-N , 28-H ) :   1.1239 B(  7-N , 11-C ) :   0.1243
B(  7-N , 15-C ) :   0.9882 B(  7-N , 17-C ) :   0.9688 B(  7-N , 29-H ) :   1.0826
B(  8-C ,  9-C ) :   0.3229 B(  8-C , 12-C ) :   0.6318 B(  8-C , 14-C ) :   0.6765
B(  8-C , 16-C ) :   0.1205 B(  8-C , 18-H ) :  -0.1445 B(  8-C , 20-H ) :  -0.1018
B(  9-C , 13-C ) :   0.5317 B(  9-C , 15-C ) :   0.8536 B(  9-C , 19-H ) :  -0.1040
B(  9-C , 25-H ) :  -0.1046 B( 10-C , 11-C ) :   0.6009 B( 10-C , 15-C ) :   0.1358
B( 10-C , 16-C ) :  -0.1679 B( 10-C , 18-H ) :   0.7964 B( 11-C , 15-C ) :  -0.4195
B( 11-C , 17-C ) :  -0.1938 B( 11-C , 19-H ) :   0.9708 B( 12-C , 20-H ) :   0.9726
B( 12-C , 21-H ) :   0.9131 B( 12-C , 22-H ) :   0.8962 B( 13-C , 23-H ) :   0.9833
B( 13-C , 24-H ) :   0.8311 B( 13-C , 25-H ) :   0.9819 B( 14-C , 16-C ) :  -0.1197

Dispersion correction           -0.059530304
FINAL SINGLE POINT ENERGY      -908.790329926229

DIPOLE MOMENT
-------------

Method             : TDA/CIS
Type of density    : Electron Density
Level              : Relaxed density
State              :   1
Multiplicity       :   3
Irrep              :   0
Energy             :     0.0000000000000000 Eh
Relativity type    :
Basis              : AO
                                X                 Y                 Z
Electronic contribution:     -2.828094859      -9.956242281      -7.247516992
Nuclear contribution   :      2.649159362      11.673878257       9.966760524
                        -----------------------------------------
Total Dipole Moment    :     -0.178935497       1.717635977       2.719243532
                        -----------------------------------------
Magnitude (a.u.)       :      3.221269415
Magnitude (Debye)      :      8.187816157

Rotational constants in cm-1:             0.019128             0.015636             0.012424
Rotational constants in MHz :           573.446108           468.749828           372.459775

                             ****ORCA TERMINATED NORMALLY****
TOTAL RUN TIME: 0 days 0 hours 6 minutes 14 seconds 319 msec
