                         Program Version 6.0.0  -   RELEASE  -
|  1> ! EnGrad wB97M-D3BJ def2-TZVPPD
|  2> %pal nprocs 8 end%pal nprocs 16 end
|  3> %tddft
|  4>  sf true
|  5>  nroots 2 Iroot 1 end
|  6> *xyz 0 3
|  7> O   0.50859193083896 1.28239509804285 0.12853759998782
|  8> C   0.61805136217339 0.15121461388971 -0.27788971060878
|  9> C   -0.44576518629216 -0.81252522080655 0.19065566081908
| 10> H   0.00155072999251 -1.64850552941264 0.73152040690098
| 11> H   1.43123082232269 -0.17375932372551 -0.94519297634301
| 12> H   -0.97823117329185 -1.24302310395848 -0.65943132926218
| 13> H   -1.13322848574354 -0.27419653402939 0.83180034850608
| 14> *
| 15>
| 16>                          ****END OF INPUT****

CARTESIAN COORDINATES (ANGSTROEM)
---------------------------------
  O      0.508592    1.282395    0.128538
  C      0.618051    0.151215   -0.277890
  C     -0.445765   -0.812525    0.190656
  H      0.001551   -1.648506    0.731520
  H      1.431231   -0.173759   -0.945193
  H     -0.978231   -1.243023   -0.659431
  H     -1.133228   -0.274197    0.831800

 Total Charge           Charge          ....    0
 Multiplicity           Mult            ....    3
 Number of Electrons    NEL             ....   24
 Basis Dimension        Dim             ....  182

ORBITAL ENERGIES
----------------
                 SPIN UP ORBITALS
  NO   OCC          E(Eh)            E(eV)
   0   1.0000     -19.411058      -528.2017
   1   1.0000     -10.380409      -282.4653
   2   1.0000     -10.366238      -282.0797
   3   1.0000      -1.246999       -33.9326
   4   1.0000      -0.876950       -23.8630
   5   1.0000      -0.720723       -19.6119
   6   1.0000      -0.638468       -17.3736
   7   1.0000      -0.582979       -15.8637
   8   1.0000      -0.582300       -15.8452
   9   1.0000      -0.514150       -13.9907
  10   1.0000      -0.510646       -13.8954
  11   1.0000      -0.436476       -11.8771
  12   1.0000      -0.224003        -6.0954
  13   0.0000       0.042534         1.1574
  14   0.0000       0.060480         1.6458
  15   0.0000       0.079459         2.1622
  16   0.0000       0.088419         2.4060
  17   0.0000       0.108701         2.9579

                 SPIN DOWN ORBITALS
  NO   OCC          E(Eh)            E(eV)
   0   1.0000     -19.383018      -527.4387
   1   1.0000     -10.370029      -282.1828
   2   1.0000     -10.363865      -282.0151
   3   1.0000      -1.188329       -32.3361
   4   1.0000      -0.857275       -23.3276
   5   1.0000      -0.677364       -18.4320
   6   1.0000      -0.585565       -15.9340
   7   1.0000      -0.540022       -14.6947
   8   1.0000      -0.533116       -14.5068
   9   1.0000      -0.501773       -13.6539
  10   1.0000      -0.469795       -12.7838
  11   0.0000      -0.080176        -2.1817
  12   0.0000       0.042383         1.1533
  13   0.0000       0.060131         1.6362
  14   0.0000       0.079795         2.1713
  15   0.0000       0.082307         2.2397

----------------------------------------------------------------------------------------------------
          SPIN FLIP ABSORPTION SPECTRUM VIA TRANSITION ELECTRIC DIPOLE MOMENTS
----------------------------------------------------------------------------------------------------
     Transition      Energy     Energy  Wavelength fosc(D2)      D2        DX        DY        DZ
                      (eV)      (cm-1)    (nm)                 (au**2)    (au)      (au)      (au)
----------------------------------------------------------------------------------------------------
  1-3A  ->  2-3A    4.411180   35578.6   281.1   0.000002344   0.00002  -0.00264   0.00105  -0.00369

Dispersion correction             ... done (  0.1 sec)

MULLIKEN ATOMIC CHARGES AND SPIN DENSITIES
------------------------------------------
   0 O :   -0.512191    0.055215
   1 C :    0.211230   -0.169434
   2 C :   -0.674799    0.047538
   3 H :    0.220629   -0.005715
   4 H :    0.295784    0.073527
   5 H :    0.220371   -0.005639
   6 H :    0.238975    0.004510
Sum of atomic charges       :   -0.0000000

LOEWDIN ATOMIC CHARGES AND SPIN DENSITIES
-----------------------------------------
   0 O :    0.025092    0.021619
   1 C :   -0.192503   -0.014144
   2 C :    0.172561   -0.001224
   3 H :   -0.012675   -0.001208
   4 H :    0.029804   -0.004219
   5 H :   -0.012681   -0.001205
   6 H :   -0.009599    0.000381

  Mayer bond orders larger than 0.100000
B(  0-O ,  1-C ) :   1.7867 B(  1-C ,  2-C ) :   0.7566 B(  1-C ,  4-H ) :   0.9309
B(  2-C ,  3-H ) :   0.9945 B(  2-C ,  5-H ) :   0.9942 B(  2-C ,  6-H ) :   0.9591

Dispersion correction           -0.005553567
FINAL SINGLE POINT ENERGY      -153.920015331020

DIPOLE MOMENT
-------------

Method             : TDA/CIS
Type of density    : Electron Density
Level              : Relaxed density
State              :   1
Multiplicity       :   3
Irrep              :   0
Energy             :     0.0000000000000000 Eh
Relativity type    :
Basis              : AO
                                X                 Y                 Z
Electronic contribution:      1.387270177       2.732866460      -0.181707951
Nuclear contribution   :     -1.443553066      -3.901531322      -0.119554749
                        -----------------------------------------
Total Dipole Moment    :     -0.056282890      -1.168664862      -0.301262700
                        -----------------------------------------
Magnitude (a.u.)       :      1.208182328
Magnitude (Debye)      :      3.070955425

Rotational constants in cm-1:             1.683538             0.365804             0.317988
Rotational constants in MHz :         50471.191715         10966.517550          9533.037238

                             ****ORCA TERMINATED NORMALLY****
TOTAL RUN TIME: 0 days 0 hours 7 minutes 31 seconds 904 msec
