                         Program Version 6.0.0  -   RELEASE  -
|  1> ! Engrad wB97M-D3BJ def2-TZVPPD
|  2> %pal nprocs 8 end%pal nprocs 16 end
|  3> %tddft nroots 2 Iroot 1
|  4>  sf true
|  5> end
|  6> *xyz 0 3
|  7> O   1.71607270800911 0.91124643860165 0.03314831013908
|  8> C   0.97819889946192 -0.02101329704867 0.18895626905725
|  9> C   -0.30353181120079 -0.67044427824132 -0.24876155045558
| 10> H   1.35279332508191 -0.7335692266632 0.9755250163685
| 11> H   -0.03008705825673 -1.67181909955607 -0.57737270810181
| 12> H   -0.87532675470524 -0.16355459818188 -1.02443586086213
| 13> H   -0.90465735368835 -0.77549675543389 0.65294052385468
| 14> *
| 15>
| 16>                          ****END OF INPUT****

CARTESIAN COORDINATES (ANGSTROEM)
---------------------------------
  O      1.716073    0.911246    0.033148
  C      0.978199   -0.021013    0.188956
  C     -0.303532   -0.670444   -0.248762
  H      1.352793   -0.733569    0.975525
  H     -0.030087   -1.671819   -0.577373
  H     -0.875327   -0.163555   -1.024436
  H     -0.904657   -0.775497    0.652941

 Total Charge           Charge          ....    0
 Multiplicity           Mult            ....    3
 Number of Electrons    NEL             ....   24
 Basis Dimension        Dim             ....  182

ORBITAL ENERGIES
----------------
                 SPIN UP ORBITALS
  NO   OCC          E(Eh)            E(eV)
   0   1.0000     -19.402823      -527.9777
   1   1.0000     -10.382802      -282.5304
   2   1.0000     -10.374133      -282.2945
   3   1.0000      -1.239441       -33.7269
   4   1.0000      -0.892296       -24.2806
   5   1.0000      -0.714197       -19.4343
   6   1.0000      -0.625497       -17.0207
   7   1.0000      -0.589307       -16.0359
   8   1.0000      -0.579381       -15.7658
   9   1.0000      -0.518787       -14.1169
  10   1.0000      -0.518296       -14.1036
  11   1.0000      -0.416707       -11.3392
  12   1.0000      -0.216162        -5.8821
  13   0.0000       0.035926         0.9776
  14   0.0000       0.059421         1.6169
  15   0.0000       0.077250         2.1021
  16   0.0000       0.087139         2.3712
  17   0.0000       0.105086         2.8595

                 SPIN DOWN ORBITALS
  NO   OCC          E(Eh)            E(eV)
   0   1.0000     -19.376156      -527.2520
   1   1.0000     -10.372542      -282.2512
   2   1.0000     -10.372289      -282.2443
   3   1.0000      -1.184785       -32.2396
   4   1.0000      -0.873273       -23.7630
   5   1.0000      -0.667880       -18.1739
   6   1.0000      -0.584106       -15.8943
   7   1.0000      -0.543022       -14.7764
   8   1.0000      -0.535191       -14.5633
   9   1.0000      -0.495983       -13.4964
  10   1.0000      -0.470894       -12.8137
  11   0.0000      -0.078597        -2.1387
  12   0.0000       0.037467         1.0195
  13   0.0000       0.059090         1.6079
  14   0.0000       0.076724         2.0878
  15   0.0000       0.084985         2.3126

----------------------------------------------------------------------------------------------------
          SPIN FLIP ABSORPTION SPECTRUM VIA TRANSITION ELECTRIC DIPOLE MOMENTS
----------------------------------------------------------------------------------------------------
     Transition      Energy     Energy  Wavelength fosc(D2)      D2        DX        DY        DZ
                      (eV)      (cm-1)    (nm)                 (au**2)    (au)      (au)      (au)
----------------------------------------------------------------------------------------------------
  1-3A  ->  2-3A    4.547321   36676.6   272.7   0.000469926   0.00422   0.03242  -0.03315  -0.04548

Dispersion correction             ... done (  0.0 sec)

MULLIKEN ATOMIC CHARGES AND SPIN DENSITIES
------------------------------------------
   0 O :   -0.494689    0.053084
   1 C :    0.215075   -0.165787
   2 C :   -0.700980    0.034642
   3 H :    0.244766    0.071464
   4 H :    0.250519   -0.000587
   5 H :    0.233882    0.007627
   6 H :    0.251426   -0.000443
Sum of atomic charges       :   -0.0000000

LOEWDIN ATOMIC CHARGES AND SPIN DENSITIES
-----------------------------------------
   0 O :    0.054729    0.019799
   1 C :   -0.240116   -0.014365
   2 C :    0.179560   -0.002129
   3 H :    0.024289   -0.002702
   4 H :   -0.004946   -0.001199
   5 H :   -0.008534    0.001790
   6 H :   -0.004982   -0.001194

  Mayer bond orders larger than 0.100000
B(  0-O ,  1-C ) :   1.7987 B(  1-C ,  2-C ) :   0.7564 B(  1-C ,  3-H ) :   0.9614
B(  2-C ,  4-H ) :   0.9795 B(  2-C ,  5-H ) :   0.9748 B(  2-C ,  6-H ) :   0.9793

Dispersion correction           -0.005491200
FINAL SINGLE POINT ENERGY      -153.908878083544

DIPOLE MOMENT
-------------

Method             : TDA/CIS
Type of density    : Electron Density
Level              : Relaxed density
State              :   1
Multiplicity       :   3
Irrep              :   0
Energy             :     0.0000000000000000 Eh
Relativity type    :
Basis              : AO
                                X                 Y                 Z
Electronic contribution:      2.481930352       2.404311164       0.011119965
Nuclear contribution   :     -3.405269051      -3.372445462       0.039277713
                        -----------------------------------------
Total Dipole Moment    :     -0.923338699      -0.968134298       0.050397678
                        -----------------------------------------
Magnitude (a.u.)       :      1.338797332
Magnitude (Debye)      :      3.402952382

Rotational constants in cm-1:             2.595685             0.297226             0.280473
Rotational constants in MHz :         77816.690349          8910.620237          8408.357168

                             ****ORCA TERMINATED NORMALLY****
TOTAL RUN TIME: 0 days 0 hours 0 minutes 16 seconds 311 msec
