                         Program Version 6.0.0  -   RELEASE  -
|  1> ! EnGrad wB97M-D3BJ def2-TZVPPD
|  2> %pal nprocs 8 end%pal nprocs 16 end
|  3> %tddft
|  4>  sf true
|  5>  nroots 2 Iroot 2 end
|  6> *xyz 0 3
|  7> O   0.23990825614899 0.94796217686612 -0.00153767708399
|  8> C   0.64815362581514 -0.33259774618959 -0.00031111585939
|  9> C   -0.73436055840133 -0.65525785949781 0.00039943354314
| 10> H   1.20569028812783 -0.64297027375495 0.89049928402803
| 11> H   1.20587528298869 -0.64436312180071 -0.89046947268406
| 12> H   -1.28196383550475 -0.69693106298483 -0.92705484230714
| 13> H   -1.28110305917457 -0.69424211263824 0.92847439036342
| 14> *
| 15>
| 16>                          ****END OF INPUT****

CARTESIAN COORDINATES (ANGSTROEM)
---------------------------------
  O      0.239908    0.947962   -0.001538
  C      0.648154   -0.332598   -0.000311
  C     -0.734361   -0.655258    0.000399
  H      1.205690   -0.642970    0.890499
  H      1.205875   -0.644363   -0.890469
  H     -1.281964   -0.696931   -0.927055
  H     -1.281103   -0.694242    0.928474

 Total Charge           Charge          ....    0
 Multiplicity           Mult            ....    3
 Number of Electrons    NEL             ....   24
 Basis Dimension        Dim             ....  182

ORBITAL ENERGIES
----------------
                 SPIN UP ORBITALS
  NO   OCC          E(Eh)            E(eV)
   0   1.0000     -19.414611      -528.2984
   1   1.0000     -10.407551      -283.2039
   2   1.0000     -10.336063      -281.2586
   3   1.0000      -1.223009       -33.2798
   4   1.0000      -0.863931       -23.5088
   5   1.0000      -0.743581       -20.2339
   6   1.0000      -0.649375       -17.6704
   7   1.0000      -0.612706       -16.6726
   8   1.0000      -0.549946       -14.9648
   9   1.0000      -0.503701       -13.7064
  10   1.0000      -0.458184       -12.4678
  11   1.0000      -0.443679       -12.0731
  12   1.0000      -0.254889        -6.9359
  13   0.0000       0.040611         1.1051
  14   0.0000       0.063709         1.7336
  15   0.0000       0.072506         1.9730
  16   0.0000       0.085676         2.3314
  17   0.0000       0.115999         3.1565

                 SPIN DOWN ORBITALS
  NO   OCC          E(Eh)            E(eV)
   0   1.0000     -19.385186      -527.4977
   1   1.0000     -10.408643      -283.2336
   2   1.0000     -10.323608      -280.9197
   3   1.0000      -1.161110       -31.5954
   4   1.0000      -0.829516       -22.5723
   5   1.0000      -0.722881       -19.6706
   6   1.0000      -0.604808       -16.4577
   7   1.0000      -0.575924       -15.6717
   8   1.0000      -0.524684       -14.2774
   9   1.0000      -0.472136       -12.8475
  10   1.0000      -0.394575       -10.7369
  11   0.0000      -0.079512        -2.1636
  12   0.0000       0.038155         1.0382
  13   0.0000       0.040795         1.1101
  14   0.0000       0.063741         1.7345
  15   0.0000       0.070746         1.9251

----------------------------------------------------------------------------------------------------
          SPIN FLIP ABSORPTION SPECTRUM VIA TRANSITION ELECTRIC DIPOLE MOMENTS
----------------------------------------------------------------------------------------------------
     Transition      Energy     Energy  Wavelength fosc(D2)      D2        DX        DY        DZ
                      (eV)      (cm-1)    (nm)                 (au**2)    (au)      (au)      (au)
----------------------------------------------------------------------------------------------------
  1-3A  ->  2-3A    3.042930   24542.9   407.5   0.001188970   0.01595   0.00034   0.00043   0.12629

Dispersion correction             ... done (  0.0 sec)

MULLIKEN ATOMIC CHARGES AND SPIN DENSITIES
------------------------------------------
   0 O :   -0.295565    0.699221
   1 C :    0.122893    0.231795
   2 C :   -0.455264   -0.704818
   3 H :    0.207772    0.023906
   4 H :    0.207821    0.024096
   5 H :    0.105875   -0.137325
   6 H :    0.106469   -0.136876
Sum of atomic charges       :    0.0000000

LOEWDIN ATOMIC CHARGES AND SPIN DENSITIES
-----------------------------------------
   0 O :    0.109818    0.647273
   1 C :   -0.220014    0.048734
   2 C :    0.170275   -0.571327
   3 H :    0.039542    0.027078
   4 H :    0.039621    0.027227
   5 H :   -0.069633   -0.089525
   6 H :   -0.069609   -0.089460

  Mayer bond orders larger than 0.100000
B(  0-O ,  1-C ) :   0.8300 B(  0-O ,  2-C ) :   0.3070 B(  1-C ,  2-C ) :   0.6059
B(  1-C ,  3-H ) :   0.9855 B(  1-C ,  4-H ) :   0.9851 B(  2-C ,  5-H ) :   1.1294
B(  2-C ,  6-H ) :   1.1288

Dispersion correction           -0.005549184
FINAL SINGLE POINT ENERGY      -153.707700000706

DIPOLE MOMENT
-------------

Method             : TDA/CIS
Type of density    : Electron Density
Level              : Relaxed density
State              :   2
Multiplicity       :   3
Irrep              :   0
Energy             :     0.0000000000000000 Eh
Relativity type    :
Basis              : AO
                                X                 Y                 Z
Electronic contribution:      0.871159636       2.428476340      -0.003580845
Nuclear contribution   :     -0.365232456      -2.550323021       0.003225299
                        -----------------------------------------
Total Dipole Moment    :      0.505927180      -0.121846681      -0.000355547
                        -----------------------------------------
Magnitude (a.u.)       :      0.520393170
Magnitude (Debye)      :      1.322734320

Rotational constants in cm-1:             1.015136             0.539383             0.409245
Rotational constants in MHz :         30433.025676         16170.289805         12268.844585

                             ****ORCA TERMINATED NORMALLY****
TOTAL RUN TIME: 0 days 0 hours 0 minutes 18 seconds 477 msec
