                         Program Version 6.0.0  -   RELEASE  -
|  1> ! Engrad def2-TZVPPD wB97M-D3BJ
|  2> %pal nprocs 8 end%pal nprocs 64 end
|  3> %tddft
|  4>  Iroot 2 Nroots 3
|  5> sf true
|  6> end
|  7> *xyz 0 3
|  8> O   3.03958139 -0.70348336 -1.64369912
|  9> O   -1.44962534 1.41815251 -2.18100616
| 10> O   -0.94028135 -2.65797462 -0.74294192
| 11> O   -3.47840883 0.09172836 1.64779935
| 12> N   0.02439405 -1.43556336 0.88088033
| 13> N   -1.3199195 0.75879661 1.87917711
| 14> N   1.06518522 -1.70825572 -1.21257671
| 15> N   -2.26305444 0.50442252 -0.20650659
| 16> C   2.105611 -0.28471988 0.40803581
| 17> C   -0.11338344 1.4046715 -0.25553159
| 18> C   0.82043873 -0.27880381 1.20627408
| 19> C   -0.04641399 1.00974486 1.18286858
| 20> C   3.33970995 0.48088169 0.69724899
| 21> C   0.99086652 2.14313124 -0.80213584
| 22> C   2.13900982 -0.97968385 -0.82142587
| 23> C   -1.29516623 1.12152956 -0.9476843
| 24> C   -0.00806338 -1.95230815 -0.40922262
| 25> C   -2.41758727 0.39230277 1.18537356
| 26> H   1.12272338 -0.32083898 2.27984468
| 27> H   0.47677745 1.71429731 1.78287311
| 28> H   3.80802427 0.8970127 -0.1827234
| 29> H   3.20247762 1.26538027 1.41176344
| 30> H   4.07096767 -0.23352351 1.00503706
| 31> H   0.67564006 2.89071005 -1.55154393
| 32> H   1.72759602 2.61617837 -0.14827566
| 33> H   1.54342565 1.44355943 -1.46557484
| 34> H   -0.80491066 -1.7149294 1.42908007
| 35> H   -1.47052064 1.08970221 2.82759491
| 36> H   0.99749671 -2.11210403 -2.10439333
| 37> H   -3.13199293 0.18520033 -0.65471468
| 38> *
| 39>
| 40>                          ****END OF INPUT****

CARTESIAN COORDINATES (ANGSTROEM)
---------------------------------
  O      3.039581   -0.703483   -1.643699
  O     -1.449625    1.418153   -2.181006
  O     -0.940281   -2.657975   -0.742942
  O     -3.478409    0.091728    1.647799
  N      0.024394   -1.435563    0.880880
  N     -1.319919    0.758797    1.879177
  N      1.065185   -1.708256   -1.212577
  N     -2.263054    0.504423   -0.206507
  C      2.105611   -0.284720    0.408036
  C     -0.113383    1.404671   -0.255532
  C      0.820439   -0.278804    1.206274
  C     -0.046414    1.009745    1.182869
  C      3.339710    0.480882    0.697249
  C      0.990867    2.143131   -0.802136
  C      2.139010   -0.979684   -0.821426
  C     -1.295166    1.121530   -0.947684
  C     -0.008063   -1.952308   -0.409223
  C     -2.417587    0.392303    1.185374
  H      1.122723   -0.320839    2.279845
  H      0.476777    1.714297    1.782873
  H      3.808024    0.897013   -0.182723
  H      3.202478    1.265380    1.411763
  H      4.070968   -0.233524    1.005037
  H      0.675640    2.890710   -1.551544
  H      1.727596    2.616178   -0.148276
  H      1.543426    1.443559   -1.465575
  H     -0.804911   -1.714929    1.429080
  H     -1.470521    1.089702    2.827595
  H      0.997497   -2.112104   -2.104393
  H     -3.131993    0.185200   -0.654715

 Total Charge           Charge          ....    0
 Multiplicity           Mult            ....    3
 Number of Electrons    NEL             ....  132
 Basis Dimension        Dim             ....  882

ORBITAL ENERGIES
----------------
                 SPIN UP ORBITALS
  NO   OCC          E(Eh)            E(eV)
   0   1.0000     -19.332535      -526.0650
   1   1.0000     -19.324946      -525.8585
   2   1.0000     -19.324657      -525.8506
   3   1.0000     -19.316485      -525.6283
   4   1.0000     -14.570572      -396.4854
   5   1.0000     -14.569811      -396.4647
   6   1.0000     -14.560048      -396.1991
   7   1.0000     -14.558737      -396.1634
   8   1.0000     -10.506247      -285.8895
   9   1.0000     -10.503268      -285.8085
  10   1.0000     -10.479784      -285.1694
  11   1.0000     -10.473808      -285.0068
  12   1.0000     -10.448061      -284.3062
  13   1.0000     -10.444206      -284.2013
  14   1.0000     -10.424262      -283.6586
  15   1.0000     -10.412874      -283.3487
  16   1.0000     -10.371742      -282.2294
  17   1.0000     -10.370298      -282.1902
  18   1.0000      -1.226846       -33.3842
  19   1.0000      -1.221095       -33.2277
  20   1.0000      -1.189010       -32.3546
  21   1.0000      -1.168709       -31.8022
  22   1.0000      -1.121245       -30.5106
  23   1.0000      -1.100862       -29.9560
  24   1.0000      -1.072690       -29.1894
  25   1.0000      -1.055452       -28.7203
  26   1.0000      -0.992586       -27.0096
  27   1.0000      -0.960765       -26.1437
  28   1.0000      -0.899943       -24.4887
  29   1.0000      -0.849578       -23.1182
  30   1.0000      -0.839948       -22.8561
  31   1.0000      -0.804592       -21.8941
  32   1.0000      -0.789253       -21.4767
  33   1.0000      -0.786770       -21.4091
  34   1.0000      -0.712056       -19.3760
  35   1.0000      -0.704654       -19.1746
  36   1.0000      -0.699353       -19.0304
  37   1.0000      -0.677681       -18.4406
  38   1.0000      -0.653714       -17.7885
  39   1.0000      -0.649910       -17.6850
  40   1.0000      -0.624387       -16.9904
  41   1.0000      -0.609807       -16.5937
  42   1.0000      -0.594403       -16.1745
  43   1.0000      -0.584885       -15.9155
  44   1.0000      -0.577344       -15.7103
  45   1.0000      -0.573324       -15.6009
  46   1.0000      -0.571263       -15.5449
  47   1.0000      -0.561243       -15.2722
  48   1.0000      -0.557426       -15.1683
  49   1.0000      -0.554412       -15.0863
  50   1.0000      -0.547976       -14.9112
  51   1.0000      -0.543859       -14.7992
  52   1.0000      -0.530083       -14.4243
  53   1.0000      -0.524532       -14.2732
  54   1.0000      -0.506647       -13.7866
  55   1.0000      -0.501597       -13.6491
  56   1.0000      -0.492481       -13.4011
  57   1.0000      -0.421233       -11.4623
  58   1.0000      -0.417949       -11.3730
  59   1.0000      -0.411962       -11.2101
  60   1.0000      -0.404544       -11.0082
  61   1.0000      -0.399559       -10.8725
  62   1.0000      -0.394162       -10.7257
  63   1.0000      -0.387630       -10.5479
  64   1.0000      -0.381896       -10.3919
  65   1.0000      -0.346039        -9.4162
  66   1.0000      -0.325706        -8.8629
  67   0.0000       0.004206         0.1144
  68   0.0000       0.028606         0.7784
  69   0.0000       0.030906         0.8410
  70   0.0000       0.036956         1.0056
  71   0.0000       0.054329         1.4784

                 SPIN DOWN ORBITALS
  NO   OCC          E(Eh)            E(eV)
   0   1.0000     -19.327323      -525.9232
   1   1.0000     -19.324822      -525.8551
   2   1.0000     -19.318951      -525.6954
   3   1.0000     -19.316387      -525.6256
   4   1.0000     -14.569943      -396.4683
   5   1.0000     -14.569696      -396.4616
   6   1.0000     -14.559282      -396.1782
   7   1.0000     -14.558735      -396.1633
   8   1.0000     -10.506299      -285.8909
   9   1.0000     -10.503317      -285.8098
  10   1.0000     -10.480761      -285.1960
  11   1.0000     -10.474882      -285.0360
  12   1.0000     -10.447631      -284.2945
  13   1.0000     -10.443815      -284.1907
  14   1.0000     -10.413148      -283.3562
  15   1.0000     -10.402361      -283.0626
  16   1.0000     -10.372166      -282.2410
  17   1.0000     -10.370773      -282.2031
  18   1.0000      -1.226180       -33.3661
  19   1.0000      -1.219431       -33.1824
  20   1.0000      -1.183295       -32.1991
  21   1.0000      -1.161631       -31.6096
  22   1.0000      -1.118310       -30.4308
  23   1.0000      -1.098005       -29.8782
  24   1.0000      -1.070327       -29.1251
  25   1.0000      -1.052949       -28.6522
  26   1.0000      -0.979893       -26.6643
  27   1.0000      -0.943733       -25.6803
  28   1.0000      -0.894221       -24.3330
  29   1.0000      -0.843886       -22.9633
  30   1.0000      -0.831672       -22.6309
  31   1.0000      -0.800633       -21.7863
  32   1.0000      -0.787647       -21.4330
  33   1.0000      -0.784806       -21.3557
  34   1.0000      -0.706403       -19.2222
  35   1.0000      -0.698925       -19.0187
  36   1.0000      -0.694346       -18.8941
  37   1.0000      -0.669534       -18.2189
  38   1.0000      -0.647226       -17.6119
  39   1.0000      -0.643474       -17.5098
  40   1.0000      -0.617146       -16.7934
  41   1.0000      -0.604437       -16.4476
  42   1.0000      -0.586730       -15.9657
  43   1.0000      -0.580693       -15.8015
  44   1.0000      -0.570335       -15.5196
  45   1.0000      -0.567856       -15.4522
  46   1.0000      -0.563132       -15.3236
  47   1.0000      -0.555859       -15.1257
  48   1.0000      -0.549073       -14.9410
  49   1.0000      -0.547433       -14.8964
  50   1.0000      -0.539246       -14.6736
  51   1.0000      -0.534534       -14.5454
  52   1.0000      -0.523877       -14.2554
  53   1.0000      -0.515236       -14.0203
  54   1.0000      -0.500608       -13.6222
  55   1.0000      -0.488815       -13.3013
  56   1.0000      -0.486301       -13.2329
  57   1.0000      -0.416812       -11.3420
  58   1.0000      -0.414173       -11.2702
  59   1.0000      -0.401316       -10.9204
  60   1.0000      -0.395281       -10.7561
  61   1.0000      -0.388538       -10.5727
  62   1.0000      -0.382941       -10.4204
  63   1.0000      -0.379145       -10.3171
  64   1.0000      -0.371984       -10.1222
  65   0.0000      -0.064385        -1.7520
  66   0.0000      -0.056863        -1.5473
  67   0.0000       0.003803         0.1035
  68   0.0000       0.028794         0.7835
  69   0.0000       0.030588         0.8323

----------------------------------------------------------------------------------------------------
          SPIN FLIP ABSORPTION SPECTRUM VIA TRANSITION ELECTRIC DIPOLE MOMENTS
----------------------------------------------------------------------------------------------------
     Transition      Energy     Energy  Wavelength fosc(D2)      D2        DX        DY        DZ
                      (eV)      (cm-1)    (nm)                 (au**2)    (au)      (au)      (au)
----------------------------------------------------------------------------------------------------
  1-3A  ->  2-3A    0.055196     445.2  22462.4   0.000001020   0.00075   0.02098  -0.01029  -0.01442
  1-3A  ->  3-3A    1.862080   15018.7   665.8   0.000627063   0.01375   0.01087   0.04751  -0.10663

Dispersion correction             ... done (  0.1 sec)

MULLIKEN ATOMIC CHARGES AND SPIN DENSITIES
------------------------------------------
   0 O :   -0.719384   -0.187519
   1 O :   -0.718327    0.210252
   2 O :   -0.676336   -0.003589
   3 O :   -0.626173    0.002575
   4 N :   -0.251999   -0.020492
   5 N :   -0.260349    0.000645
   6 N :    0.081926   -0.025504
   7 N :    0.033994    0.030193
   8 C :    1.063724    0.186468
   9 C :    0.049889    0.317647
  10 C :   -0.435807   -0.369854
  11 C :    0.544716    0.073981
  12 C :   -1.418714    0.011713
  13 C :   -1.218233    0.016823
  14 C :    0.145447   -0.421315
  15 C :    0.363223    0.102528
  16 C :    0.446807    0.039464
  17 C :    0.384673   -0.003536
  18 H :    0.408537   -0.048192
  19 H :    0.605086    0.027462
  20 H :    0.313214   -0.012923
  21 H :    0.374686    0.001383
  22 H :    0.417848   -0.009690
  23 H :    0.356783    0.019853
  24 H :    0.251435   -0.010717
  25 H :    0.240141    0.061584
  26 H :    0.118545    0.004621
  27 H :    0.075830    0.001064
  28 H :   -0.005195    0.006848
  29 H :    0.054010   -0.001775
Sum of atomic charges       :    0.0000000

LOEWDIN ATOMIC CHARGES AND SPIN DENSITIES
-----------------------------------------
   0 O :    0.042155   -0.159244
   1 O :    0.050776    0.186399
   2 O :    0.083827   -0.003236
   3 O :    0.109768    0.002307
   4 N :    0.272082   -0.002046
   5 N :    0.289360   -0.002483
   6 N :    0.359902   -0.017199
   7 N :    0.318560    0.027873
   8 C :   -0.009322   -0.458739
   9 C :   -0.061788    0.431976
  10 C :   -0.117741   -0.023685
  11 C :   -0.079951    0.026947
  12 C :    0.195398   -0.064582
  13 C :    0.191150    0.065857
  14 C :   -0.424491   -0.091126
  15 C :   -0.377550    0.077963
  16 C :   -0.472503    0.000864
  17 C :   -0.513465    0.000968
  18 H :    0.070706   -0.010702
  19 H :    0.035874    0.006274
  20 H :    0.000752   -0.011448
  21 H :   -0.008340   -0.000511
  22 H :    0.004084   -0.023019
  23 H :    0.027804    0.012940
  24 H :    0.011707    0.001380
  25 H :    0.022862    0.026554
  26 H :   -0.002343   -0.000367
  27 H :   -0.011146   -0.000211
  28 H :   -0.023761   -0.001940
  29 H :    0.015634    0.002236

  Mayer bond orders larger than 0.100000
B(  0-O , 14-C ) :   1.3313 B(  1-O ,  9-C ) :   0.1135 B(  1-O , 13-C ) :   0.1104
B(  1-O , 15-C ) :   1.1694 B(  2-O , 16-C ) :   1.4664 B(  3-O , 17-C ) :   1.6269
B(  4-N ,  8-C ) :   0.1858 B(  4-N , 10-C ) :   0.4220 B(  4-N , 16-C ) :   1.0638
B(  4-N , 18-H ) :  -0.1072 B(  4-N , 26-H ) :   0.9932 B(  5-N , 10-C ) :   0.2094
B(  5-N , 11-C ) :   0.3361 B(  5-N , 17-C ) :   1.1338 B(  5-N , 27-H ) :   1.0954
B(  6-N , 14-C ) :   1.0674 B(  6-N , 16-C ) :   0.9746 B(  6-N , 28-H ) :   1.1461
B(  7-N , 11-C ) :   0.1149 B(  7-N , 15-C ) :   1.0938 B(  7-N , 17-C ) :   0.9513
B(  7-N , 29-H ) :   1.0747 B(  8-C , 10-C ) :   0.4050 B(  8-C , 12-C ) :   0.3918
B(  8-C , 14-C ) :   0.6401 B(  8-C , 16-C ) :   0.1007 B(  8-C , 18-H ) :  -0.1428
B(  9-C , 10-C ) :   0.4363 B(  9-C , 11-C ) :  -0.1425 B(  9-C , 13-C ) :   0.3486
B(  9-C , 15-C ) :   1.0579 B(  9-C , 19-H ) :  -0.2164 B(  9-C , 24-H ) :  -0.1388
B( 10-C , 11-C ) :   0.5054 B( 10-C , 14-C ) :   0.1218 B( 10-C , 16-C ) :  -0.1335
B( 10-C , 18-H ) :   0.8835 B( 10-C , 19-H ) :  -0.1303 B( 11-C , 13-C ) :  -0.1266
B( 11-C , 15-C ) :  -0.2558 B( 11-C , 17-C ) :  -0.1986 B( 11-C , 19-H ) :   0.8589
B( 12-C , 20-H ) :   0.9622 B( 12-C , 21-H ) :   0.9294 B( 12-C , 22-H ) :   0.8175
B( 13-C , 23-H ) :   0.9004 B( 13-C , 24-H ) :   1.1660 B( 13-C , 25-H ) :   0.8559

Dispersion correction           -0.060593863
FINAL SINGLE POINT ENERGY      -908.774881103102

DIPOLE MOMENT
-------------

Method             : TDA/CIS
Type of density    : Electron Density
Level              : Relaxed density
State              :   2
Multiplicity       :   3
Irrep              :   0
Energy             :     0.0000000000000000 Eh
Relativity type    :
Basis              : AO
                                X                 Y                 Z
Electronic contribution:     -9.795846300      -6.464036255      -2.224103663
Nuclear contribution   :     11.479874460       7.721143338       4.573316210
                        -----------------------------------------
Total Dipole Moment    :      1.684028160       1.257107083       2.349212547
                        -----------------------------------------
Magnitude (a.u.)       :      3.151994393
Magnitude (Debye)      :      8.011733043

Rotational constants in cm-1:             0.022524             0.012892             0.012096
Rotational constants in MHz :           675.250833           386.484557           362.616699

                             ****ORCA TERMINATED NORMALLY****
TOTAL RUN TIME: 0 days 0 hours 5 minutes 29 seconds 636 msec
