                         Program Version 6.0.0  -   RELEASE  -
|  1> ! Engrad def2-TZVPPD wB97M-D3BJ
|  2> %pal nprocs 8 end%pal nprocs 64 end
|  3> %tddft Nroots 2 Iroot 2
|  4> sf true
|  5> end
|  6> *xyz 0 3
|  7> O   3.2036707 0.39413202 -0.91503961
|  8> O   -0.64275586 1.53594249 -2.31016284
|  9> O   0.40934181 -3.08527786 -0.35054718
| 10> O   -3.00951747 -1.77720217 -0.41520551
| 11> N   0.33596101 -1.43804757 1.21158367
| 12> N   -2.14965066 -0.18762261 0.96244538
| 13> N   1.54886954 -1.1574796 -0.76510883
| 14> N   -1.48550987 -0.29337797 -1.25750363
| 15> C   1.74496489 0.50196293 0.96162948
| 16> C   -0.86401006 1.6166307 0.04806946
| 17> C   0.39432328 -0.03459079 1.55253453
| 18> C   -1.06688521 0.72165966 1.22493854
| 19> C   2.48247313 1.57620135 1.64842735
| 20> C   -0.68984821 3.07308404 0.19808026
| 21> C   2.24428454 -0.04599928 -0.28921657
| 22> C   -0.97231179 0.99890639 -1.25775533
| 23> C   0.7278682 -1.96908501 0.00668895
| 24> C   -2.27659914 -0.83562111 -0.24567491
| 25> H   0.51195742 0.04013916 2.62236626
| 26> H   -1.3220507 1.30319075 2.11112286
| 27> H   3.47712773 1.73416712 1.19738886
| 28> H   1.92416888 2.51249992 1.61980587
| 29> H   2.58258578 1.34309358 2.7127036
| 30> H   -1.56783115 3.54269177 0.65584395
| 31> H   0.14096639 3.29496509 0.85606716
| 32> H   -0.52285343 3.53538343 -0.76501937
| 33> H   -0.30875752 -2.02946322 1.69458865
| 34> H   -2.70837339 -0.57251024 1.71144595
| 35> H   1.91421188 -1.56016674 -1.62173463
| 36> H   -1.59609858 -0.76434845 -2.14289059
| 37> *
| 38>
| 39>                          ****END OF INPUT****

CARTESIAN COORDINATES (ANGSTROEM)
---------------------------------
  O      3.203671    0.394132   -0.915040
  O     -0.642756    1.535942   -2.310163
  O      0.409342   -3.085278   -0.350547
  O     -3.009517   -1.777202   -0.415206
  N      0.335961   -1.438048    1.211584
  N     -2.149651   -0.187623    0.962445
  N      1.548870   -1.157480   -0.765109
  N     -1.485510   -0.293378   -1.257504
  C      1.744965    0.501963    0.961629
  C     -0.864010    1.616631    0.048069
  C      0.394323   -0.034591    1.552535
  C     -1.066885    0.721660    1.224939
  C      2.482473    1.576201    1.648427
  C     -0.689848    3.073084    0.198080
  C      2.244285   -0.045999   -0.289217
  C     -0.972312    0.998906   -1.257755
  C      0.727868   -1.969085    0.006689
  C     -2.276599   -0.835621   -0.245675
  H      0.511957    0.040139    2.622366
  H     -1.322051    1.303191    2.111123
  H      3.477128    1.734167    1.197389
  H      1.924169    2.512500    1.619806
  H      2.582586    1.343094    2.712704
  H     -1.567831    3.542692    0.655844
  H      0.140966    3.294965    0.856067
  H     -0.522853    3.535383   -0.765019
  H     -0.308758   -2.029463    1.694589
  H     -2.708373   -0.572510    1.711446
  H      1.914212   -1.560167   -1.621735
  H     -1.596099   -0.764348   -2.142891

 Total Charge           Charge          ....    0
 Multiplicity           Mult            ....    3
 Number of Electrons    NEL             ....  132
 Basis Dimension        Dim             ....  882

ORBITAL ENERGIES
----------------
                 SPIN UP ORBITALS
  NO   OCC          E(Eh)            E(eV)
   0   1.0000     -19.332987      -526.0773
   1   1.0000     -19.331890      -526.0475
   2   1.0000     -19.320164      -525.7284
   3   1.0000     -19.313976      -525.5600
   4   1.0000     -14.564935      -396.3320
   5   1.0000     -14.560284      -396.2055
   6   1.0000     -14.558530      -396.1577
   7   1.0000     -14.557403      -396.1271
   8   1.0000     -10.503772      -285.8222
   9   1.0000     -10.500730      -285.7394
  10   1.0000     -10.479907      -285.1728
  11   1.0000     -10.478745      -285.1411
  12   1.0000     -10.449713      -284.3512
  13   1.0000     -10.448391      -284.3152
  14   1.0000     -10.425065      -283.6804
  15   1.0000     -10.414501      -283.3930
  16   1.0000     -10.375905      -282.3427
  17   1.0000     -10.372899      -282.2609
  18   1.0000      -1.219682       -33.1892
  19   1.0000      -1.211812       -32.9751
  20   1.0000      -1.191927       -32.4340
  21   1.0000      -1.189416       -32.3657
  22   1.0000      -1.115920       -30.3657
  23   1.0000      -1.094977       -29.7958
  24   1.0000      -1.063806       -28.9476
  25   1.0000      -1.053097       -28.6562
  26   1.0000      -0.975764       -26.5519
  27   1.0000      -0.953355       -25.9421
  28   1.0000      -0.883484       -24.0408
  29   1.0000      -0.840136       -22.8613
  30   1.0000      -0.829155       -22.5625
  31   1.0000      -0.804211       -21.8837
  32   1.0000      -0.783635       -21.3238
  33   1.0000      -0.776241       -21.1226
  34   1.0000      -0.699301       -19.0289
  35   1.0000      -0.691747       -18.8234
  36   1.0000      -0.684110       -18.6156
  37   1.0000      -0.662591       -18.0300
  38   1.0000      -0.651226       -17.7208
  39   1.0000      -0.646680       -17.5970
  40   1.0000      -0.617064       -16.7912
  41   1.0000      -0.603303       -16.4167
  42   1.0000      -0.589423       -16.0390
  43   1.0000      -0.583175       -15.8690
  44   1.0000      -0.580842       -15.8055
  45   1.0000      -0.569333       -15.4923
  46   1.0000      -0.564520       -15.3614
  47   1.0000      -0.557235       -15.1631
  48   1.0000      -0.555644       -15.1198
  49   1.0000      -0.549822       -14.9614
  50   1.0000      -0.545236       -14.8366
  51   1.0000      -0.541801       -14.7431
  52   1.0000      -0.531769       -14.4702
  53   1.0000      -0.525493       -14.2994
  54   1.0000      -0.513705       -13.9786
  55   1.0000      -0.507142       -13.8000
  56   1.0000      -0.489926       -13.3316
  57   1.0000      -0.420451       -11.4411
  58   1.0000      -0.416345       -11.3293
  59   1.0000      -0.408247       -11.1090
  60   1.0000      -0.406435       -11.0596
  61   1.0000      -0.394795       -10.7429
  62   1.0000      -0.392181       -10.6718
  63   1.0000      -0.387523       -10.5450
  64   1.0000      -0.382713       -10.4142
  65   1.0000      -0.340086        -9.2542
  66   1.0000      -0.328736        -8.9454
  67   0.0000       0.005910         0.1608
  68   0.0000       0.028364         0.7718
  69   0.0000       0.031462         0.8561
  70   0.0000       0.039453         1.0736
  71   0.0000       0.055412         1.5078

                 SPIN DOWN ORBITALS
  NO   OCC          E(Eh)            E(eV)
   0   1.0000     -19.328310      -525.9500
   1   1.0000     -19.327098      -525.9171
   2   1.0000     -19.319949      -525.7225
   3   1.0000     -19.313754      -525.5540
   4   1.0000     -14.564398      -396.3174
   5   1.0000     -14.559958      -396.1966
   6   1.0000     -14.558159      -396.1477
   7   1.0000     -14.556961      -396.1151
   8   1.0000     -10.503799      -285.8229
   9   1.0000     -10.500756      -285.7401
  10   1.0000     -10.481007      -285.2027
  11   1.0000     -10.479805      -285.1700
  12   1.0000     -10.449347      -284.3412
  13   1.0000     -10.448244      -284.3112
  14   1.0000     -10.413567      -283.3676
  15   1.0000     -10.403133      -283.0836
  16   1.0000     -10.376490      -282.3587
  17   1.0000     -10.373468      -282.2764
  18   1.0000      -1.218312       -33.1520
  19   1.0000      -1.209952       -32.9245
  20   1.0000      -1.185976       -32.2720
  21   1.0000      -1.184066       -32.2201
  22   1.0000      -1.113391       -30.2969
  23   1.0000      -1.092636       -29.7321
  24   1.0000      -1.061979       -28.8979
  25   1.0000      -1.051541       -28.6139
  26   1.0000      -0.961223       -26.1562
  27   1.0000      -0.936594       -25.4860
  28   1.0000      -0.879303       -23.9270
  29   1.0000      -0.835123       -22.7249
  30   1.0000      -0.820336       -22.3225
  31   1.0000      -0.798634       -21.7319
  32   1.0000      -0.782337       -21.2885
  33   1.0000      -0.774721       -21.0812
  34   1.0000      -0.692738       -18.8504
  35   1.0000      -0.686221       -18.6730
  36   1.0000      -0.678421       -18.4608
  37   1.0000      -0.655623       -17.8404
  38   1.0000      -0.643924       -17.5221
  39   1.0000      -0.639739       -17.4082
  40   1.0000      -0.614549       -16.7227
  41   1.0000      -0.598683       -16.2910
  42   1.0000      -0.582493       -15.8504
  43   1.0000      -0.573892       -15.6164
  44   1.0000      -0.570655       -15.5283
  45   1.0000      -0.563108       -15.3229
  46   1.0000      -0.560047       -15.2396
  47   1.0000      -0.552535       -15.0353
  48   1.0000      -0.548945       -14.9376
  49   1.0000      -0.540588       -14.7102
  50   1.0000      -0.537466       -14.6252
  51   1.0000      -0.535332       -14.5671
  52   1.0000      -0.525513       -14.2999
  53   1.0000      -0.514720       -14.0062
  54   1.0000      -0.502949       -13.6859
  55   1.0000      -0.500631       -13.6229
  56   1.0000      -0.484568       -13.1858
  57   1.0000      -0.416084       -11.3222
  58   1.0000      -0.412336       -11.2202
  59   1.0000      -0.401652       -10.9295
  60   1.0000      -0.392717       -10.6864
  61   1.0000      -0.386223       -10.5097
  62   1.0000      -0.383328       -10.4309
  63   1.0000      -0.380583       -10.3562
  64   1.0000      -0.373051       -10.1512
  65   0.0000      -0.064434        -1.7533
  66   0.0000      -0.045771        -1.2455
  67   0.0000       0.005537         0.1507
  68   0.0000       0.028271         0.7693
  69   0.0000       0.031124         0.8469

----------------------------------------------------------------------------------------------------
          SPIN FLIP ABSORPTION SPECTRUM VIA TRANSITION ELECTRIC DIPOLE MOMENTS
----------------------------------------------------------------------------------------------------
     Transition      Energy     Energy  Wavelength fosc(D2)      D2        DX        DY        DZ
                      (eV)      (cm-1)    (nm)                 (au**2)    (au)      (au)      (au)
----------------------------------------------------------------------------------------------------
  1-3A  ->  2-3A    0.052354     422.3  23682.1   0.000000284   0.00022  -0.00742   0.00372  -0.01234

Dispersion correction             ... done (  0.1 sec)

MULLIKEN ATOMIC CHARGES AND SPIN DENSITIES
------------------------------------------
   0 O :   -0.689231   -0.030765
   1 O :   -0.692700    0.028671
   2 O :   -0.657614   -0.001072
   3 O :   -0.638687    0.000473
   4 N :   -0.287951    0.002307
   5 N :   -0.302692    0.001369
   6 N :    0.082820   -0.005653
   7 N :    0.067897    0.007600
   8 C :    0.737223    0.439051
   9 C :    0.433527    0.404320
  10 C :   -0.115717   -0.273026
  11 C :    0.489592   -0.128908
  12 C :   -1.160807    0.019295
  13 C :   -1.171476    0.001673
  14 C :    0.040298   -0.349711
  15 C :    0.039759   -0.213399
  16 C :    0.402298    0.021671
  17 C :    0.363325    0.008852
  18 H :    0.605726    0.003469
  19 H :    0.507534    0.003633
  20 H :    0.305525   -0.005579
  21 H :    0.225001    0.018532
  22 H :    0.318131    0.008758
  23 H :    0.322470    0.013722
  24 H :    0.246130    0.019941
  25 H :    0.314285   -0.001512
  26 H :    0.061905    0.001263
  27 H :    0.066349    0.000193
  28 H :    0.050398    0.003518
  29 H :    0.036682    0.001311
Sum of atomic charges       :    0.0000000

LOEWDIN ATOMIC CHARGES AND SPIN DENSITIES
-----------------------------------------
   0 O :    0.079527   -0.027900
   1 O :    0.084354    0.024367
   2 O :    0.087326   -0.000783
   3 O :    0.101177    0.000705
   4 N :    0.265276   -0.000431
   5 N :    0.266891    0.001070
   6 N :    0.318649   -0.005056
   7 N :    0.325665    0.001165
   8 C :    0.010986   -0.074526
   9 C :   -0.034144    0.094812
  10 C :   -0.034516   -0.004464
  11 C :   -0.078001    0.002009
  12 C :    0.181858   -0.013525
  13 C :    0.200540    0.012801
  14 C :   -0.402508   -0.019092
  15 C :   -0.401969    0.009892
  16 C :   -0.490878   -0.000168
  17 C :   -0.488083   -0.000198
  18 H :    0.024257   -0.001010
  19 H :    0.049020   -0.000341
  20 H :    0.015250    0.000098
  21 H :   -0.015269   -0.003824
  22 H :    0.006336   -0.002608
  23 H :    0.016315    0.004412
  24 H :   -0.022777    0.003036
  25 H :   -0.000779   -0.000190
  26 H :   -0.036414   -0.000085
  27 H :   -0.021810    0.000138
  28 H :   -0.001613   -0.000410
  29 H :   -0.004667    0.000110

  Mayer bond orders larger than 0.100000
B(  0-O , 14-C ) :   1.3210 B(  1-O , 15-C ) :   1.3786 B(  2-O , 16-C ) :   1.5128
B(  3-O , 17-C ) :   1.5388 B(  4-N ,  5-N ) :   0.1211 B(  4-N ,  8-C ) :   0.2431
B(  4-N , 10-C ) :   0.2954 B(  4-N , 16-C ) :   1.0485 B(  4-N , 18-H ) :  -0.1161
B(  4-N , 26-H ) :   1.0905 B(  5-N ,  9-C ) :   0.3309 B(  5-N , 11-C ) :   0.1311
B(  5-N , 17-C ) :   1.1367 B(  5-N , 27-H ) :   1.0735 B(  6-N ,  8-C ) :  -0.1300
B(  6-N , 10-C ) :   0.1116 B(  6-N , 14-C ) :   1.0790 B(  6-N , 16-C ) :   0.9698
B(  6-N , 28-H ) :   1.0821 B(  7-N , 11-C ) :   0.1322 B(  7-N , 15-C ) :   1.0041
B(  7-N , 17-C ) :   0.9590 B(  7-N , 29-H ) :   1.0850 B(  8-C ,  9-C ) :   0.1252
B(  8-C , 10-C ) :   0.1560 B(  8-C , 12-C ) :   0.5624 B(  8-C , 14-C ) :   0.6808
B(  8-C , 18-H ) :  -0.1458 B(  9-C , 10-C ) :   0.1825 B(  9-C , 11-C ) :   0.2712
B(  9-C , 13-C ) :   0.5735 B(  9-C , 15-C ) :   0.8398 B(  9-C , 19-H ) :  -0.1013
B(  9-C , 25-H ) :  -0.1007 B( 10-C , 11-C ) :   0.6344 B( 10-C , 16-C ) :  -0.1083
B( 10-C , 18-H ) :   0.7073 B( 11-C , 15-C ) :  -0.2314 B( 11-C , 17-C ) :  -0.1975
B( 11-C , 19-H ) :   0.8269 B( 12-C , 20-H ) :   0.9820 B( 12-C , 21-H ) :   0.8927
B( 12-C , 22-H ) :   0.9708 B( 13-C , 23-H ) :   0.9430 B( 13-C , 24-H ) :   0.8435
B( 13-C , 25-H ) :   1.0003

Dispersion correction           -0.058344968
FINAL SINGLE POINT ENERGY      -908.793128056800

DIPOLE MOMENT
-------------

Method             : TDA/CIS
Type of density    : Electron Density
Level              : Relaxed density
State              :   2
Multiplicity       :   3
Irrep              :   0
Energy             :     0.0000000000000000 Eh
Relativity type    :
Basis              : AO
                                X                 Y                 Z
Electronic contribution:     -2.756089605     -10.328514611      -7.229854990
Nuclear contribution   :      2.443678724      12.013897665      10.149797051
                        -----------------------------------------
Total Dipole Moment    :     -0.312410881       1.685383054       2.919942061
                        -----------------------------------------
Magnitude (a.u.)       :      3.385879242
Magnitude (Debye)      :      8.606221084

Rotational constants in cm-1:             0.018881             0.015264             0.012220
Rotational constants in MHz :           566.042634           457.591147           366.346076

                             ****ORCA TERMINATED NORMALLY****
TOTAL RUN TIME: 0 days 0 hours 4 minutes 28 seconds 24 msec
