                         Program Version 6.0.0  -   RELEASE  -
|  1> ! Engrad def2-TZVPPD wB97M-D3BJ
|  2> %pal nprocs 8 end%pal nprocs 64 end
|  3> %tddft
|  4>  Iroot 1 Nroots 3
|  5> sf true
|  6> end
|  7> *xyz 0 3
|  8> O   3.74189115 0.12915445 0.33924604
|  9> O   -0.83724499 0.84251658 -2.66567638
| 10> O   0.53307144 -2.46701644 -1.35999119
| 11> O   -3.50642176 -1.28330935 0.30734042
| 12> N   0.02020214 -1.40978689 0.59454136
| 13> N   -2.20176886 0.39657146 1.02343626
| 14> N   2.04614901 -1.11345092 -0.47470818
| 15> N   -2.26785157 -0.14703512 -1.28086818
| 16> C   1.62997896 0.35565943 1.38763944
| 17> C   -0.54656602 1.30201757 -0.42304162
| 18> C   0.2265818 -0.21527284 1.43206839
| 19> C   -0.93882476 0.93883999 0.96592001
| 20> C   2.09322594 1.47588204 2.31095325
| 21> C   0.52379871 2.32760357 -0.66239796
| 22> C   2.53943112 -0.21598939 0.46221756
| 23> C   -1.2043374 0.68836987 -1.5129131
| 24> C   0.77877086 -1.66832853 -0.50286285
| 25> C   -2.77027401 -0.42889778 0.02649294
| 26> H   -0.23704098 -0.39779818 2.39628485
| 27> H   -0.7664284 1.72217068 1.71169483
| 28> H   3.12374912 1.25463947 2.79616721
| 29> H   2.05715876 2.3749297 1.72867691
| 30> H   1.3665532 1.60861185 3.10661656
| 31> H   1.408241 1.7880608 -0.99104193
| 32> H   0.12425143 2.93173472 -1.47022213
| 33> H   0.74577357 2.89728554 0.17551801
| 34> H   -0.90174061 -1.89375876 0.59707225
| 35> H   -2.56560985 0.09580032 1.94625201
| 36> H   2.62480512 -1.29246644 -1.30728162
| 37> H   -2.4279432 -0.7404082 -2.086599
| 38> *
| 39>
| 40>                          ****END OF INPUT****

CARTESIAN COORDINATES (ANGSTROEM)
---------------------------------
  O      3.741891    0.129154    0.339246
  O     -0.837245    0.842517   -2.665676
  O      0.533071   -2.467016   -1.359991
  O     -3.506422   -1.283309    0.307340
  N      0.020202   -1.409787    0.594541
  N     -2.201769    0.396571    1.023436
  N      2.046149   -1.113451   -0.474708
  N     -2.267852   -0.147035   -1.280868
  C      1.629979    0.355659    1.387639
  C     -0.546566    1.302018   -0.423042
  C      0.226582   -0.215273    1.432068
  C     -0.938825    0.938840    0.965920
  C      2.093226    1.475882    2.310953
  C      0.523799    2.327604   -0.662398
  C      2.539431   -0.215989    0.462218
  C     -1.204337    0.688370   -1.512913
  C      0.778771   -1.668329   -0.502863
  C     -2.770274   -0.428898    0.026493
  H     -0.237041   -0.397798    2.396285
  H     -0.766428    1.722171    1.711695
  H      3.123749    1.254639    2.796167
  H      2.057159    2.374930    1.728677
  H      1.366553    1.608612    3.106617
  H      1.408241    1.788061   -0.991042
  H      0.124251    2.931735   -1.470222
  H      0.745774    2.897286    0.175518
  H     -0.901741   -1.893759    0.597072
  H     -2.565610    0.095800    1.946252
  H      2.624805   -1.292466   -1.307282
  H     -2.427943   -0.740408   -2.086599

 Total Charge           Charge          ....    0
 Multiplicity           Mult            ....    3
 Number of Electrons    NEL             ....  132
 Basis Dimension        Dim             ....  882

ORBITAL ENERGIES
----------------
                 SPIN UP ORBITALS
  NO   OCC          E(Eh)            E(eV)
   0   1.0000     -19.344425      -526.3886
   1   1.0000     -19.329087      -525.9712
   2   1.0000     -19.327061      -525.9161
   3   1.0000     -19.313813      -525.5556
   4   1.0000     -14.568118      -396.4187
   5   1.0000     -14.565516      -396.3478
   6   1.0000     -14.564365      -396.3165
   7   1.0000     -14.557714      -396.1355
   8   1.0000     -10.520571      -286.2793
   9   1.0000     -10.496969      -285.6371
  10   1.0000     -10.477981      -285.1204
  11   1.0000     -10.470439      -284.9151
  12   1.0000     -10.453966      -284.4669
  13   1.0000     -10.445882      -284.2469
  14   1.0000     -10.430275      -283.8222
  15   1.0000     -10.414470      -283.3921
  16   1.0000     -10.389249      -282.7058
  17   1.0000     -10.367419      -282.1118
  18   1.0000      -1.252258       -34.0757
  19   1.0000      -1.219202       -33.1762
  20   1.0000      -1.203715       -32.7548
  21   1.0000      -1.179828       -32.1047
  22   1.0000      -1.128371       -30.7045
  23   1.0000      -1.097608       -29.8674
  24   1.0000      -1.066060       -29.0090
  25   1.0000      -1.050071       -28.5739
  26   1.0000      -0.979622       -26.6569
  27   1.0000      -0.955126       -25.9903
  28   1.0000      -0.884790       -24.0764
  29   1.0000      -0.846222       -23.0269
  30   1.0000      -0.832909       -22.6646
  31   1.0000      -0.806849       -21.9555
  32   1.0000      -0.783414       -21.3178
  33   1.0000      -0.777488       -21.1565
  34   1.0000      -0.702304       -19.1107
  35   1.0000      -0.695763       -18.9327
  36   1.0000      -0.688022       -18.7220
  37   1.0000      -0.676328       -18.4038
  38   1.0000      -0.649530       -17.6746
  39   1.0000      -0.647278       -17.6133
  40   1.0000      -0.629306       -17.1243
  41   1.0000      -0.603032       -16.4093
  42   1.0000      -0.597880       -16.2691
  43   1.0000      -0.591969       -16.1083
  44   1.0000      -0.578203       -15.7337
  45   1.0000      -0.574217       -15.6252
  46   1.0000      -0.570576       -15.5262
  47   1.0000      -0.563008       -15.3202
  48   1.0000      -0.557860       -15.1802
  49   1.0000      -0.554465       -15.0878
  50   1.0000      -0.553304       -15.0562
  51   1.0000      -0.546491       -14.8708
  52   1.0000      -0.531954       -14.4752
  53   1.0000      -0.523440       -14.2435
  54   1.0000      -0.516806       -14.0630
  55   1.0000      -0.507286       -13.8040
  56   1.0000      -0.495758       -13.4902
  57   1.0000      -0.441199       -12.0056
  58   1.0000      -0.421360       -11.4658
  59   1.0000      -0.414172       -11.2702
  60   1.0000      -0.409690       -11.1482
  61   1.0000      -0.399931       -10.8827
  62   1.0000      -0.395653       -10.7663
  63   1.0000      -0.386686       -10.5223
  64   1.0000      -0.379483       -10.3263
  65   1.0000      -0.354317        -9.6415
  66   1.0000      -0.313747        -8.5375
  67   0.0000       0.007971         0.2169
  68   0.0000       0.029313         0.7976
  69   0.0000       0.034648         0.9428
  70   0.0000       0.036576         0.9953
  71   0.0000       0.055459         1.5091

                 SPIN DOWN ORBITALS
  NO   OCC          E(Eh)            E(eV)
   0   1.0000     -19.344353      -526.3866
   1   1.0000     -19.323963      -525.8318
   2   1.0000     -19.321996      -525.7782
   3   1.0000     -19.313756      -525.5540
   4   1.0000     -14.567835      -396.4109
   5   1.0000     -14.565618      -396.3506
   6   1.0000     -14.563827      -396.3019
   7   1.0000     -14.556941      -396.1145
   8   1.0000     -10.520626      -286.2808
   9   1.0000     -10.497031      -285.6387
  10   1.0000     -10.479114      -285.1512
  11   1.0000     -10.471409      -284.9415
  12   1.0000     -10.453172      -284.4453
  13   1.0000     -10.445117      -284.2261
  14   1.0000     -10.419389      -283.5260
  15   1.0000     -10.403615      -283.0968
  16   1.0000     -10.389783      -282.7204
  17   1.0000     -10.367820      -282.1227
  18   1.0000      -1.251927       -34.0667
  19   1.0000      -1.218433       -33.1553
  20   1.0000      -1.196932       -32.5702
  21   1.0000      -1.173165       -31.9234
  22   1.0000      -1.125599       -30.6291
  23   1.0000      -1.095445       -29.8086
  24   1.0000      -1.063728       -28.9455
  25   1.0000      -1.047928       -28.5156
  26   1.0000      -0.965623       -26.2759
  27   1.0000      -0.937894       -25.5214
  28   1.0000      -0.879856       -23.9421
  29   1.0000      -0.841572       -22.9003
  30   1.0000      -0.823520       -22.4091
  31   1.0000      -0.801929       -21.8216
  32   1.0000      -0.781535       -21.2666
  33   1.0000      -0.775950       -21.1147
  34   1.0000      -0.697784       -18.9877
  35   1.0000      -0.691082       -18.8053
  36   1.0000      -0.682312       -18.5667
  37   1.0000      -0.670666       -18.2498
  38   1.0000      -0.643026       -17.4976
  39   1.0000      -0.638629       -17.3780
  40   1.0000      -0.623269       -16.9600
  41   1.0000      -0.599685       -16.3183
  42   1.0000      -0.594199       -16.1690
  43   1.0000      -0.585335       -15.9278
  44   1.0000      -0.571920       -15.5627
  45   1.0000      -0.569199       -15.4887
  46   1.0000      -0.559770       -15.2321
  47   1.0000      -0.554397       -15.0859
  48   1.0000      -0.549819       -14.9613
  49   1.0000      -0.548508       -14.9257
  50   1.0000      -0.545529       -14.8446
  51   1.0000      -0.536729       -14.6051
  52   1.0000      -0.526232       -14.3195
  53   1.0000      -0.515427       -14.0255
  54   1.0000      -0.504145       -13.7185
  55   1.0000      -0.502842       -13.6830
  56   1.0000      -0.488543       -13.2939
  57   1.0000      -0.437648       -11.9090
  58   1.0000      -0.418492       -11.3877
  59   1.0000      -0.407153       -11.0792
  60   1.0000      -0.398417       -10.8415
  61   1.0000      -0.389367       -10.5952
  62   1.0000      -0.382570       -10.4103
  63   1.0000      -0.379639       -10.3305
  64   1.0000      -0.361343        -9.8326
  65   0.0000      -0.075629        -2.0580
  66   0.0000      -0.048269        -1.3135
  67   0.0000       0.007550         0.2055
  68   0.0000       0.029025         0.7898
  69   0.0000       0.034732         0.9451

----------------------------------------------------------------------------------------------------
          SPIN FLIP ABSORPTION SPECTRUM VIA TRANSITION ELECTRIC DIPOLE MOMENTS
----------------------------------------------------------------------------------------------------
     Transition      Energy     Energy  Wavelength fosc(D2)      D2        DX        DY        DZ
                      (eV)      (cm-1)    (nm)                 (au**2)    (au)      (au)      (au)
----------------------------------------------------------------------------------------------------
  1-3A  ->  2-3A    0.229463    1850.7  5403.2   0.000223312   0.03972   0.17751  -0.02402   0.08738
  1-3A  ->  3-3A    2.040109   16454.6   607.7   0.011338965   0.22686   0.45403   0.02232   0.14221

Dispersion correction             ... done (  0.1 sec)

MULLIKEN ATOMIC CHARGES AND SPIN DENSITIES
------------------------------------------
   0 O :   -0.721697    0.010408
   1 O :   -0.706204    0.004967
   2 O :   -0.658589   -0.000789
   3 O :   -0.530157   -0.000520
   4 N :   -0.166724   -0.008061
   5 N :   -0.319267   -0.005423
   6 N :   -0.003512   -0.003183
   7 N :   -0.031152   -0.001121
   8 C :    0.377314    0.372071
   9 C :    0.658714    0.284498
  10 C :    0.036599   -0.212106
  11 C :    0.341330   -0.125290
  12 C :   -1.277678   -0.024042
  13 C :   -1.558832   -0.010434
  14 C :    0.248072   -0.143017
  15 C :    0.102484   -0.176937
  16 C :    0.481362    0.010572
  17 C :    0.278917    0.010652
  18 H :    0.581619   -0.011872
  19 H :    0.549812   -0.001266
  20 H :    0.347239    0.000984
  21 H :    0.237565    0.010795
  22 H :    0.325570    0.003817
  23 H :    0.310714    0.011334
  24 H :    0.456925    0.006546
  25 H :    0.263334   -0.006379
  26 H :    0.135732   -0.001030
  27 H :    0.128065    0.001505
  28 H :    0.057276    0.001722
  29 H :    0.055170    0.001598
Sum of atomic charges       :    0.0000000

LOEWDIN ATOMIC CHARGES AND SPIN DENSITIES
-----------------------------------------
   0 O :    0.034919    0.008099
   1 O :    0.088181    0.003953
   2 O :    0.102831   -0.000598
   3 O :    0.141831   -0.000540
   4 N :    0.272742   -0.002523
   5 N :    0.240493   -0.003346
   6 N :    0.319289   -0.002012
   7 N :    0.342142   -0.003839
   8 C :   -0.046754    0.018355
   9 C :   -0.026284    0.006887
  10 C :   -0.016265   -0.011006
  11 C :   -0.120616   -0.009437
  12 C :    0.191790    0.001996
  13 C :    0.239083    0.000842
  14 C :   -0.415608   -0.000657
  15 C :   -0.455316   -0.003332
  16 C :   -0.523280   -0.000854
  17 C :   -0.479541   -0.000940
  18 H :    0.043967   -0.001521
  19 H :    0.058067   -0.001192
  20 H :    0.060229    0.000545
  21 H :   -0.034615    0.001076
  22 H :   -0.018384    0.000137
  23 H :    0.016287    0.000745
  24 H :    0.016773    0.000101
  25 H :   -0.051269   -0.000059
  26 H :   -0.002101   -0.000134
  27 H :    0.004403   -0.000327
  28 H :    0.020150   -0.000108
  29 H :   -0.003149   -0.000313

  Mayer bond orders larger than 0.100000
B(  0-O , 14-C ) :   1.2459 B(  1-O , 15-C ) :   1.2512 B(  2-O , 16-C ) :   1.4745
B(  3-O , 17-C ) :   1.6764 B(  4-N , 10-C ) :   0.7214 B(  4-N , 16-C ) :   0.9963
B(  4-N , 26-H ) :   0.9794 B(  5-N ,  9-C ) :   0.1472 B(  5-N , 11-C ) :   0.3094
B(  5-N , 17-C ) :   1.1199 B(  5-N , 27-H ) :   0.9806 B(  6-N ,  8-C ) :  -0.1939
B(  6-N , 10-C ) :   0.1321 B(  6-N , 14-C ) :   1.0879 B(  6-N , 16-C ) :   0.9279
B(  6-N , 28-H ) :   1.0934 B(  7-N ,  9-C ) :  -0.1585 B(  7-N , 15-C ) :   1.1255
B(  7-N , 17-C ) :   0.8929 B(  7-N , 29-H ) :   1.0869 B(  8-C ,  9-C ) :   0.1961
B(  8-C , 10-C ) :   0.8443 B(  8-C , 11-C ) :   0.2137 B(  8-C , 12-C ) :   0.4824
B(  8-C , 14-C ) :   0.7570 B(  8-C , 22-H ) :  -0.1926 B(  9-C , 10-C ) :   0.1809
B(  9-C , 11-C ) :   0.6473 B(  9-C , 13-C ) :   0.1937 B(  9-C , 15-C ) :   0.8660
B(  9-C , 19-H ) :  -0.1703 B(  9-C , 25-H ) :  -0.1772 B( 10-C , 11-C ) :   0.3419
B( 10-C , 18-H ) :   0.6233 B( 11-C , 13-C ) :  -0.2069 B( 11-C , 15-C ) :  -0.1324
B( 11-C , 17-C ) :  -0.1469 B( 11-C , 19-H ) :   0.8583 B( 12-C , 20-H ) :   0.9125
B( 12-C , 21-H ) :   0.8491 B( 12-C , 22-H ) :   1.1128 B( 13-C , 23-H ) :   0.8596
B( 13-C , 24-H ) :   0.7875 B( 13-C , 25-H ) :   1.2589 B( 14-C , 16-C ) :  -0.1003

Dispersion correction           -0.060284846
FINAL SINGLE POINT ENERGY      -908.778253131803

DIPOLE MOMENT
-------------

Method             : TDA/CIS
Type of density    : Electron Density
Level              : Relaxed density
State              :   1
Multiplicity       :   3
Irrep              :   0
Energy             :     0.0000000000000000 Eh
Relativity type    :
Basis              : AO
                                X                 Y                 Z
Electronic contribution:     -5.110167238      -8.723592812      -5.874791411
Nuclear contribution   :      4.353511603      10.154538713       8.266442427
                        -----------------------------------------
Total Dipole Moment    :     -0.756655636       1.430945901       2.391651016
                        -----------------------------------------
Magnitude (a.u.)       :      2.887928064
Magnitude (Debye)      :      7.340529777

Rotational constants in cm-1:             0.022482             0.012568             0.011826
Rotational constants in MHz :           673.994724           376.784499           354.542552

                             ****ORCA TERMINATED NORMALLY****
TOTAL RUN TIME: 0 days 0 hours 5 minutes 11 seconds 432 msec
