                         Program Version 6.0.0  -   RELEASE  -
|  1> ! Engrad def2-TZVPPD wB97M-D3BJ
|  2> %pal nprocs 8 end%pal nprocs 32 end
|  3> %tddft Nroots 2 Iroot 1
|  4> sf true
|  5> end
|  6> *xyz 0 3
|  7> O   -0.0958738 0.81258604 0.00547136
|  8> C   0.7832616 -0.55433774 -0.00686899
|  9> C   -0.73269882 -0.41232101 0.00179669
| 10> H   1.32356388 -0.61643441 0.92915559
| 11> H   1.3322548 -0.61032461 -0.95646864
| 12> H   -1.27872166 -0.61834054 -0.93675323
| 13> H   -1.2918496 -0.62111751 0.92307181
| 14> *
| 15>
| 16>                          ****END OF INPUT****

CARTESIAN COORDINATES (ANGSTROEM)
---------------------------------
  O     -0.095874    0.812586    0.005471
  C      0.783262   -0.554338   -0.006869
  C     -0.732699   -0.412321    0.001797
  H      1.323564   -0.616434    0.929156
  H      1.332255   -0.610325   -0.956469
  H     -1.278722   -0.618341   -0.936753
  H     -1.291850   -0.621118    0.923072

 Total Charge           Charge          ....    0
 Multiplicity           Mult            ....    3
 Number of Electrons    NEL             ....   24
 Basis Dimension        Dim             ....  182

ORBITAL ENERGIES
----------------
                 SPIN UP ORBITALS
  NO   OCC          E(Eh)            E(eV)
   0   1.0000     -19.448638      -529.2243
   1   1.0000     -10.425956      -283.7047
   2   1.0000     -10.359056      -281.8842
   3   1.0000      -1.261523       -34.3278
   4   1.0000      -0.838878       -22.8270
   5   1.0000      -0.769822       -20.9479
   6   1.0000      -0.667332       -18.1590
   7   1.0000      -0.626881       -17.0583
   8   1.0000      -0.557696       -15.1757
   9   1.0000      -0.498075       -13.5533
  10   1.0000      -0.492950       -13.4139
  11   1.0000      -0.449835       -12.2406
  12   1.0000      -0.171387        -4.6637
  13   0.0000       0.037490         1.0202
  14   0.0000       0.061005         1.6600
  15   0.0000       0.071864         1.9555
  16   0.0000       0.083697         2.2775
  17   0.0000       0.109754         2.9866

                 SPIN DOWN ORBITALS
  NO   OCC          E(Eh)            E(eV)
   0   1.0000     -19.416214      -528.3421
   1   1.0000     -10.426253      -283.7128
   2   1.0000     -10.348695      -281.6023
   3   1.0000      -1.194725       -32.5101
   4   1.0000      -0.805624       -21.9221
   5   1.0000      -0.749211       -20.3871
   6   1.0000      -0.613697       -16.6996
   7   1.0000      -0.594388       -16.1741
   8   1.0000      -0.517397       -14.0791
   9   1.0000      -0.483232       -13.1494
  10   1.0000      -0.411896       -11.2083
  11   0.0000      -0.101357        -2.7581
  12   0.0000       0.033642         0.9155
  13   0.0000       0.056919         1.5488
  14   0.0000       0.061266         1.6671
  15   0.0000       0.066788         1.8174

----------------------------------------------------------------------------------------------------
          SPIN FLIP ABSORPTION SPECTRUM VIA TRANSITION ELECTRIC DIPOLE MOMENTS
----------------------------------------------------------------------------------------------------
     Transition      Energy     Energy  Wavelength fosc(D2)      D2        DX        DY        DZ
                      (eV)      (cm-1)    (nm)                 (au**2)    (au)      (au)      (au)
----------------------------------------------------------------------------------------------------
  1-3A  ->  2-3A    5.610571   45252.3   221.0   0.005571946   0.04054   0.01420  -0.01529   0.20025

Dispersion correction             ... done (  0.1 sec)

MULLIKEN ATOMIC CHARGES AND SPIN DENSITIES
------------------------------------------
   0 O :   -0.381455    0.057612
   1 C :   -0.466408    0.023083
   2 C :   -0.122779   -0.084609
   3 H :    0.295283   -0.018300
   4 H :    0.288774   -0.017180
   5 H :    0.191846    0.021380
   6 H :    0.194738    0.018014
Sum of atomic charges       :    0.0000000

LOEWDIN ATOMIC CHARGES AND SPIN DENSITIES
-----------------------------------------
   0 O :   -0.113706    0.019515
   1 C :    0.189383   -0.008024
   2 C :   -0.116974   -0.009264
   3 H :   -0.006531   -0.004417
   4 H :    0.007335   -0.004035
   5 H :    0.022681    0.003493
   6 H :    0.017812    0.002733

  Mayer bond orders larger than 0.100000
B(  0-O ,  1-C ) :   0.8632 B(  0-O ,  2-C ) :   0.7984 B(  1-C ,  2-C ) :   0.7845
B(  1-C ,  3-H ) :   0.9015 B(  1-C ,  4-H ) :   0.9075 B(  2-C ,  5-H ) :   1.0183
B(  2-C ,  6-H ) :   1.0181

Dispersion correction           -0.005152493
FINAL SINGLE POINT ENERGY      -153.854894953341

DIPOLE MOMENT
-------------

Method             : TDA/CIS
Type of density    : Electron Density
Level              : Relaxed density
State              :   1
Multiplicity       :   3
Irrep              :   0
Energy             :     0.0000000000000000 Eh
Relativity type    :
Basis              : AO
                                X                 Y                 Z
Electronic contribution:      0.032952103       1.142795469       0.030490946
Nuclear contribution   :      0.150452829      -2.208003902      -0.037121141
                        -----------------------------------------
Total Dipole Moment    :      0.183404932      -1.065208433      -0.006630195
                        -----------------------------------------
Magnitude (a.u.)       :      1.080902555
Magnitude (Debye)      :      2.747435953

Rotational constants in cm-1:             0.860528             0.645447             0.436304
Rotational constants in MHz :         25797.975144         19350.028082         13080.071565

                             ****ORCA TERMINATED NORMALLY****
TOTAL RUN TIME: 0 days 0 hours 0 minutes 17 seconds 866 msec
