                         Program Version 6.0.0  -   RELEASE  -
|  1> ! Engrad def2-TZVPPD wB97M-D3BJ
|  2> %pal nprocs 8 end%pal nprocs 64 end
|  3> %tddft Nroots 2 Iroot 2
|  4> sf true
|  5> end
|  6> *xyz 0 3
|  7> O   3.6442135 0.36063715 -0.43232695
|  8> O   -1.18733372 1.21701787 -2.62184271
|  9> O   0.47752402 -2.75187323 -0.79754804
| 10> O   -3.0659321 -1.71585459 0.20883507
| 11> N   0.33567562 -1.30599685 0.95160293
| 12> N   -2.0629052 0.11987041 1.10758395
| 13> N   1.7523366 -0.84597754 -0.81992958
| 14> N   -1.74606055 -0.41874181 -1.12920805
| 15> C   1.94839377 0.39628567 1.22987998
| 16> C   -1.00522615 1.69291753 -0.30558251
| 17> C   0.44184053 0.05249609 1.44848149
| 18> C   -0.88206083 0.9692958 1.02800656
| 19> C   2.76635924 1.01354388 2.28755157
| 20> C   -1.0607161 3.15546701 -0.40886582
| 21> C   2.54273987 0.00060659 -0.04138921
| 22> C   -1.30278925 0.86937918 -1.46225075
| 23> C   0.81653783 -1.71357076 -0.25939229
| 24> C   -2.34373726 -0.74729801 0.08107346
| 25> H   0.29364437 -0.00641655 2.52252135
| 26> H   -0.94236603 1.71559748 1.82620676
| 27> H   3.79878668 1.09144705 1.97653327
| 28> H   2.40362238 2.00520759 2.56335836
| 29> H   2.67405524 0.41137817 3.20984008
| 30> H   -2.00073706 3.52826811 0.02217579
| 31> H   -0.26585166 3.63809609 0.1884366
| 32> H   -1.00137022 3.48086439 -1.44628868
| 33> H   -0.33873259 -1.92720014 1.35723808
| 34> H   -2.4800505 -0.09552819 1.99978608
| 35> H   2.15459614 -1.15546722 -1.6796433
| 36> H   -1.92397166 -1.05686854 -1.88421102
| 37> *
| 38>
| 39>                          ****END OF INPUT****

CARTESIAN COORDINATES (ANGSTROEM)
---------------------------------
  O      3.644214    0.360637   -0.432327
  O     -1.187334    1.217018   -2.621843
  O      0.477524   -2.751873   -0.797548
  O     -3.065932   -1.715855    0.208835
  N      0.335676   -1.305997    0.951603
  N     -2.062905    0.119870    1.107584
  N      1.752337   -0.845978   -0.819930
  N     -1.746061   -0.418742   -1.129208
  C      1.948394    0.396286    1.229880
  C     -1.005226    1.692918   -0.305583
  C      0.441841    0.052496    1.448481
  C     -0.882061    0.969296    1.028007
  C      2.766359    1.013544    2.287552
  C     -1.060716    3.155467   -0.408866
  C      2.542740    0.000607   -0.041389
  C     -1.302789    0.869379   -1.462251
  C      0.816538   -1.713571   -0.259392
  C     -2.343737   -0.747298    0.081073
  H      0.293644   -0.006417    2.522521
  H     -0.942366    1.715597    1.826207
  H      3.798787    1.091447    1.976533
  H      2.403622    2.005208    2.563358
  H      2.674055    0.411378    3.209840
  H     -2.000737    3.528268    0.022176
  H     -0.265852    3.638096    0.188437
  H     -1.001370    3.480864   -1.446289
  H     -0.338733   -1.927200    1.357238
  H     -2.480050   -0.095528    1.999786
  H      2.154596   -1.155467   -1.679643
  H     -1.923972   -1.056869   -1.884211

 Total Charge           Charge          ....    0
 Multiplicity           Mult            ....    3
 Number of Electrons    NEL             ....  132
 Basis Dimension        Dim             ....  882

ORBITAL ENERGIES
----------------
                 SPIN UP ORBITALS
  NO   OCC          E(Eh)            E(eV)
   0   1.0000     -19.335911      -526.1569
   1   1.0000     -19.333698      -526.0967
   2   1.0000     -19.319565      -525.7121
   3   1.0000     -19.315804      -525.6098
   4   1.0000     -14.565239      -396.3403
   5   1.0000     -14.558439      -396.1553
   6   1.0000     -14.557417      -396.1275
   7   1.0000     -14.557088      -396.1185
   8   1.0000     -10.504480      -285.8414
   9   1.0000     -10.501008      -285.7469
  10   1.0000     -10.481210      -285.2082
  11   1.0000     -10.478371      -285.1310
  12   1.0000     -10.452026      -284.4141
  13   1.0000     -10.451874      -284.4099
  14   1.0000     -10.425421      -283.6901
  15   1.0000     -10.416208      -283.4394
  16   1.0000     -10.376322      -282.3541
  17   1.0000     -10.374273      -282.2983
  18   1.0000      -1.218526       -33.1578
  19   1.0000      -1.213358       -33.0171
  20   1.0000      -1.194670       -32.5086
  21   1.0000      -1.191963       -32.4350
  22   1.0000      -1.115617       -30.3575
  23   1.0000      -1.097338       -29.8601
  24   1.0000      -1.062848       -28.9216
  25   1.0000      -1.054042       -28.6819
  26   1.0000      -0.967566       -26.3288
  27   1.0000      -0.956491       -26.0274
  28   1.0000      -0.884886       -24.0790
  29   1.0000      -0.840628       -22.8747
  30   1.0000      -0.826430       -22.4883
  31   1.0000      -0.804337       -21.8871
  32   1.0000      -0.781330       -21.2611
  33   1.0000      -0.776588       -21.1320
  34   1.0000      -0.697109       -18.9693
  35   1.0000      -0.692688       -18.8490
  36   1.0000      -0.677054       -18.4236
  37   1.0000      -0.663421       -18.0526
  38   1.0000      -0.655009       -17.8237
  39   1.0000      -0.642635       -17.4870
  40   1.0000      -0.620911       -16.8958
  41   1.0000      -0.603017       -16.4089
  42   1.0000      -0.593586       -16.1523
  43   1.0000      -0.586082       -15.9481
  44   1.0000      -0.571613       -15.5544
  45   1.0000      -0.568272       -15.4635
  46   1.0000      -0.561654       -15.2834
  47   1.0000      -0.558082       -15.1862
  48   1.0000      -0.555928       -15.1276
  49   1.0000      -0.548964       -14.9381
  50   1.0000      -0.546127       -14.8609
  51   1.0000      -0.542281       -14.7562
  52   1.0000      -0.533690       -14.5224
  53   1.0000      -0.519370       -14.1328
  54   1.0000      -0.513974       -13.9860
  55   1.0000      -0.507740       -13.8163
  56   1.0000      -0.493186       -13.4203
  57   1.0000      -0.421128       -11.4595
  58   1.0000      -0.419034       -11.4025
  59   1.0000      -0.416483       -11.3331
  60   1.0000      -0.399639       -10.8747
  61   1.0000      -0.398973       -10.8566
  62   1.0000      -0.390477       -10.6254
  63   1.0000      -0.389002       -10.5853
  64   1.0000      -0.379226       -10.3193
  65   1.0000      -0.339707        -9.2439
  66   1.0000      -0.332157        -9.0384
  67   0.0000       0.003702         0.1007
  68   0.0000       0.026702         0.7266
  69   0.0000       0.031177         0.8484
  70   0.0000       0.038470         1.0468
  71   0.0000       0.054843         1.4924

                 SPIN DOWN ORBITALS
  NO   OCC          E(Eh)            E(eV)
   0   1.0000     -19.331169      -526.0279
   1   1.0000     -19.329329      -525.9778
   2   1.0000     -19.319309      -525.7051
   3   1.0000     -19.315494      -525.6013
   4   1.0000     -14.564376      -396.3168
   5   1.0000     -14.558183      -396.1483
   6   1.0000     -14.557161      -396.1205
   7   1.0000     -14.556365      -396.0988
   8   1.0000     -10.504499      -285.8419
   9   1.0000     -10.501026      -285.7474
  10   1.0000     -10.482295      -285.2377
  11   1.0000     -10.479405      -285.1591
  12   1.0000     -10.452092      -284.4159
  13   1.0000     -10.451955      -284.4122
  14   1.0000     -10.413851      -283.3753
  15   1.0000     -10.404598      -283.1235
  16   1.0000     -10.376914      -282.3702
  17   1.0000     -10.374858      -282.3142
  18   1.0000      -1.216651       -33.1068
  19   1.0000      -1.210876       -32.9496
  20   1.0000      -1.189471       -32.3671
  21   1.0000      -1.186997       -32.2998
  22   1.0000      -1.113098       -30.2889
  23   1.0000      -1.094705       -29.7884
  24   1.0000      -1.061178       -28.8761
  25   1.0000      -1.052425       -28.6379
  26   1.0000      -0.953007       -25.9326
  27   1.0000      -0.939615       -25.5682
  28   1.0000      -0.881097       -23.9759
  29   1.0000      -0.835339       -22.7307
  30   1.0000      -0.817833       -22.2544
  31   1.0000      -0.799159       -21.7462
  32   1.0000      -0.780023       -21.2255
  33   1.0000      -0.775020       -21.0894
  34   1.0000      -0.690437       -18.7877
  35   1.0000      -0.686055       -18.6685
  36   1.0000      -0.672153       -18.2902
  37   1.0000      -0.658065       -17.9069
  38   1.0000      -0.644852       -17.5473
  39   1.0000      -0.638475       -17.3738
  40   1.0000      -0.617971       -16.8159
  41   1.0000      -0.598322       -16.2812
  42   1.0000      -0.584549       -15.9064
  43   1.0000      -0.576707       -15.6930
  44   1.0000      -0.566402       -15.4126
  45   1.0000      -0.560296       -15.2464
  46   1.0000      -0.555829       -15.1249
  47   1.0000      -0.553004       -15.0480
  48   1.0000      -0.545056       -14.8317
  49   1.0000      -0.541329       -14.7303
  50   1.0000      -0.540945       -14.7199
  51   1.0000      -0.534024       -14.5315
  52   1.0000      -0.527740       -14.3605
  53   1.0000      -0.508472       -13.8362
  54   1.0000      -0.505337       -13.7509
  55   1.0000      -0.500921       -13.6307
  56   1.0000      -0.487185       -13.2570
  57   1.0000      -0.416477       -11.3329
  58   1.0000      -0.415719       -11.3123
  59   1.0000      -0.407969       -11.1014
  60   1.0000      -0.388134       -10.5617
  61   1.0000      -0.386918       -10.5286
  62   1.0000      -0.384718       -10.4687
  63   1.0000      -0.384076       -10.4513
  64   1.0000      -0.373427       -10.1615
  65   0.0000      -0.056608        -1.5404
  66   0.0000      -0.050093        -1.3631
  67   0.0000       0.003485         0.0948
  68   0.0000       0.026489         0.7208
  69   0.0000       0.031034         0.8445

----------------------------------------------------------------------------------------------------
          SPIN FLIP ABSORPTION SPECTRUM VIA TRANSITION ELECTRIC DIPOLE MOMENTS
----------------------------------------------------------------------------------------------------
     Transition      Energy     Energy  Wavelength fosc(D2)      D2        DX        DY        DZ
                      (eV)      (cm-1)    (nm)                 (au**2)    (au)      (au)      (au)
----------------------------------------------------------------------------------------------------
  1-3A  ->  2-3A    0.003136      25.3  395367.7   0.000000104   0.00135  -0.03046  -0.02056   0.00037

Dispersion correction             ... done (  0.1 sec)

MULLIKEN ATOMIC CHARGES AND SPIN DENSITIES
------------------------------------------
   0 O :   -0.658717    0.067992
   1 O :   -0.672667   -0.063394
   2 O :   -0.664431    0.004316
   3 O :   -0.649540   -0.003152
   4 N :   -0.261616    0.007938
   5 N :   -0.287809   -0.011107
   6 N :    0.094760    0.000096
   7 N :    0.064862   -0.006537
   8 C :    0.218376    0.379644
   9 C :    0.892803    0.320241
  10 C :    0.248324   -0.071543
  11 C :    0.219733   -0.254246
  12 C :   -1.360955   -0.005466
  13 C :   -1.415186    0.029268
  14 C :    0.342766   -0.058263
  15 C :    0.043270   -0.374156
  16 C :    0.334286   -0.002077
  17 C :    0.388570    0.014217
  18 H :    0.556380    0.001798
  19 H :    0.388173   -0.011975
  20 H :    0.328560    0.001736
  21 H :    0.280827    0.017130
  22 H :    0.313163    0.016822
  23 H :    0.354805   -0.002518
  24 H :    0.326003    0.009405
  25 H :    0.326700   -0.010789
  26 H :    0.076538    0.000342
  27 H :    0.101280    0.001473
  28 H :    0.047976    0.000536
  29 H :    0.022768    0.002266
Sum of atomic charges       :    0.0000000

LOEWDIN ATOMIC CHARGES AND SPIN DENSITIES
-----------------------------------------
   0 O :    0.087182    0.060541
   1 O :    0.090445   -0.059928
   2 O :    0.085161    0.004059
   3 O :    0.087001   -0.003086
   4 N :    0.259329    0.007175
   5 N :    0.263723   -0.008335
   6 N :    0.331381   -0.000272
   7 N :    0.325732   -0.005776
   8 C :    0.006603    0.214928
   9 C :   -0.010638   -0.193768
  10 C :   -0.043751    0.006652
  11 C :   -0.068466   -0.013200
  12 C :    0.177601    0.033766
  13 C :    0.175679   -0.033520
  14 C :   -0.396427    0.029258
  15 C :   -0.411195   -0.038196
  16 C :   -0.486227    0.000130
  17 C :   -0.497325   -0.000688
  18 H :    0.030353   -0.000379
  19 H :    0.043640    0.000235
  20 H :   -0.008532   -0.000529
  21 H :    0.003876    0.009639
  22 H :    0.015844    0.009484
  23 H :    0.017369   -0.011551
  24 H :    0.012830   -0.005791
  25 H :    0.000744   -0.000277
  26 H :   -0.033117    0.000822
  27 H :   -0.025114   -0.000912
  28 H :   -0.022728    0.000010
  29 H :   -0.010976   -0.000490

  Mayer bond orders larger than 0.100000
B(  0-O , 14-C ) :   1.4206 B(  1-O , 15-C ) :   1.4182 B(  2-O , 16-C ) :   1.4947
B(  3-O , 17-C ) :   1.5479 B(  4-N ,  8-C ) :   0.2375 B(  4-N , 10-C ) :   0.1903
B(  4-N , 16-C ) :   1.0455 B(  4-N , 26-H ) :   1.0806 B(  5-N ,  9-C ) :   0.2384
B(  5-N , 10-C ) :   0.1874 B(  5-N , 11-C ) :   0.1469 B(  5-N , 17-C ) :   1.0982
B(  5-N , 27-H ) :   1.0199 B(  6-N , 14-C ) :   1.0470 B(  6-N , 16-C ) :   1.0098
B(  6-N , 28-H ) :   1.0538 B(  7-N , 11-C ) :   0.1088 B(  7-N , 15-C ) :   0.9065
B(  7-N , 17-C ) :   1.0245 B(  7-N , 29-H ) :   1.0942 B(  8-C , 12-C ) :   0.4375
B(  8-C , 14-C ) :   0.9156 B(  8-C , 16-C ) :   0.1222 B(  8-C , 18-H ) :  -0.1091
B(  8-C , 20-H ) :  -0.1089 B(  9-C , 10-C ) :   0.1560 B(  9-C , 11-C ) :   0.1925
B(  9-C , 13-C ) :   0.3739 B(  9-C , 15-C ) :   0.6970 B( 10-C , 11-C ) :   0.6464
B( 10-C , 14-C ) :  -0.1204 B( 10-C , 16-C ) :  -0.1601 B( 10-C , 18-H ) :   0.7319
B( 10-C , 19-H ) :  -0.1389 B( 11-C , 17-C ) :  -0.1379 B( 11-C , 19-H ) :   1.0149
B( 12-C , 20-H ) :   0.9801 B( 12-C , 21-H ) :   0.9300 B( 12-C , 22-H ) :   0.9268
B( 13-C , 23-H ) :   0.8881 B( 13-C , 24-H ) :   0.9141 B( 13-C , 25-H ) :   0.9686

Dispersion correction           -0.056326127
FINAL SINGLE POINT ENERGY      -908.784620274349

DIPOLE MOMENT
-------------

Method             : TDA/CIS
Type of density    : Electron Density
Level              : Relaxed density
State              :   2
Multiplicity       :   3
Irrep              :   0
Energy             :     0.0000000000000000 Eh
Relativity type    :
Basis              : AO
                                X                 Y                 Z
Electronic contribution:     -2.353831910      -9.039537210      -7.322843611
Nuclear contribution   :      2.246933135      10.877223936      10.069326567
                        -----------------------------------------
Total Dipole Moment    :     -0.106898775       1.837686727       2.746482956
                        -----------------------------------------
Magnitude (a.u.)       :      3.306310403
Magnitude (Debye)      :      8.403973169

Rotational constants in cm-1:             0.019633             0.012908             0.011427
Rotational constants in MHz :           588.594786           386.963247           342.565272

                             ****ORCA TERMINATED NORMALLY****
TOTAL RUN TIME: 0 days 0 hours 4 minutes 20 seconds 900 msec
