                         Program Version 6.0.0  -   RELEASE  -
|  1> ! Engrad wB97M-D3BJ def2-TZVPPD
|  2> %pal nprocs 8 end%pal nprocs 16 end
|  3> %tddft nroots 2 Iroot 2
|  4>  sf true
|  5> end
|  6> *xyz 0 3
|  7> O   1.25384958051786 1.09380335603985 -0.09841657136497
|  8> C   0.92176425875409 0.00123015689938 0.27936527960018
|  9> C   -0.31919888863592 -0.68195634111119 -0.21671482781771
| 10> H   1.53000999167799 -0.54998292679385 1.02012721497148
| 11> H   -0.05483411460215 -1.63608645923187 -0.67476693810093
| 12> H   -0.83186892668512 -0.0498654130222 -0.93446129124662
| 13> H   -0.9757238621346 -0.90719162899993 0.62486713395857
| 14> *
| 15>
| 16>                          ****END OF INPUT****

CARTESIAN COORDINATES (ANGSTROEM)
---------------------------------
  O      1.253850    1.093803   -0.098417
  C      0.921764    0.001230    0.279365
  C     -0.319199   -0.681956   -0.216715
  H      1.530010   -0.549983    1.020127
  H     -0.054834   -1.636086   -0.674767
  H     -0.831869   -0.049865   -0.934461
  H     -0.975724   -0.907192    0.624867

 Total Charge           Charge          ....    0
 Multiplicity           Mult            ....    3
 Number of Electrons    NEL             ....   24
 Basis Dimension        Dim             ....  182

ORBITAL ENERGIES
----------------
                 SPIN UP ORBITALS
  NO   OCC          E(Eh)            E(eV)
   0   1.0000     -19.410157      -528.1772
   1   1.0000     -10.379473      -282.4398
   2   1.0000     -10.366588      -282.0892
   3   1.0000      -1.246585       -33.9213
   4   1.0000      -0.881051       -23.9746
   5   1.0000      -0.718741       -19.5579
   6   1.0000      -0.636114       -17.3095
   7   1.0000      -0.586169       -15.9505
   8   1.0000      -0.582177       -15.8418
   9   1.0000      -0.514642       -14.0041
  10   1.0000      -0.512920       -13.9573
  11   1.0000      -0.434849       -11.8329
  12   1.0000      -0.221319        -6.0224
  13   0.0000       0.041430         1.1274
  14   0.0000       0.060334         1.6418
  15   0.0000       0.078763         2.1432
  16   0.0000       0.088067         2.3964
  17   0.0000       0.108054         2.9403

                 SPIN DOWN ORBITALS
  NO   OCC          E(Eh)            E(eV)
   0   1.0000     -19.382399      -527.4219
   1   1.0000     -10.369181      -282.1598
   2   1.0000     -10.364373      -282.0289
   3   1.0000      -1.188553       -32.3422
   4   1.0000      -0.861727       -23.4488
   5   1.0000      -0.674398       -18.3513
   6   1.0000      -0.585994       -15.9457
   7   1.0000      -0.540625       -14.7111
   8   1.0000      -0.534938       -14.5564
   9   1.0000      -0.499986       -13.6053
  10   1.0000      -0.470998       -12.8165
  11   0.0000      -0.082725        -2.2511
  12   0.0000       0.041658         1.1336
  13   0.0000       0.059997         1.6326
  14   0.0000       0.078754         2.1430
  15   0.0000       0.083708         2.2778

----------------------------------------------------------------------------------------------------
          SPIN FLIP ABSORPTION SPECTRUM VIA TRANSITION ELECTRIC DIPOLE MOMENTS
----------------------------------------------------------------------------------------------------
     Transition      Energy     Energy  Wavelength fosc(D2)      D2        DX        DY        DZ
                      (eV)      (cm-1)    (nm)                 (au**2)    (au)      (au)      (au)
----------------------------------------------------------------------------------------------------
  1-3A  ->  2-3A    4.548204   36683.7   272.6   0.000056279   0.00051   0.01177  -0.00936  -0.01670

Dispersion correction             ... done (  0.0 sec)

MULLIKEN ATOMIC CHARGES AND SPIN DENSITIES
------------------------------------------
   0 O :   -0.252698    0.599924
   1 C :    0.211764   -0.626856
   2 C :   -0.705073    0.119979
   3 H :    0.106788   -0.002026
   4 H :    0.196611   -0.044585
   5 H :    0.245335   -0.003119
   6 H :    0.197274   -0.043319
Sum of atomic charges       :    0.0000000

LOEWDIN ATOMIC CHARGES AND SPIN DENSITIES
-----------------------------------------
   0 O :    0.159501    0.410064
   1 C :   -0.254243   -0.357535
   2 C :    0.137633   -0.008501
   3 H :    0.004108   -0.011991
   4 H :   -0.018109   -0.018053
   5 H :   -0.010786    0.004043
   6 H :   -0.018106   -0.018027

  Mayer bond orders larger than 0.100000
B(  0-O ,  1-C ) :   1.2695 B(  1-C ,  2-C ) :   0.6506 B(  1-C ,  3-H ) :   1.0148
B(  2-C ,  4-H ) :   1.0066 B(  2-C ,  5-H ) :   0.9388 B(  2-C ,  6-H ) :   1.0052

Dispersion correction           -0.005540643
FINAL SINGLE POINT ENERGY      -153.757183907343

DIPOLE MOMENT
-------------

Method             : TDA/CIS
Type of density    : Electron Density
Level              : Relaxed density
State              :   2
Multiplicity       :   3
Irrep              :   0
Energy             :     0.0000000000000000 Eh
Relativity type    :
Basis              : AO
                                X                 Y                 Z
Electronic contribution:      2.276962396       2.962248007      -0.049121335
Nuclear contribution   :     -2.599220626      -3.459042099       0.099321310
                        -----------------------------------------
Total Dipole Moment    :     -0.322258230      -0.496794092       0.050199975
                        -----------------------------------------
Magnitude (a.u.)       :      0.594285095
Magnitude (Debye)      :      1.510552665

Rotational constants in cm-1:             1.860936             0.346059             0.308302
Rotational constants in MHz :         55789.462426         10374.592299          9242.668349

                             ****ORCA TERMINATED NORMALLY****
TOTAL RUN TIME: 0 days 0 hours 0 minutes 16 seconds 230 msec
