                         Program Version 6.0.0  -   RELEASE  -
|  1> ! Engrad def2-TZVPPD wB97M-D3BJ
|  2> %pal nprocs 8 end%pal nprocs 32 end
|  3> %tddft Nroots 2 Iroot 1
|  4> sf true
|  5> end
|  6> *xyz 0 3
|  7> O   0.57805865 1.19318274 0.22862811
|  8> C   0.57931584 -0.25139546 0.00741572
|  9> C   -0.79704413 -0.77481486 0.08157733
| 10> H   1.26833582 -0.81712455 0.68253067
| 11> H   1.03003908 -0.54663576 -0.94460319
| 12> H   -1.12054799 -1.54764823 -0.60484737
| 13> H   -1.46483744 -0.35102776 0.79244775
| 14> *
| 15>
| 16>                          ****END OF INPUT****

CARTESIAN COORDINATES (ANGSTROEM)
---------------------------------
  O      0.578059    1.193183    0.228628
  C      0.579316   -0.251395    0.007416
  C     -0.797044   -0.774815    0.081577
  H      1.268336   -0.817125    0.682531
  H      1.030039   -0.546636   -0.944603
  H     -1.120548   -1.547648   -0.604847
  H     -1.464837   -0.351028    0.792448

 Total Charge           Charge          ....    0
 Multiplicity           Mult            ....    3
 Number of Electrons    NEL             ....   24
 Basis Dimension        Dim             ....  182

ORBITAL ENERGIES
----------------
                 SPIN UP ORBITALS
  NO   OCC          E(Eh)            E(eV)
   0   1.0000     -19.397681      -527.8377
   1   1.0000     -10.416862      -283.4572
   2   1.0000     -10.364535      -282.0333
   3   1.0000      -1.140980       -31.0476
   4   1.0000      -0.884362       -24.0647
   5   1.0000      -0.739036       -20.1102
   6   1.0000      -0.598363       -16.2823
   7   1.0000      -0.586146       -15.9498
   8   1.0000      -0.541362       -14.7312
   9   1.0000      -0.514286       -13.9944
  10   1.0000      -0.454247       -12.3607
  11   1.0000      -0.423179       -11.5153
  12   1.0000      -0.319697        -8.6994
  13   0.0000       0.040480         1.1015
  14   0.0000       0.060783         1.6540
  15   0.0000       0.080439         2.1889
  16   0.0000       0.085214         2.3188
  17   0.0000       0.110820         3.0156

                 SPIN DOWN ORBITALS
  NO   OCC          E(Eh)            E(eV)
   0   1.0000     -19.373113      -527.1692
   1   1.0000     -10.418426      -283.4998
   2   1.0000     -10.351399      -281.6759
   3   1.0000      -1.081846       -29.4385
   4   1.0000      -0.853518       -23.2254
   5   1.0000      -0.713742       -19.4219
   6   1.0000      -0.579083       -15.7577
   7   1.0000      -0.539030       -14.6677
   8   1.0000      -0.521037       -14.1781
   9   1.0000      -0.488399       -13.2900
  10   1.0000      -0.391479       -10.6527
  11   0.0000      -0.056517        -1.5379
  12   0.0000       0.001816         0.0494
  13   0.0000       0.039403         1.0722
  14   0.0000       0.060730         1.6525
  15   0.0000       0.080705         2.1961

----------------------------------------------------------------------------------------------------
          SPIN FLIP ABSORPTION SPECTRUM VIA TRANSITION ELECTRIC DIPOLE MOMENTS
----------------------------------------------------------------------------------------------------
     Transition      Energy     Energy  Wavelength fosc(D2)      D2        DX        DY        DZ
                      (eV)      (cm-1)    (nm)                 (au**2)    (au)      (au)      (au)
----------------------------------------------------------------------------------------------------
  1-3A  ->  2-3A    0.180233    1453.7  6879.1   0.000038301   0.00867   0.01875   0.06669   0.06225

Dispersion correction             ... done (  0.1 sec)

MULLIKEN ATOMIC CHARGES AND SPIN DENSITIES
------------------------------------------
   0 O :   -0.428584   -0.551656
   1 C :   -0.018341   -0.029891
   2 C :   -0.503887    0.510332
   3 H :    0.232325    0.055731
   4 H :    0.205609   -0.065053
   5 H :    0.231544    0.036599
   6 H :    0.281333    0.043938
Sum of atomic charges       :   -0.0000000

LOEWDIN ATOMIC CHARGES AND SPIN DENSITIES
-----------------------------------------
   0 O :   -0.080882   -0.552179
   1 C :   -0.235926    0.011668
   2 C :    0.343571    0.461243
   3 H :    0.035280    0.020120
   4 H :    0.012695   -0.051940
   5 H :   -0.027910    0.054810
   6 H :   -0.046828    0.056278

  Mayer bond orders larger than 0.100000
B(  0-O ,  1-C ) :   0.9448 B(  0-O ,  2-C ) :   0.4118 B(  1-C ,  2-C ) :   0.8440
B(  1-C ,  3-H ) :   0.9603 B(  1-C ,  4-H ) :   0.9795 B(  2-C ,  5-H ) :   0.9599
B(  2-C ,  6-H ) :   0.9254

Dispersion correction           -0.005503221
FINAL SINGLE POINT ENERGY      -153.752037158368

DIPOLE MOMENT
-------------

Method             : TDA/CIS
Type of density    : Electron Density
Level              : Relaxed density
State              :   1
Multiplicity       :   3
Irrep              :   0
Energy             :     0.0000000000000000 Eh
Relativity type    :
Basis              : AO
                                X                 Y                 Z
Electronic contribution:      0.417122838       1.921461036       0.286219047
Nuclear contribution   :     -0.803261269      -3.340315692      -0.464304457
                        -----------------------------------------
Total Dipole Moment    :     -0.386138431      -1.418854656      -0.178085410
                        -----------------------------------------
Magnitude (a.u.)       :      1.481204185
Magnitude (Debye)      :      3.764921834

Rotational constants in cm-1:             1.316530             0.349694             0.295851
Rotational constants in MHz :         39468.567224         10483.574191          8869.380231

                             ****ORCA TERMINATED NORMALLY****
TOTAL RUN TIME: 0 days 0 hours 0 minutes 17 seconds 822 msec
