                         Program Version 6.0.0  -   RELEASE  -
|  1> ! opt def2-TZVPPD wB97M-D3BJ
|  2> %pal nprocs 8 end%pal nprocs 64 end
|  3>  %geom Constraints
|  4>  {B 9 8 2.6 C}
|  5>  {A 8 9 11 70.57142857142857 C}
|  6>  end
|  7>  end
|  8> *xyz 0 1
|  9> O   2.98579685529314 0.88758230159078 -0.86184571092411
| 10> O   -0.03983205397054 0.68929041702508 -2.10362336723772
| 11> O   0.93431434349854 -3.13274393337945 -0.68767288184107
| 12> O   -3.75829998830163 -0.84727300865116 -0.0472717177755
| 13> N   0.21184538946282 -1.54604804365365 0.7617588924445
| 14> N   -2.13631993928911 0.03188773433438 1.27350571071531
| 15> N   2.02598672506387 -1.14318467211666 -0.64531219127023
| 16> N   -1.91814233924584 0.03137116037665 -1.04498946748291
| 17> C   1.18097737274226 0.71693507080484 0.70173889017321
| 18> C   -0.20686880480777 1.27024627933494 0.21345042231937
| 19> C   0.41441080275909 -0.34173258966541 1.52336266615173
| 20> C   -0.82922175114212 0.58960593673968 1.44434972027296
| 21> C   1.92822011286806 1.69488653817281 1.5963734975385
| 22> C   -0.37809776891576 2.77134929626422 0.04819649358288
| 23> C   2.1403947470937 0.1972384729179 -0.35038567829864
| 24> C   -0.67361678962426 0.6214190571346 -1.0793014500539
| 25> C   1.04142578622994 -2.02697492875068 -0.21027082435993
| 26> C   -2.68467002550422 -0.30396816036989 0.07167054343891
| 27> H   0.80817443950001 -0.54572267081061 2.51895215321335
| 28> H   -0.83785272399001 1.27240685039143 2.28901317073582
| 29> H   2.31167340578204 2.52284411740894 1.00913016264629
| 30> H   1.28982602448342 2.08257620823614 2.38710022492991
| 31> H   2.77390820759972 1.19140411795486 2.06045858523949
| 32> H   -1.41857211141493 3.00964947214868 -0.16882755561625
| 33> H   -0.09065531563179 3.29799318042223 0.95389844358819
| 34> H   0.23426221611057 3.12492645074476 -0.77764887675592
| 35> H   -0.46772570547622 -2.21560145172536 1.0787081584806
| 36> H   -2.71769301149571 -0.17090724573546 2.06627440900372
| 37> H   2.60065167263658 -1.49057255715425 -1.3966820077142
| 38> H   -2.27169977231386 -0.32388339999036 -1.91951041514436
| 39> *
| 40>
| 41>                          ****END OF INPUT****
 Total Charge           Charge          ....    0
 Multiplicity           Mult            ....    1
 Number of Electrons    NEL             ....  132
Dispersion correction           -0.054581616
FINAL SINGLE POINT ENERGY      -908.762462700839
Dispersion correction             ... done (  0.1 sec)
Dispersion correction           -0.055693418
FINAL SINGLE POINT ENERGY      -908.784550803582
Dispersion correction             ... done (  0.1 sec)
Dispersion correction           -0.056737611
FINAL SINGLE POINT ENERGY      -908.798408128477
Dispersion correction             ... done (  0.1 sec)
FINAL SINGLE POINT ENERGY      -908.807551279615
FINAL SINGLE POINT ENERGY      -908.810585243992
FINAL SINGLE POINT ENERGY      -908.813062921103
FINAL SINGLE POINT ENERGY      -908.814429723590
FINAL SINGLE POINT ENERGY      -908.815514432956
FINAL SINGLE POINT ENERGY      -908.816834956463
FINAL SINGLE POINT ENERGY      -908.818075675195
FINAL SINGLE POINT ENERGY      -908.819234395592
FINAL SINGLE POINT ENERGY      -908.819293432841
FINAL SINGLE POINT ENERGY      -908.819333556610
FINAL SINGLE POINT ENERGY      -908.819368577463
FINAL SINGLE POINT ENERGY      -908.819387455133
FINAL SINGLE POINT ENERGY      -908.819397298459
FINAL SINGLE POINT ENERGY      -908.819401240754
Dispersion correction             ... done (  0.1 sec)
Dispersion correction           -0.059988013
FINAL SINGLE POINT ENERGY      -908.819403147294
Dispersion correction             ... done (  0.0 sec)
Dispersion correction           -0.059991419
FINAL SINGLE POINT ENERGY      -908.819404117911
Dispersion correction             ... done (  0.1 sec)
                    ***********************HURRAY********************

CARTESIAN COORDINATES (ANGSTROEM)
---------------------------------
  O      3.112922    0.538743   -0.860309
  O     -0.439851    1.347986   -2.307845
  O      0.421810   -3.067788   -0.545190
  O     -3.149366   -1.589864   -0.255973
  N      0.287796   -1.517943    1.104797
  N     -2.128703   -0.030632    1.051902
  N      1.592189   -1.139352   -0.788293
  N     -1.503678   -0.306652   -1.171483
  C      1.591964    0.539313    0.939380
  C     -0.624084    1.566235    0.047998
  C      0.372796   -0.155466    1.577404
  C     -0.918736    0.714532    1.281462
  C      2.309665    1.583880    1.695823
  C     -0.599930    3.040911    0.111181
  C      2.177824    0.012782   -0.291167
  C     -0.818495    0.902734   -1.246214
  C      0.729666   -1.984410   -0.104965
  C     -2.324912   -0.719175   -0.120820
  H      0.518926   -0.202109    2.659714
  H     -1.082884    1.374431    2.130589
  H      3.012850    2.102733    1.052412
  H      1.621285    2.299686    2.147934
  H      2.868054    1.125011    2.519530
  H     -1.598799    3.421330    0.353609
  H      0.071141    3.392987    0.896311
  H     -0.295894    3.455171   -0.845203
  H     -0.368369   -2.140935    1.542601
  H     -2.692076   -0.354988    1.817977
  H      1.971437   -1.506635   -1.645485
  H     -1.661950   -0.787517   -2.043080

 Multiplicity           Mult            ....    1
 Number of Electrons    NEL             ....  132
 Basis Dimension        Dim             ....  882

ORBITAL ENERGIES
----------------

  NO   OCC          E(Eh)            E(eV)
   0   2.0000     -19.331854      -526.0465
   1   2.0000     -19.325008      -525.8602
   2   2.0000     -19.324274      -525.8402
   3   2.0000     -19.314779      -525.5819
   4   2.0000     -14.563395      -396.2901
   5   2.0000     -14.562525      -396.2664
   6   2.0000     -14.556410      -396.1001
   7   2.0000     -14.555538      -396.0763
   8   2.0000     -10.507224      -285.9161
   9   2.0000     -10.500675      -285.7379
  10   2.0000     -10.483832      -285.2796
  11   2.0000     -10.479777      -285.1692
  12   2.0000     -10.440289      -284.0947
  13   2.0000     -10.439378      -284.0699
  14   2.0000     -10.430929      -283.8400
  15   2.0000     -10.430421      -283.8262
  16   2.0000     -10.375645      -282.3356
  17   2.0000     -10.375329      -282.3270
  18   2.0000      -1.222441       -33.2643
  19   2.0000      -1.213731       -33.0273
  20   2.0000      -1.197132       -32.5756
  21   2.0000      -1.190388       -32.3921
  22   2.0000      -1.117146       -30.3991
  23   2.0000      -1.094215       -29.7751
  24   2.0000      -1.064884       -28.9770
  25   2.0000      -1.053815       -28.6758
  26   2.0000      -0.976340       -26.5676
  27   2.0000      -0.942820       -25.6554
  28   2.0000      -0.886932       -24.1346
  29   2.0000      -0.833968       -22.6934
  30   2.0000      -0.825969       -22.4758
  31   2.0000      -0.798775       -21.7358
  32   2.0000      -0.785653       -21.3787
  33   2.0000      -0.777130       -21.1468
  34   2.0000      -0.697481       -18.9794
  35   2.0000      -0.691928       -18.8283
  36   2.0000      -0.685845       -18.6628
  37   2.0000      -0.659523       -17.9465
  38   2.0000      -0.649217       -17.6661
  39   2.0000      -0.643033       -17.4978
  40   2.0000      -0.615894       -16.7593
  41   2.0000      -0.600229       -16.3331
  42   2.0000      -0.584854       -15.9147
  43   2.0000      -0.578312       -15.7367
  44   2.0000      -0.576579       -15.6895
  45   2.0000      -0.571510       -15.5516
  46   2.0000      -0.564847       -15.3703
  47   2.0000      -0.558783       -15.2052
  48   2.0000      -0.555618       -15.1191
  49   2.0000      -0.547826       -14.9071
  50   2.0000      -0.544020       -14.8035
  51   2.0000      -0.538673       -14.6580
  52   2.0000      -0.529203       -14.4003
  53   2.0000      -0.520205       -14.1555
  54   2.0000      -0.508090       -13.8258
  55   2.0000      -0.505030       -13.7426
  56   2.0000      -0.485243       -13.2041
  57   2.0000      -0.419871       -11.4253
  58   2.0000      -0.413607       -11.2548
  59   2.0000      -0.405067       -11.0224
  60   2.0000      -0.398902       -10.8547
  61   2.0000      -0.390800       -10.6342
  62   2.0000      -0.389899       -10.6097
  63   2.0000      -0.384402       -10.4601
  64   2.0000      -0.376811       -10.2535
  65   2.0000      -0.307727        -8.3737
  66   0.0000      -0.081706        -2.2233
  67   0.0000       0.006208         0.1689
  68   0.0000       0.028646         0.7795
  69   0.0000       0.030423         0.8278
  70   0.0000       0.038797         1.0557

MULLIKEN ATOMIC CHARGES
-----------------------
   0 O :   -0.683241
   1 O :   -0.661764
   2 O :   -0.658393
   3 O :   -0.634569
   4 N :   -0.281778
   5 N :   -0.303626
   6 N :    0.062215
   7 N :    0.055607
   8 C :    0.432527
   9 C :    0.559168
  10 C :   -0.119439
  11 C :    0.606121
  12 C :   -1.411422
  13 C :   -1.434326
  14 C :    0.457214
  15 C :    0.008585
  16 C :    0.440237
  17 C :    0.340229
  18 H :    0.632596
  19 H :    0.472814
  20 H :    0.305543
  21 H :    0.323014
  22 H :    0.368598
  23 H :    0.356151
  24 H :    0.237829
  25 H :    0.344889
  26 H :    0.052504
  27 H :    0.081442
  28 H :    0.015354
  29 H :    0.035918
Sum of atomic charges:   -0.0000000

LOEWDIN ATOMIC CHARGES
----------------------
   0 O :    0.098378
   1 O :    0.107785
   2 O :    0.092779
   3 O :    0.102656
   4 N :    0.277552
   5 N :    0.278235
   6 N :    0.327180
   7 N :    0.330777
   8 C :   -0.001752
   9 C :   -0.012158
  10 C :   -0.101256
  11 C :   -0.113199
  12 C :    0.182165
  13 C :    0.190819
  14 C :   -0.411471
  15 C :   -0.409354
  16 C :   -0.495331
  17 C :   -0.483835
  18 H :    0.042847
  19 H :    0.049185
  20 H :    0.001046
  21 H :   -0.009051
  22 H :    0.016667
  23 H :    0.016903
  24 H :   -0.010612
  25 H :    0.003488
  26 H :   -0.027968
  27 H :   -0.029456
  28 H :   -0.007851
  29 H :   -0.005166

  Mayer bond orders larger than 0.100000
B(  0-O , 14-C ) :   1.3043 B(  1-O , 15-C ) :   1.4513 B(  2-O , 16-C ) :   1.5247
B(  3-O , 17-C ) :   1.5523 B(  4-N ,  8-C ) :   0.2790 B(  4-N , 10-C ) :   0.3752
B(  4-N , 16-C ) :   1.0498 B(  4-N , 26-H ) :   1.1016 B(  5-N ,  9-C ) :   0.3103
B(  5-N , 17-C ) :   1.1712 B(  5-N , 27-H ) :   1.0509 B(  6-N , 14-C ) :   1.0625
B(  6-N , 16-C ) :   0.9435 B(  6-N , 28-H ) :   1.1137 B(  7-N , 11-C ) :   0.1340
B(  7-N , 15-C ) :   0.9904 B(  7-N , 17-C ) :   0.9558 B(  7-N , 29-H ) :   1.0850
B(  8-C ,  9-C ) :   0.6785 B(  8-C , 10-C ) :   0.1641 B(  8-C , 11-C ) :  -0.1011
B(  8-C , 12-C ) :   0.4957 B(  8-C , 14-C ) :   0.7493 B(  8-C , 15-C ) :   0.1900
B(  8-C , 16-C ) :   0.1125 B(  8-C , 18-H ) :  -0.1180 B(  8-C , 20-H ) :  -0.1350
B(  9-C , 10-C ) :   0.2149 B(  9-C , 11-C ) :   0.1434 B(  9-C , 13-C ) :   0.4364
B(  9-C , 14-C ) :   0.1770 B(  9-C , 15-C ) :   0.6260 B(  9-C , 25-H ) :  -0.1015
B( 10-C , 11-C ) :   0.7030 B( 10-C , 12-C ) :  -0.1043 B( 10-C , 16-C ) :  -0.1378
B( 10-C , 18-H ) :   0.6232 B( 11-C , 13-C ) :  -0.1809 B( 11-C , 15-C ) :  -0.1734
B( 11-C , 17-C ) :  -0.2165 B( 11-C , 19-H ) :   0.8998 B( 12-C , 20-H ) :   1.0684
B( 12-C , 21-H ) :   0.9121 B( 12-C , 22-H ) :   0.8151 B( 13-C , 23-H ) :   0.8521
B( 13-C , 24-H ) :   1.0282 B( 13-C , 25-H ) :   0.9610 B( 15-C , 17-C ) :  -0.1156

Dispersion correction           -0.059991585
FINAL SINGLE POINT ENERGY      -908.819404455468

DIPOLE MOMENT
-------------

Method             : SCF
Type of density    : Electron Density
Multiplicity       :   1
Irrep              :   0
Energy             :  -908.7594128701060754 Eh
Relativity type    :
Basis              : AO
                                X                 Y                 Z
Electronic contribution:     -2.503060724     -10.199080802      -7.312556323
Nuclear contribution   :      2.219043107      11.724963645      10.025436527
                        -----------------------------------------
Total Dipole Moment    :     -0.284017617       1.525882843       2.712880204
                        -----------------------------------------
Magnitude (a.u.)       :      3.125492514
Magnitude (Debye)      :      7.944370622

Rotational constants in cm-1:             0.019444             0.015618             0.012752
Rotational constants in MHz :           582.920161           468.215895           382.286379

                             ****ORCA TERMINATED NORMALLY****
TOTAL RUN TIME: 0 days 0 hours 37 minutes 52 seconds 120 msec
