                         Program Version 6.0.0  -   RELEASE  -
|  1> ! Engrad def2-TZVPPD wB97M-D3BJ
|  2> %pal nprocs 8 end%pal nprocs 64 end
|  3> %tddft
|  4>  Iroot 2 Nroots 3
|  5> sf true
|  6> end
|  7> *xyz 0 3
|  8> O   3.55641914 -0.56365858 -0.13564749
|  9> O   -0.56807278 0.55550782 -2.7710296
| 10> O   -0.33035754 -2.7354595 -0.6360382
| 11> O   -3.66031829 -0.50332808 0.37059822
| 12> N   -0.2034553 -1.24762111 1.08407597
| 13> N   -1.97346762 0.8435265 0.94996196
| 14> N   1.51898461 -1.47162914 -0.39309632
| 15> N   -2.17970525 0.10859598 -1.27102336
| 16> C   1.81753096 0.15471719 1.30368397
| 17> C   -0.26003049 1.43021755 -0.59218404
| 18> C   0.30351502 0.02833102 1.52343092
| 19> C   -0.58859154 1.25210447 0.79804698
| 20> C   2.64595812 1.19621429 2.03841685
| 21> C   0.88352447 2.22014631 -1.0121664
| 22> C   2.41323645 -0.62581378 0.24063776
| 23> C   -0.93012325 0.68637474 -1.6103302
| 24> C   0.26882911 -1.88917135 -0.00845838
| 25> C   -2.7055051 0.09045212 -0.00677428
| 26> H   0.04128457 0.18952994 2.59290903
| 27> H   -0.37249422 2.1844367 1.31494141
| 28> H   3.74531985 1.14539492 1.93381273
| 29> H   2.24202529 2.20650952 1.85465165
| 30> H   2.42880024 1.21913839 3.09150203
| 31> H   1.62004788 1.51455625 -1.42143941
| 32> H   0.67816736 2.88379365 -1.85731824
| 33> H   1.35516361 2.76325893 -0.23702379
| 34> H   -1.20472446 -1.49170585 1.48154573
| 35> H   -2.38423683 0.80852941 1.9031598
| 36> H   1.84532685 -1.78286989 -1.29884786
| 37> H   -2.5983483 -0.53547287 -1.99398095
| 38> *
| 39>
| 40>                          ****END OF INPUT****

CARTESIAN COORDINATES (ANGSTROEM)
---------------------------------
  O      3.556419   -0.563659   -0.135647
  O     -0.568073    0.555508   -2.771030
  O     -0.330358   -2.735460   -0.636038
  O     -3.660318   -0.503328    0.370598
  N     -0.203455   -1.247621    1.084076
  N     -1.973468    0.843526    0.949962
  N      1.518985   -1.471629   -0.393096
  N     -2.179705    0.108596   -1.271023
  C      1.817531    0.154717    1.303684
  C     -0.260030    1.430218   -0.592184
  C      0.303515    0.028331    1.523431
  C     -0.588592    1.252104    0.798047
  C      2.645958    1.196214    2.038417
  C      0.883524    2.220146   -1.012166
  C      2.413236   -0.625814    0.240638
  C     -0.930123    0.686375   -1.610330
  C      0.268829   -1.889171   -0.008458
  C     -2.705505    0.090452   -0.006774
  H      0.041285    0.189530    2.592909
  H     -0.372494    2.184437    1.314941
  H      3.745320    1.145395    1.933813
  H      2.242025    2.206510    1.854652
  H      2.428800    1.219138    3.091502
  H      1.620048    1.514556   -1.421439
  H      0.678167    2.883794   -1.857318
  H      1.355164    2.763259   -0.237024
  H     -1.204724   -1.491706    1.481546
  H     -2.384237    0.808529    1.903160
  H      1.845327   -1.782870   -1.298848
  H     -2.598348   -0.535473   -1.993981

 Total Charge           Charge          ....    0
 Multiplicity           Mult            ....    3
 Number of Electrons    NEL             ....  132
 Basis Dimension        Dim             ....  882

ORBITAL ENERGIES
----------------
                 SPIN UP ORBITALS
  NO   OCC          E(Eh)            E(eV)
   0   1.0000     -19.335575      -526.1477
   1   1.0000     -19.333958      -526.1037
   2   1.0000     -19.321973      -525.7776
   3   1.0000     -19.313334      -525.5425
   4   1.0000     -14.567264      -396.3954
   5   1.0000     -14.564238      -396.3131
   6   1.0000     -14.557077      -396.1182
   7   1.0000     -14.555287      -396.0695
   8   1.0000     -10.503963      -285.8274
   9   1.0000     -10.501160      -285.7511
  10   1.0000     -10.479998      -285.1752
  11   1.0000     -10.479640      -285.1655
  12   1.0000     -10.455160      -284.4994
  13   1.0000     -10.443309      -284.1769
  14   1.0000     -10.427884      -283.7571
  15   1.0000     -10.413195      -283.3575
  16   1.0000     -10.383883      -282.5598
  17   1.0000     -10.368081      -282.1298
  18   1.0000      -1.225465       -33.3466
  19   1.0000      -1.221059       -33.2267
  20   1.0000      -1.199532       -32.6409
  21   1.0000      -1.198255       -32.6062
  22   1.0000      -1.114843       -30.3364
  23   1.0000      -1.094923       -29.7944
  24   1.0000      -1.061491       -28.8846
  25   1.0000      -1.045835       -28.4586
  26   1.0000      -0.981012       -26.6947
  27   1.0000      -0.955791       -26.0084
  28   1.0000      -0.880405       -23.9570
  29   1.0000      -0.847013       -23.0484
  30   1.0000      -0.830284       -22.5932
  31   1.0000      -0.804552       -21.8930
  32   1.0000      -0.782181       -21.2842
  33   1.0000      -0.774706       -21.0808
  34   1.0000      -0.696422       -18.9506
  35   1.0000      -0.691844       -18.8260
  36   1.0000      -0.681888       -18.5551
  37   1.0000      -0.671628       -18.2759
  38   1.0000      -0.656069       -17.8526
  39   1.0000      -0.637125       -17.3371
  40   1.0000      -0.617960       -16.8156
  41   1.0000      -0.598723       -16.2921
  42   1.0000      -0.591025       -16.0826
  43   1.0000      -0.584258       -15.8985
  44   1.0000      -0.572594       -15.5811
  45   1.0000      -0.568378       -15.4664
  46   1.0000      -0.567631       -15.4460
  47   1.0000      -0.561978       -15.2922
  48   1.0000      -0.560258       -15.2454
  49   1.0000      -0.553196       -15.0532
  50   1.0000      -0.550681       -14.9848
  51   1.0000      -0.540835       -14.7169
  52   1.0000      -0.533065       -14.5054
  53   1.0000      -0.527849       -14.3635
  54   1.0000      -0.514560       -14.0019
  55   1.0000      -0.508014       -13.8238
  56   1.0000      -0.500648       -13.6233
  57   1.0000      -0.423792       -11.5320
  58   1.0000      -0.418296       -11.3824
  59   1.0000      -0.408783       -11.1236
  60   1.0000      -0.404361       -11.0032
  61   1.0000      -0.398408       -10.8412
  62   1.0000      -0.393845       -10.7171
  63   1.0000      -0.390160       -10.6168
  64   1.0000      -0.381826       -10.3900
  65   1.0000      -0.350647        -9.5416
  66   1.0000      -0.317116        -8.6292
  67   0.0000       0.006535         0.1778
  68   0.0000       0.027429         0.7464
  69   0.0000       0.033643         0.9155
  70   0.0000       0.037595         1.0230
  71   0.0000       0.055438         1.5085

                 SPIN DOWN ORBITALS
  NO   OCC          E(Eh)            E(eV)
   0   1.0000     -19.331288      -526.0311
   1   1.0000     -19.329611      -525.9855
   2   1.0000     -19.321871      -525.7748
   3   1.0000     -19.313128      -525.5369
   4   1.0000     -14.567178      -396.3931
   5   1.0000     -14.563647      -396.2970
   6   1.0000     -14.556357      -396.0986
   7   1.0000     -14.554870      -396.0582
   8   1.0000     -10.504019      -285.8289
   9   1.0000     -10.501221      -285.7528
  10   1.0000     -10.480820      -285.1976
  11   1.0000     -10.480663      -285.1933
  12   1.0000     -10.454253      -284.4747
  13   1.0000     -10.442955      -284.1672
  14   1.0000     -10.416545      -283.4486
  15   1.0000     -10.402579      -283.0686
  16   1.0000     -10.384478      -282.5760
  17   1.0000     -10.368540      -282.1423
  18   1.0000      -1.224408       -33.3178
  19   1.0000      -1.218070       -33.1454
  20   1.0000      -1.195816       -32.5398
  21   1.0000      -1.192488       -32.4493
  22   1.0000      -1.112147       -30.2631
  23   1.0000      -1.092333       -29.7239
  24   1.0000      -1.059474       -28.8298
  25   1.0000      -1.044096       -28.4113
  26   1.0000      -0.967203       -26.3189
  27   1.0000      -0.939054       -25.5530
  28   1.0000      -0.875915       -23.8349
  29   1.0000      -0.841688       -22.9035
  30   1.0000      -0.820820       -22.3357
  31   1.0000      -0.799027       -21.7426
  32   1.0000      -0.780104       -21.2277
  33   1.0000      -0.773069       -21.0363
  34   1.0000      -0.692073       -18.8323
  35   1.0000      -0.686994       -18.6941
  36   1.0000      -0.675843       -18.3906
  37   1.0000      -0.665826       -18.1181
  38   1.0000      -0.644961       -17.5503
  39   1.0000      -0.630339       -17.1524
  40   1.0000      -0.613871       -16.7043
  41   1.0000      -0.594305       -16.1719
  42   1.0000      -0.585852       -15.9418
  43   1.0000      -0.576923       -15.6989
  44   1.0000      -0.565989       -15.4013
  45   1.0000      -0.563418       -15.3314
  46   1.0000      -0.559304       -15.2194
  47   1.0000      -0.554913       -15.1000
  48   1.0000      -0.549993       -14.9661
  49   1.0000      -0.547984       -14.9114
  50   1.0000      -0.537638       -14.6299
  51   1.0000      -0.534974       -14.5574
  52   1.0000      -0.527516       -14.3544
  53   1.0000      -0.519055       -14.1242
  54   1.0000      -0.505305       -13.7500
  55   1.0000      -0.502305       -13.6684
  56   1.0000      -0.492168       -13.3926
  57   1.0000      -0.419572       -11.4171
  58   1.0000      -0.414178       -11.2704
  59   1.0000      -0.397094       -10.8055
  60   1.0000      -0.394859       -10.7446
  61   1.0000      -0.389448       -10.5974
  62   1.0000      -0.387007       -10.5310
  63   1.0000      -0.384694       -10.4681
  64   1.0000      -0.370064       -10.0700
  65   0.0000      -0.072188        -1.9643
  66   0.0000      -0.049360        -1.3431
  67   0.0000       0.005943         0.1617
  68   0.0000       0.027163         0.7392
  69   0.0000       0.033283         0.9057

----------------------------------------------------------------------------------------------------
          SPIN FLIP ABSORPTION SPECTRUM VIA TRANSITION ELECTRIC DIPOLE MOMENTS
----------------------------------------------------------------------------------------------------
     Transition      Energy     Energy  Wavelength fosc(D2)      D2        DX        DY        DZ
                      (eV)      (cm-1)    (nm)                 (au**2)    (au)      (au)      (au)
----------------------------------------------------------------------------------------------------
  1-3A  ->  2-3A    0.187485    1512.2  6613.0   0.000102208   0.02225  -0.13323   0.04653  -0.04833
  1-3A  ->  3-3A    2.335065   18833.6   531.0   0.029842715   0.52165  -0.66303   0.13620  -0.25199

Dispersion correction             ... done (  0.1 sec)

MULLIKEN ATOMIC CHARGES AND SPIN DENSITIES
------------------------------------------
   0 O :   -0.657943   -0.046072
   1 O :   -0.684677    0.054430
   2 O :   -0.663040   -0.000860
   3 O :   -0.610040   -0.000004
   4 N :   -0.212428   -0.004390
   5 N :   -0.364331    0.000395
   6 N :    0.037315   -0.009210
   7 N :   -0.029581    0.007195
   8 C :    0.627168    0.346243
   9 C :    0.414883    0.311947
  10 C :   -0.130113   -0.237154
  11 C :    0.407273   -0.071461
  12 C :   -1.124609   -0.028225
  13 C :   -1.511593   -0.024456
  14 C :    0.038024   -0.307389
  15 C :    0.261904   -0.062955
  16 C :    0.467818    0.022299
  17 C :    0.395255    0.004818
  18 H :    0.501602   -0.017616
  19 H :    0.530348    0.010385
  20 H :    0.286915   -0.004785
  21 H :    0.262418    0.010243
  22 H :    0.301165    0.003306
  23 H :    0.306915    0.026127
  24 H :    0.384346    0.009282
  25 H :    0.303965    0.002200
  26 H :    0.208060    0.000896
  27 H :    0.131857    0.000510
  28 H :    0.014490    0.003313
  29 H :    0.106635    0.000989
Sum of atomic charges       :   -0.0000000

LOEWDIN ATOMIC CHARGES AND SPIN DENSITIES
-----------------------------------------
   0 O :    0.097858   -0.041673
   1 O :    0.092758    0.046392
   2 O :    0.088631   -0.000817
   3 O :    0.103560   -0.000130
   4 N :    0.230877    0.000048
   5 N :    0.236248   -0.002110
   6 N :    0.323374   -0.009636
   7 N :    0.312539    0.006448
   8 C :    0.013840   -0.155577
   9 C :   -0.059400    0.155217
  10 C :   -0.075720   -0.000135
  11 C :   -0.104844    0.007622
  12 C :    0.199035   -0.022179
  13 C :    0.197569    0.022867
  14 C :   -0.452547   -0.034436
  15 C :   -0.394552    0.025930
  16 C :   -0.520473    0.000063
  17 C :   -0.519230   -0.000171
  18 H :    0.058901   -0.001593
  19 H :    0.048577    0.001946
  20 H :    0.017915    0.000179
  21 H :   -0.006328   -0.007081
  22 H :   -0.022610   -0.004382
  23 H :    0.022610    0.008630
  24 H :    0.025983    0.005617
  25 H :   -0.027842   -0.000370
  26 H :    0.072535   -0.000187
  27 H :   -0.004639   -0.000292
  28 H :    0.000681   -0.000722
  29 H :    0.044693    0.000533

  Mayer bond orders larger than 0.100000
B(  0-O , 14-C ) :   1.4661 B(  1-O , 15-C ) :   1.2931 B(  2-O , 16-C ) :   1.5209
B(  3-O , 17-C ) :   1.5935 B(  4-N ,  8-C ) :   0.1724 B(  4-N , 10-C ) :   0.5986
B(  4-N , 16-C ) :   1.0155 B(  4-N , 26-H ) :   0.9291 B(  5-N ,  9-C ) :   0.2633
B(  5-N , 10-C ) :   0.1221 B(  5-N , 11-C ) :   0.2128 B(  5-N , 17-C ) :   1.0741
B(  5-N , 27-H ) :   1.0230 B(  6-N ,  8-C ) :  -0.1671 B(  6-N , 10-C ) :   0.1346
B(  6-N , 14-C ) :   1.0524 B(  6-N , 16-C ) :   0.8807 B(  6-N , 28-H ) :   1.1369
B(  7-N ,  9-C ) :  -0.1149 B(  7-N , 15-C ) :   1.0215 B(  7-N , 17-C ) :   0.9586
B(  7-N , 29-H ) :   1.0393 B(  8-C ,  9-C ) :   0.1418 B(  8-C , 10-C ) :   0.7441
B(  8-C , 11-C ) :   0.1631 B(  8-C , 12-C ) :   0.5935 B(  8-C , 14-C ) :   0.5070
B(  8-C , 16-C ) :   0.1164 B(  9-C , 10-C ) :   0.1509 B(  9-C , 11-C ) :   0.4219
B(  9-C , 13-C ) :   0.2733 B(  9-C , 15-C ) :   0.8002 B(  9-C , 19-H ) :  -0.1990
B(  9-C , 25-H ) :  -0.1364 B( 10-C , 11-C ) :   0.5054 B( 10-C , 16-C ) :  -0.1176
B( 10-C , 18-H ) :   0.7313 B( 11-C , 13-C ) :  -0.1767 B( 11-C , 17-C ) :  -0.1299
B( 11-C , 19-H ) :   0.8884 B( 12-C , 20-H ) :   0.9721 B( 12-C , 21-H ) :   0.8819
B( 12-C , 22-H ) :   0.9858 B( 13-C , 23-H ) :   0.9023 B( 13-C , 24-H ) :   0.9015
B( 13-C , 25-H ) :   1.0638

Dispersion correction           -0.059525841
FINAL SINGLE POINT ENERGY      -908.779265979191

DIPOLE MOMENT
-------------

Method             : TDA/CIS
Type of density    : Electron Density
Level              : Relaxed density
State              :   2
Multiplicity       :   3
Irrep              :   0
Energy             :     0.0000000000000000 Eh
Relativity type    :
Basis              : AO
                                X                 Y                 Z
Electronic contribution:     -6.651564790      -8.774660955      -4.968236167
Nuclear contribution   :      7.003255458      10.852303328       7.134650344
                        -----------------------------------------
Total Dipole Moment    :      0.351690667       2.077642372       2.166414177
                        -----------------------------------------
Magnitude (a.u.)       :      3.022190354
Magnitude (Debye)      :      7.681797398

Rotational constants in cm-1:             0.022092             0.012809             0.012346
Rotational constants in MHz :           662.302016           383.995816           370.125866

                             ****ORCA TERMINATED NORMALLY****
TOTAL RUN TIME: 0 days 0 hours 5 minutes 14 seconds 797 msec
