                         Program Version 6.0.0  -   RELEASE  -
|  1> ! Engrad def2-TZVPPD wB97M-D3BJ
|  2> %pal nprocs 8 end%pal nprocs 32 end
|  3>  %tddft nroots 2 Iroot 1
|  4> sf true
|  5> end
|  6> *xyz 0 3
|  7> O   2.63504030879277 1.16401285181698 -0.61079645475358
|  8> O   -0.54266381972704 0.84103244428574 -2.18361723010082
|  9> O   0.52858263642829 -2.74870892442891 -1.52713752098925
| 10> O   -2.45301461467952 -1.67436197732644 1.08109971786744
| 11> N   0.7183636461184 -2.10298933457403 0.64687051091044
| 12> N   -2.23654255933807 0.56914194779094 1.40787898361594
| 13> N   1.71890831350287 -0.86851127548239 -1.02326645704417
| 14> N   -1.5790048525929 -0.37713379507613 -0.58153993711228
| 15> C   1.67278370881156 0.00575279722324 1.21955195588447
| 16> C   -1.04661893261339 1.93546393322294 -0.13730622301744
| 17> C   1.0201072182284 -1.11461868903181 1.55423032634576
| 18> C   -1.69918892485765 1.77903547215762 1.01883860036411
| 19> C   1.99167476938808 1.10475709551474 2.18049680162902
| 20> C   -0.38742018573502 3.20535470883989 -0.56916680840503
| 21> C   2.06676969869875 0.18420947105316 -0.17832257364265
| 22> C   -1.01614509744935 0.80546306445594 -1.06997748743715
| 23> C   0.9603112935856 -1.9719687275395 -0.70313958790851
| 24> C   -2.11740316721622 -0.58401857158324 0.66668607963771
| 25> H   0.68407334927321 -1.30514254061011 2.56243422981614
| 26> H   -1.80532320195339 2.5808195720552 1.73367295473239
| 27> H   1.51634568117722 2.03265283326612 1.86509532486127
| 28> H   1.64838755893329 0.85521878267857 3.1820170079152
| 29> H   3.06272173243816 1.29417933639058 2.21213868554601
| 30> H   -0.8074999375544 3.55696946539437 -1.50922084712223
| 31> H   -0.50695409205595 3.97982939954773 0.18507320081391
| 32> H   0.67490555753446 3.03404387674086 -0.73730591558103
| 33> H   0.0659564975228 -2.82826435695042 0.89254326674028
| 34> H   -2.64654457060371 0.45513225495338 2.31685526857514
| 35> H   1.84487404429471 -0.70289783720259 -2.01037249667501
| 36> H   -1.51288205835202 -1.18945327758246 -1.17971337546609
| 37> *
| 38>
| 39>                          ****END OF INPUT****

CARTESIAN COORDINATES (ANGSTROEM)
---------------------------------
  O      2.635040    1.164013   -0.610796
  O     -0.542664    0.841032   -2.183617
  O      0.528583   -2.748709   -1.527138
  O     -2.453015   -1.674362    1.081100
  N      0.718364   -2.102989    0.646871
  N     -2.236543    0.569142    1.407879
  N      1.718908   -0.868511   -1.023266
  N     -1.579005   -0.377134   -0.581540
  C      1.672784    0.005753    1.219552
  C     -1.046619    1.935464   -0.137306
  C      1.020107   -1.114619    1.554230
  C     -1.699189    1.779035    1.018839
  C      1.991675    1.104757    2.180497
  C     -0.387420    3.205355   -0.569167
  C      2.066770    0.184209   -0.178323
  C     -1.016145    0.805463   -1.069977
  C      0.960311   -1.971969   -0.703140
  C     -2.117403   -0.584019    0.666686
  H      0.684073   -1.305143    2.562434
  H     -1.805323    2.580820    1.733673
  H      1.516346    2.032653    1.865095
  H      1.648388    0.855219    3.182017
  H      3.062722    1.294179    2.212139
  H     -0.807500    3.556969   -1.509221
  H     -0.506954    3.979829    0.185073
  H      0.674906    3.034044   -0.737306
  H      0.065956   -2.828264    0.892543
  H     -2.646545    0.455132    2.316855
  H      1.844874   -0.702898   -2.010372
  H     -1.512882   -1.189453   -1.179713

 Total Charge           Charge          ....    0
 Multiplicity           Mult            ....    3
 Number of Electrons    NEL             ....  132
 Basis Dimension        Dim             ....  882

ORBITAL ENERGIES
----------------
                 SPIN UP ORBITALS
  NO   OCC          E(Eh)            E(eV)
   0   1.0000     -19.331301      -526.0314
   1   1.0000     -19.327806      -525.9364
   2   1.0000     -19.322669      -525.7966
   3   1.0000     -19.316770      -525.6360
   4   1.0000     -14.591744      -397.0615
   5   1.0000     -14.583533      -396.8381
   6   1.0000     -14.570106      -396.4728
   7   1.0000     -14.547019      -395.8445
   8   1.0000     -10.514330      -286.1095
   9   1.0000     -10.508261      -285.9443
  10   1.0000     -10.478421      -285.1323
  11   1.0000     -10.454248      -284.4746
  12   1.0000     -10.432341      -283.8784
  13   1.0000     -10.406544      -283.1765
  14   1.0000     -10.395803      -282.8842
  15   1.0000     -10.380712      -282.4735
  16   1.0000     -10.369659      -282.1728
  17   1.0000     -10.351181      -281.6699
  18   1.0000      -1.227757       -33.4090
  19   1.0000      -1.223427       -33.2911
  20   1.0000      -1.193508       -32.4770
  21   1.0000      -1.187297       -32.3080
  22   1.0000      -1.123548       -30.5733
  23   1.0000      -1.122485       -30.5444
  24   1.0000      -1.069896       -29.1134
  25   1.0000      -1.058544       -28.8045
  26   1.0000      -0.973638       -26.4940
  27   1.0000      -0.956398       -26.0249
  28   1.0000      -0.856240       -23.2995
  29   1.0000      -0.846629       -23.0380
  30   1.0000      -0.810042       -22.0424
  31   1.0000      -0.807633       -21.9768
  32   1.0000      -0.794042       -21.6070
  33   1.0000      -0.786754       -21.4087
  34   1.0000      -0.699167       -19.0253
  35   1.0000      -0.695226       -18.9181
  36   1.0000      -0.691501       -18.8167
  37   1.0000      -0.689145       -18.7526
  38   1.0000      -0.644733       -17.5441
  39   1.0000      -0.636540       -17.3211
  40   1.0000      -0.626903       -17.0589
  41   1.0000      -0.602230       -16.3875
  42   1.0000      -0.597268       -16.2525
  43   1.0000      -0.592138       -16.1129
  44   1.0000      -0.570984       -15.5373
  45   1.0000      -0.567729       -15.4487
  46   1.0000      -0.567493       -15.4423
  47   1.0000      -0.552771       -15.0417
  48   1.0000      -0.549528       -14.9534
  49   1.0000      -0.547577       -14.9003
  50   1.0000      -0.529450       -14.4071
  51   1.0000      -0.523883       -14.2556
  52   1.0000      -0.515698       -14.0329
  53   1.0000      -0.515268       -14.0211
  54   1.0000      -0.508234       -13.8298
  55   1.0000      -0.498870       -13.5749
  56   1.0000      -0.493108       -13.4181
  57   1.0000      -0.477635       -12.9971
  58   1.0000      -0.420665       -11.4469
  59   1.0000      -0.418401       -11.3853
  60   1.0000      -0.405373       -11.0308
  61   1.0000      -0.401078       -10.9139
  62   1.0000      -0.388678       -10.5765
  63   1.0000      -0.384914       -10.4740
  64   1.0000      -0.383933       -10.4474
  65   1.0000      -0.347481        -9.4554
  66   1.0000      -0.207523        -5.6470
  67   0.0000       0.012164         0.3310
  68   0.0000       0.020596         0.5604
  69   0.0000       0.033400         0.9089
  70   0.0000       0.038604         1.0505
  71   0.0000       0.043754         1.1906

                 SPIN DOWN ORBITALS
  NO   OCC          E(Eh)            E(eV)
   0   1.0000     -19.329394      -525.9795
   1   1.0000     -19.327781      -525.9357
   2   1.0000     -19.322710      -525.7977
   3   1.0000     -19.310383      -525.4622
   4   1.0000     -14.586401      -396.9162
   5   1.0000     -14.583370      -396.8337
   6   1.0000     -14.570105      -396.4727
   7   1.0000     -14.546096      -395.8194
   8   1.0000     -10.514338      -286.1097
   9   1.0000     -10.508649      -285.9549
  10   1.0000     -10.478407      -285.1319
  11   1.0000     -10.453888      -284.4647
  12   1.0000     -10.432210      -283.8749
  13   1.0000     -10.397103      -282.9196
  14   1.0000     -10.385657      -282.6081
  15   1.0000     -10.380747      -282.4745
  16   1.0000     -10.370126      -282.1855
  17   1.0000     -10.351163      -281.6695
  18   1.0000      -1.226929       -33.3864
  19   1.0000      -1.219801       -33.1925
  20   1.0000      -1.193458       -32.4757
  21   1.0000      -1.177844       -32.0508
  22   1.0000      -1.122309       -30.5396
  23   1.0000      -1.112427       -30.2707
  24   1.0000      -1.069808       -29.1110
  25   1.0000      -1.052937       -28.6519
  26   1.0000      -0.956604       -26.0305
  27   1.0000      -0.949411       -25.8348
  28   1.0000      -0.846516       -23.0349
  29   1.0000      -0.845059       -22.9952
  30   1.0000      -0.809830       -22.0366
  31   1.0000      -0.796758       -21.6809
  32   1.0000      -0.793599       -21.5949
  33   1.0000      -0.779926       -21.2229
  34   1.0000      -0.695059       -18.9135
  35   1.0000      -0.691508       -18.8169
  36   1.0000      -0.687347       -18.7037
  37   1.0000      -0.680925       -18.5289
  38   1.0000      -0.643158       -17.5012
  39   1.0000      -0.628327       -17.0976
  40   1.0000      -0.620810       -16.8931
  41   1.0000      -0.597358       -16.2549
  42   1.0000      -0.590552       -16.0697
  43   1.0000      -0.583869       -15.8879
  44   1.0000      -0.567611       -15.4455
  45   1.0000      -0.561913       -15.2904
  46   1.0000      -0.554921       -15.1002
  47   1.0000      -0.550203       -14.9718
  48   1.0000      -0.542420       -14.7600
  49   1.0000      -0.541251       -14.7282
  50   1.0000      -0.520889       -14.1741
  51   1.0000      -0.516661       -14.0591
  52   1.0000      -0.514961       -14.0128
  53   1.0000      -0.504256       -13.7215
  54   1.0000      -0.501008       -13.6331
  55   1.0000      -0.496469       -13.5096
  56   1.0000      -0.477761       -13.0005
  57   1.0000      -0.445433       -12.1209
  58   1.0000      -0.419730       -11.4214
  59   1.0000      -0.413745       -11.2586
  60   1.0000      -0.403628       -10.9833
  61   1.0000      -0.387256       -10.5378
  62   1.0000      -0.377875       -10.2825
  63   1.0000      -0.375142       -10.2081
  64   1.0000      -0.346786        -9.4365
  65   0.0000      -0.105736        -2.8772
  66   0.0000       0.011176         0.3041
  67   0.0000       0.021024         0.5721
  68   0.0000       0.030974         0.8429
  69   0.0000       0.037273         1.0142

----------------------------------------------------------------------------------------------------
          SPIN FLIP ABSORPTION SPECTRUM VIA TRANSITION ELECTRIC DIPOLE MOMENTS
----------------------------------------------------------------------------------------------------
     Transition      Energy     Energy  Wavelength fosc(D2)      D2        DX        DY        DZ
                      (eV)      (cm-1)    (nm)                 (au**2)    (au)      (au)      (au)
----------------------------------------------------------------------------------------------------
  1-3A  ->  2-3A    4.262067   34375.9   290.9   0.001803903   0.01728  -0.05896  -0.08757   0.07830

Dispersion correction             ... done (  0.1 sec)

MULLIKEN ATOMIC CHARGES AND SPIN DENSITIES
------------------------------------------
   0 O :   -0.682083    0.037675
   1 O :   -0.653783    0.000475
   2 O :   -0.637740    0.007416
   3 O :   -0.666369    0.001247
   4 N :   -0.015449    0.056228
   5 N :   -0.021897    0.002018
   6 N :    0.027428    0.003122
   7 N :    0.029270   -0.003816
   8 C :    1.091038    0.566771
   9 C :    0.507014   -0.009169
  10 C :   -0.174174   -0.451706
  11 C :    0.059877    0.006371
  12 C :   -1.389602   -0.035766
  13 C :   -1.404816   -0.000614
  14 C :    0.212322   -0.267189
  15 C :    0.625006    0.010831
  16 C :    0.351818    0.015312
  17 C :    0.433389   -0.002265
  18 H :    0.162231    0.035819
  19 H :    0.130360   -0.001249
  20 H :    0.234129    0.017809
  21 H :    0.347121    0.012720
  22 H :    0.332898    0.000508
  23 H :    0.349835   -0.000018
  24 H :    0.333918    0.001156
  25 H :    0.218671   -0.003479
  26 H :    0.075701    0.001190
  27 H :    0.021253   -0.001623
  28 H :    0.046040    0.003277
  29 H :    0.056591   -0.003053
Sum of atomic charges       :    0.0000000

LOEWDIN ATOMIC CHARGES AND SPIN DENSITIES
-----------------------------------------
   0 O :    0.082493    0.030190
   1 O :    0.102425    0.000032
   2 O :    0.086857    0.006042
   3 O :    0.071412    0.000168
   4 N :    0.287667    0.023927
   5 N :    0.279283    0.000049
   6 N :    0.339249    0.000100
   7 N :    0.343194   -0.000268
   8 C :   -0.134542   -0.034456
   9 C :   -0.134643   -0.000329
  10 C :    0.057198   -0.032100
  11 C :    0.057795   -0.000324
  12 C :    0.174607   -0.003870
  13 C :    0.181856    0.000045
  14 C :   -0.413226    0.010182
  15 C :   -0.390394    0.000166
  16 C :   -0.485943    0.000716
  17 C :   -0.484771   -0.000405
  18 H :    0.038898   -0.002072
  19 H :    0.035702    0.000076
  20 H :   -0.010032   -0.000341
  21 H :   -0.007556    0.000296
  22 H :    0.001378   -0.000341
  23 H :    0.000837   -0.000016
  24 H :   -0.006534    0.000015
  25 H :   -0.010289    0.000091
  26 H :   -0.019482    0.002213
  27 H :   -0.022518    0.000031
  28 H :   -0.004722    0.000198
  29 H :   -0.016199   -0.000014

  Mayer bond orders larger than 0.100000
B(  0-O , 14-C ) :   1.4567 B(  1-O , 15-C ) :   1.4323 B(  2-O , 16-C ) :   1.5819
B(  3-O , 17-C ) :   1.5392 B(  4-N , 10-C ) :   0.9020 B(  4-N , 16-C ) :   0.9727
B(  4-N , 26-H ) :   1.1052 B(  5-N , 11-C ) :   0.9661 B(  5-N , 17-C ) :   1.0477
B(  5-N , 27-H ) :   1.1349 B(  6-N , 14-C ) :   0.9425 B(  6-N , 16-C ) :   0.9312
B(  6-N , 28-H ) :   1.0955 B(  7-N , 15-C ) :   0.9844 B(  7-N , 17-C ) :   0.9538
B(  7-N , 29-H ) :   1.1055 B(  8-C , 10-C ) :   1.1251 B(  8-C , 12-C ) :   0.3339
B(  8-C , 14-C ) :   0.6702 B(  9-C , 11-C ) :   1.2484 B(  9-C , 13-C ) :   0.3917
B(  9-C , 15-C ) :   0.8616 B(  9-C , 25-H ) :  -0.1148 B( 10-C , 16-C ) :  -0.1073
B( 10-C , 18-H ) :   1.1202 B( 11-C , 13-C ) :  -0.1730 B( 11-C , 19-H ) :   1.0884
B( 12-C , 20-H ) :   1.0062 B( 12-C , 21-H ) :   0.9661 B( 12-C , 22-H ) :   0.9442
B( 13-C , 23-H ) :   0.9180 B( 13-C , 24-H ) :   0.9934 B( 13-C , 25-H ) :   1.0278

Dispersion correction           -0.057407756
FINAL SINGLE POINT ENERGY      -908.927905439906

DIPOLE MOMENT
-------------

Method             : TDA/CIS
Type of density    : Electron Density
Level              : Relaxed density
State              :   1
Multiplicity       :   3
Irrep              :   0
Energy             :     0.0000000000000000 Eh
Relativity type    :
Basis              : AO
                                X                 Y                 Z
Electronic contribution:     -2.699215047     -10.235096818      -5.822237433
Nuclear contribution   :      1.942235135      11.052629868       8.345811565
                        -----------------------------------------
Total Dipole Moment    :     -0.756979912       0.817533050       2.523574133
                        -----------------------------------------
Magnitude (a.u.)       :      2.758587551
Magnitude (Debye)      :      7.011772320

Rotational constants in cm-1:             0.017188             0.015573             0.012800
Rotational constants in MHz :           515.279038           466.868117           383.740790

                             ****ORCA TERMINATED NORMALLY****
TOTAL RUN TIME: 0 days 0 hours 32 minutes 24 seconds 475 msec
