                         Program Version 6.0.0  -   RELEASE  -
|  1> ! Engrad def2-TZVPPD wB97M-D3BJ
|  2> %pal nprocs 8 end%pal nprocs 64 end
|  3> %tddft
|  4>  Iroot 2 Nroots 3
|  5> sf true
|  6> end
|  7> *xyz 0 3
|  8> O   3.21895146 -0.70551585 -1.88996143
|  9> O   -2.23538509 1.76819853 -1.21877548
| 10> O   -1.06650157 -2.3033561 -2.11069983
| 11> O   -2.55417265 1.00088759 3.28406941
| 12> N   -0.33811517 -1.43342793 -0.11827725
| 13> N   -0.59039864 0.68754769 2.18323386
| 14> N   1.0956905 -1.56616026 -2.01098877
| 15> N   -2.42381105 1.15087047 0.97587501
| 16> C   2.02663485 -0.97148379 0.11460987
| 17> C   -0.21823247 1.30770755 -0.13296054
| 18> C   0.68531965 -0.87795663 0.69447312
| 19> C   0.30387362 0.59641608 1.01220368
| 20> C   3.22529276 -0.64619975 0.98160093
| 21> C   0.58338486 1.59142766 -1.38739765
| 22> C   2.16522148 -1.04193914 -1.32122923
| 23> C   -1.66710415 1.4615942 -0.18152832
| 24> C   -0.12289901 -1.87917659 -1.4402673
| 25> C   -1.91794261 0.93292173 2.23533492
| 26> H   0.57863797 -1.32606874 1.67236598
| 27> H   1.29364196 1.05208782 1.31394284
| 28> H   3.29858151 0.44042566 1.21638235
| 29> H   3.15155776 -1.12240771 2.01787124
| 30> H   4.18180819 -0.98671387 0.59127366
| 31> H   0.42526874 0.72623608 -2.08741234
| 32> H   0.02626651 2.41893164 -1.83627448
| 33> H   1.6082437 1.75042964 -1.19284931
| 34> H   -1.19626581 -1.51724946 0.37007895
| 35> H   -0.16658059 0.78425647 3.09276724
| 36> H   1.17379768 -1.65179997 -2.99511113
| 37> H   -3.29186983 1.64250661 0.87690858
| 38> *
| 39>
| 40>                          ****END OF INPUT****

CARTESIAN COORDINATES (ANGSTROEM)
---------------------------------
  O      3.218951   -0.705516   -1.889961
  O     -2.235385    1.768199   -1.218775
  O     -1.066502   -2.303356   -2.110700
  O     -2.554173    1.000888    3.284069
  N     -0.338115   -1.433428   -0.118277
  N     -0.590399    0.687548    2.183234
  N      1.095690   -1.566160   -2.010989
  N     -2.423811    1.150870    0.975875
  C      2.026635   -0.971484    0.114610
  C     -0.218232    1.307708   -0.132961
  C      0.685320   -0.877957    0.694473
  C      0.303874    0.596416    1.012204
  C      3.225293   -0.646200    0.981601
  C      0.583385    1.591428   -1.387398
  C      2.165221   -1.041939   -1.321229
  C     -1.667104    1.461594   -0.181528
  C     -0.122899   -1.879177   -1.440267
  C     -1.917943    0.932922    2.235335
  H      0.578638   -1.326069    1.672366
  H      1.293642    1.052088    1.313943
  H      3.298582    0.440426    1.216382
  H      3.151558   -1.122408    2.017871
  H      4.181808   -0.986714    0.591274
  H      0.425269    0.726236   -2.087412
  H      0.026267    2.418932   -1.836274
  H      1.608244    1.750430   -1.192849
  H     -1.196266   -1.517249    0.370079
  H     -0.166581    0.784256    3.092767
  H      1.173798   -1.651800   -2.995111
  H     -3.291870    1.642507    0.876909

 Total Charge           Charge          ....    0
 Multiplicity           Mult            ....    3
 Number of Electrons    NEL             ....  132
 Basis Dimension        Dim             ....  882

ORBITAL ENERGIES
----------------
                 SPIN UP ORBITALS
  NO   OCC          E(Eh)            E(eV)
   0   1.0000     -19.343197      -526.3551
   1   1.0000     -19.340460      -526.2807
   2   1.0000     -19.323088      -525.8080
   3   1.0000     -19.321623      -525.7681
   4   1.0000     -14.580273      -396.7494
   5   1.0000     -14.564174      -396.3113
   6   1.0000     -14.563958      -396.3055
   7   1.0000     -14.561684      -396.2436
   8   1.0000     -10.520075      -286.2658
   9   1.0000     -10.508509      -285.9511
  10   1.0000     -10.493502      -285.5427
  11   1.0000     -10.484509      -285.2980
  12   1.0000     -10.447176      -284.2821
  13   1.0000     -10.438082      -284.0347
  14   1.0000     -10.430211      -283.8205
  15   1.0000     -10.419174      -283.5201
  16   1.0000     -10.392712      -282.8001
  17   1.0000     -10.374503      -282.3046
  18   1.0000      -1.220073       -33.1999
  19   1.0000      -1.217615       -33.1330
  20   1.0000      -1.196321       -32.5536
  21   1.0000      -1.190385       -32.3920
  22   1.0000      -1.122521       -30.5453
  23   1.0000      -1.103613       -30.0308
  24   1.0000      -1.081536       -29.4301
  25   1.0000      -1.059016       -28.8173
  26   1.0000      -0.985501       -26.8168
  27   1.0000      -0.962488       -26.1906
  28   1.0000      -0.891407       -24.2564
  29   1.0000      -0.850489       -23.1430
  30   1.0000      -0.833018       -22.6676
  31   1.0000      -0.808753       -22.0073
  32   1.0000      -0.796424       -21.6718
  33   1.0000      -0.788383       -21.4530
  34   1.0000      -0.712185       -19.3795
  35   1.0000      -0.702410       -19.1135
  36   1.0000      -0.696208       -18.9448
  37   1.0000      -0.687975       -18.7208
  38   1.0000      -0.651822       -17.7370
  39   1.0000      -0.647828       -17.6283
  40   1.0000      -0.627334       -17.0706
  41   1.0000      -0.610894       -16.6233
  42   1.0000      -0.604424       -16.4472
  43   1.0000      -0.592963       -16.1353
  44   1.0000      -0.577496       -15.7145
  45   1.0000      -0.574213       -15.6251
  46   1.0000      -0.564861       -15.3707
  47   1.0000      -0.563816       -15.3422
  48   1.0000      -0.560111       -15.2414
  49   1.0000      -0.555573       -15.1179
  50   1.0000      -0.551058       -14.9950
  51   1.0000      -0.535492       -14.5715
  52   1.0000      -0.526939       -14.3387
  53   1.0000      -0.526561       -14.3285
  54   1.0000      -0.517130       -14.0718
  55   1.0000      -0.508126       -13.8268
  56   1.0000      -0.503457       -13.6998
  57   1.0000      -0.423675       -11.5288
  58   1.0000      -0.421318       -11.4647
  59   1.0000      -0.415796       -11.3144
  60   1.0000      -0.409847       -11.1525
  61   1.0000      -0.401252       -10.9186
  62   1.0000      -0.396444       -10.7878
  63   1.0000      -0.394574       -10.7369
  64   1.0000      -0.382657       -10.4126
  65   1.0000      -0.358262        -9.7488
  66   1.0000      -0.328187        -8.9304
  67   0.0000       0.008712         0.2371
  68   0.0000       0.029821         0.8115
  69   0.0000       0.031886         0.8677
  70   0.0000       0.033142         0.9018
  71   0.0000       0.046853         1.2749

                 SPIN DOWN ORBITALS
  NO   OCC          E(Eh)            E(eV)
   0   1.0000     -19.338759      -526.2344
   1   1.0000     -19.335635      -526.1494
   2   1.0000     -19.323116      -525.8087
   3   1.0000     -19.321511      -525.7650
   4   1.0000     -14.579565      -396.7301
   5   1.0000     -14.563901      -396.3039
   6   1.0000     -14.563851      -396.3025
   7   1.0000     -14.561604      -396.2414
   8   1.0000     -10.520122      -286.2671
   9   1.0000     -10.508514      -285.9512
  10   1.0000     -10.494532      -285.5707
  11   1.0000     -10.485465      -285.3240
  12   1.0000     -10.446568      -284.2656
  13   1.0000     -10.437640      -284.0226
  14   1.0000     -10.418951      -283.5141
  15   1.0000     -10.407983      -283.2156
  16   1.0000     -10.393326      -282.8168
  17   1.0000     -10.374978      -282.3175
  18   1.0000      -1.217542       -33.1310
  19   1.0000      -1.215106       -33.0647
  20   1.0000      -1.191645       -32.4263
  21   1.0000      -1.186048       -32.2740
  22   1.0000      -1.119637       -30.4669
  23   1.0000      -1.101546       -29.9746
  24   1.0000      -1.079433       -29.3729
  25   1.0000      -1.057816       -28.7846
  26   1.0000      -0.973460       -26.4892
  27   1.0000      -0.944333       -25.6966
  28   1.0000      -0.884848       -24.0779
  29   1.0000      -0.845755       -23.0142
  30   1.0000      -0.825327       -22.4583
  31   1.0000      -0.805903       -21.9297
  32   1.0000      -0.793924       -21.6038
  33   1.0000      -0.785373       -21.3711
  34   1.0000      -0.706387       -19.2218
  35   1.0000      -0.697331       -18.9753
  36   1.0000      -0.689937       -18.7741
  37   1.0000      -0.682889       -18.5824
  38   1.0000      -0.647532       -17.6202
  39   1.0000      -0.634461       -17.2646
  40   1.0000      -0.622783       -16.9468
  41   1.0000      -0.605016       -16.4633
  42   1.0000      -0.597056       -16.2467
  43   1.0000      -0.586973       -15.9723
  44   1.0000      -0.570437       -15.5224
  45   1.0000      -0.566835       -15.4244
  46   1.0000      -0.561256       -15.2726
  47   1.0000      -0.556475       -15.1424
  48   1.0000      -0.553820       -15.0702
  49   1.0000      -0.547556       -14.8998
  50   1.0000      -0.539252       -14.6738
  51   1.0000      -0.530311       -14.4305
  52   1.0000      -0.520921       -14.1750
  53   1.0000      -0.517247       -14.0750
  54   1.0000      -0.508415       -13.8347
  55   1.0000      -0.500171       -13.6103
  56   1.0000      -0.497229       -13.5303
  57   1.0000      -0.418360       -11.3841
  58   1.0000      -0.416347       -11.3294
  59   1.0000      -0.403999       -10.9934
  60   1.0000      -0.399118       -10.8606
  61   1.0000      -0.395293       -10.7565
  62   1.0000      -0.392725       -10.6866
  63   1.0000      -0.390218       -10.6184
  64   1.0000      -0.374686       -10.1957
  65   0.0000      -0.076207        -2.0737
  66   0.0000      -0.051361        -1.3976
  67   0.0000       0.007937         0.2160
  68   0.0000       0.028830         0.7845
  69   0.0000       0.031748         0.8639

----------------------------------------------------------------------------------------------------
          SPIN FLIP ABSORPTION SPECTRUM VIA TRANSITION ELECTRIC DIPOLE MOMENTS
----------------------------------------------------------------------------------------------------
     Transition      Energy     Energy  Wavelength fosc(D2)      D2        DX        DY        DZ
                      (eV)      (cm-1)    (nm)                 (au**2)    (au)      (au)      (au)
----------------------------------------------------------------------------------------------------
  1-3A  ->  2-3A    0.164739    1328.7  7526.1   0.000085427   0.02117   0.10948  -0.07106  -0.06428
  1-3A  ->  3-3A    2.289067   18462.6   541.6   0.001611539   0.02874  -0.10680   0.00250   0.13161

Dispersion correction             ... done (  0.1 sec)

MULLIKEN ATOMIC CHARGES AND SPIN DENSITIES
------------------------------------------
   0 O :   -0.693540    0.002236
   1 O :   -0.658223   -0.003596
   2 O :   -0.662601   -0.000278
   3 O :   -0.670206   -0.000141
   4 N :   -0.140560   -0.006867
   5 N :   -0.165045   -0.001387
   6 N :    0.008720    0.000499
   7 N :   -0.060815   -0.000305
   8 C :    0.297081    0.355005
   9 C :    0.690439    0.266158
  10 C :    0.435576   -0.145321
  11 C :    0.078995   -0.169990
  12 C :   -1.338343    0.001520
  13 C :   -1.484764   -0.024428
  14 C :    0.164994   -0.165127
  15 C :    0.091119   -0.100344
  16 C :    0.424026    0.004099
  17 C :    0.458784    0.006727
  18 H :    0.530230   -0.028884
  19 H :    0.585535   -0.016449
  20 H :    0.277638    0.010052
  21 H :    0.310287    0.004576
  22 H :    0.330997   -0.000937
  23 H :    0.287058    0.008906
  24 H :    0.408937   -0.002149
  25 H :    0.338476    0.007245
  26 H :    0.001259   -0.000747
  27 H :    0.032492   -0.000579
  28 H :    0.025593    0.001928
  29 H :    0.095859   -0.001425
Sum of atomic charges       :    0.0000000

LOEWDIN ATOMIC CHARGES AND SPIN DENSITIES
-----------------------------------------
   0 O :    0.068262    0.000944
   1 O :    0.091492   -0.004692
   2 O :    0.069306   -0.000468
   3 O :    0.070579   -0.000269
   4 N :    0.300265   -0.000568
   5 N :    0.280711   -0.000155
   6 N :    0.321395   -0.000659
   7 N :    0.324842   -0.001859
   8 C :   -0.012182    0.018461
   9 C :   -0.004723   -0.000115
  10 C :   -0.150112    0.000223
  11 C :   -0.125365   -0.000384
  12 C :    0.182336    0.001068
  13 C :    0.237382   -0.001479
  14 C :   -0.418241   -0.003049
  15 C :   -0.379792   -0.006702
  16 C :   -0.412223   -0.000273
  17 C :   -0.497970   -0.000290
  18 H :    0.049230   -0.000246
  19 H :    0.067754   -0.000121
  20 H :    0.006884    0.000789
  21 H :    0.035465    0.000366
  22 H :   -0.005336   -0.000012
  23 H :    0.025694   -0.000084
  24 H :    0.005741   -0.000282
  25 H :   -0.020014    0.000151
  26 H :   -0.039458   -0.000061
  27 H :   -0.025660   -0.000022
  28 H :   -0.020443   -0.000068
  29 H :   -0.025819   -0.000145

  Mayer bond orders larger than 0.100000
B(  0-O ,  8-C ) :  -0.1679 B(  0-O , 14-C ) :   1.4827 B(  1-O , 15-C ) :   1.3606
B(  2-O , 16-C ) :   1.5662 B(  3-O , 17-C ) :   1.6124 B(  4-N ,  9-C ) :   0.1315
B(  4-N , 10-C ) :   0.4853 B(  4-N , 16-C ) :   1.0294 B(  4-N , 26-H ) :   1.2042
B(  5-N , 10-C ) :   0.2657 B(  5-N , 11-C ) :   0.4037 B(  5-N , 17-C ) :   1.1219
B(  5-N , 19-H ) :  -0.1071 B(  5-N , 27-H ) :   1.1439 B(  6-N , 14-C ) :   0.9534
B(  6-N , 16-C ) :   0.9724 B(  6-N , 28-H ) :   1.1166 B(  7-N , 15-C ) :   1.0101
B(  7-N , 17-C ) :   0.9450 B(  7-N , 29-H ) :   1.0285 B(  8-C , 10-C ) :   0.2314
B(  8-C , 11-C ) :   0.4114 B(  8-C , 12-C ) :   0.5360 B(  8-C , 14-C ) :   0.7477
B(  8-C , 16-C ) :   0.1111 B(  8-C , 18-H ) :  -0.1946 B(  8-C , 21-H ) :  -0.1262
B(  9-C , 10-C ) :   0.1277 B(  9-C , 11-C ) :   0.8737 B(  9-C , 15-C ) :   0.9741
B(  9-C , 19-H ) :  -0.2060 B(  9-C , 25-H ) :  -0.1621 B( 10-C , 11-C ) :   0.1917
B( 10-C , 12-C ) :  -0.1998 B( 10-C , 16-C ) :  -0.1435 B( 10-C , 18-H ) :   0.7087
B( 11-C , 12-C ) :   0.1051 B( 11-C , 13-C ) :   0.1070 B( 11-C , 15-C ) :  -0.1821
B( 11-C , 19-H ) :   0.8275 B( 12-C , 20-H ) :   0.8773 B( 12-C , 21-H ) :   1.0071
B( 12-C , 22-H ) :   0.9965 B( 13-C , 14-C ) :   0.1024 B( 13-C , 23-H ) :   0.8584
B( 13-C , 24-H ) :   0.9147 B( 13-C , 25-H ) :   1.1034

Dispersion correction           -0.058925751
FINAL SINGLE POINT ENERGY      -908.772152114673

DIPOLE MOMENT
-------------

Method             : TDA/CIS
Type of density    : Electron Density
Level              : Relaxed density
State              :   2
Multiplicity       :   3
Irrep              :   0
Energy             :     0.0000000000000000 Eh
Relativity type    :
Basis              : AO
                                X                 Y                 Z
Electronic contribution:     -8.529578218      -2.400573193      -1.879936854
Nuclear contribution   :     10.427822532       2.611931656       3.124426104
                        -----------------------------------------
Total Dipole Moment    :      1.898244314       0.211358463       1.244489250
                        -----------------------------------------
Magnitude (a.u.)       :      2.279639745
Magnitude (Debye)      :      5.794383745

Rotational constants in cm-1:             0.022917             0.011388             0.009969
Rotational constants in MHz :           687.040659           341.412886           298.871619

                             ****ORCA TERMINATED NORMALLY****
TOTAL RUN TIME: 0 days 0 hours 5 minutes 32 seconds 11 msec
