                         Program Version 6.0.0  -   RELEASE  -
|  1> ! opt def2-TZVPPD wB97M-D3BJ
|  2> %pal nprocs 8 end%pal nprocs 32 end
|  3> %geom Constraints
|  4> {B 9 8 2.7 C}
|  5> {A 8 9 11 61.42857142857143 C}
|  6> end
|  7> MaxIter 300
|  8> end
|  9> *xyz 0 1
| 10> O   2.98579685529314 0.88758230159078 -0.86184571092411
| 11> O   -0.03983205397054 0.68929041702508 -2.10362336723772
| 12> O   0.93431434349854 -3.13274393337945 -0.68767288184107
| 13> O   -3.75829998830163 -0.84727300865116 -0.0472717177755
| 14> N   0.21184538946282 -1.54604804365365 0.7617588924445
| 15> N   -2.13631993928911 0.03188773433438 1.27350571071531
| 16> N   2.02598672506387 -1.14318467211666 -0.64531219127023
| 17> N   -1.91814233924584 0.03137116037665 -1.04498946748291
| 18> C   1.18097737274226 0.71693507080484 0.70173889017321
| 19> C   -0.20686880480777 1.27024627933494 0.21345042231937
| 20> C   0.41441080275909 -0.34173258966541 1.52336266615173
| 21> C   -0.82922175114212 0.58960593673968 1.44434972027296
| 22> C   1.92822011286806 1.69488653817281 1.5963734975385
| 23> C   -0.37809776891576 2.77134929626422 0.04819649358288
| 24> C   2.1403947470937 0.1972384729179 -0.35038567829864
| 25> C   -0.67361678962426 0.6214190571346 -1.0793014500539
| 26> C   1.04142578622994 -2.02697492875068 -0.21027082435993
| 27> C   -2.68467002550422 -0.30396816036989 0.07167054343891
| 28> H   0.80817443950001 -0.54572267081061 2.51895215321335
| 29> H   -0.83785272399001 1.27240685039143 2.28901317073582
| 30> H   2.31167340578204 2.52284411740894 1.00913016264629
| 31> H   1.28982602448342 2.08257620823614 2.38710022492991
| 32> H   2.77390820759972 1.19140411795486 2.06045858523949
| 33> H   -1.41857211141493 3.00964947214868 -0.16882755561625
| 34> H   -0.09065531563179 3.29799318042223 0.95389844358819
| 35> H   0.23426221611057 3.12492645074476 -0.77764887675592
| 36> H   -0.46772570547622 -2.21560145172536 1.0787081584806
| 37> H   -2.71769301149571 -0.17090724573546 2.06627440900372
| 38> H   2.60065167263658 -1.49057255715425 -1.3966820077142
| 39> H   -2.27169977231386 -0.32388339999036 -1.91951041514436
| 40> *
| 41>
| 42>                          ****END OF INPUT****
 Total Charge           Charge          ....    0
 Multiplicity           Mult            ....    1
 Number of Electrons    NEL             ....  132
Dispersion correction           -0.054231678
FINAL SINGLE POINT ENERGY      -908.735902371041
Dispersion correction             ... done (  0.0 sec)
Dispersion correction           -0.055227039
FINAL SINGLE POINT ENERGY      -908.761820238839
Dispersion correction             ... done (  0.0 sec)
Dispersion correction           -0.056137126
FINAL SINGLE POINT ENERGY      -908.779430916398
Dispersion correction             ... done (  0.0 sec)
FINAL SINGLE POINT ENERGY      -908.793831793357
FINAL SINGLE POINT ENERGY      -908.800298199030
FINAL SINGLE POINT ENERGY      -908.802621877946
FINAL SINGLE POINT ENERGY      -908.804016412153
FINAL SINGLE POINT ENERGY      -908.804881742414
FINAL SINGLE POINT ENERGY      -908.805528445008
FINAL SINGLE POINT ENERGY      -908.805985361625
FINAL SINGLE POINT ENERGY      -908.807194718662
FINAL SINGLE POINT ENERGY      -908.807294980416
FINAL SINGLE POINT ENERGY      -908.807348090099
FINAL SINGLE POINT ENERGY      -908.807379224154
FINAL SINGLE POINT ENERGY      -908.807394302273
FINAL SINGLE POINT ENERGY      -908.807404919451
FINAL SINGLE POINT ENERGY      -908.807408939089
Dispersion correction             ... done (  0.0 sec)
Dispersion correction           -0.059686024
FINAL SINGLE POINT ENERGY      -908.807412222735
Dispersion correction             ... done (  0.0 sec)
Dispersion correction           -0.059678226
FINAL SINGLE POINT ENERGY      -908.807414330648
Dispersion correction             ... done (  0.0 sec)
                    ***********************HURRAY********************

CARTESIAN COORDINATES (ANGSTROEM)
---------------------------------
  O      3.279497    0.590762   -0.607691
  O     -0.586779    1.163590   -2.424047
  O      0.478668   -2.954694   -0.839795
  O     -3.274717   -1.465650    0.052104
  N      0.262183   -1.549866    0.927178
  N     -2.071507    0.124620    1.155838
  N      1.762718   -1.083517   -0.784932
  N     -1.667429   -0.335319   -1.097292
  C      1.604911    0.474261    1.050144
  C     -0.600790    1.544886   -0.080628
  C      0.382920   -0.244721    1.531976
  C     -0.757757    0.742881    1.229784
  C      2.219827    1.525681    1.884041
  C     -0.593917    3.019948   -0.078046
  C      2.299084    0.030546   -0.158365
  C     -0.910881    0.812266   -1.310492
  C      0.796667   -1.934857   -0.272574
  C     -2.404032   -0.628310    0.051816
  H      0.434122   -0.391910    2.615109
  H     -0.779170    1.464104    2.044725
  H      2.972483    2.064867    1.318535
  H      1.476452    2.224541    2.271662
  H      2.701592    1.069760    2.756366
  H     -1.574971    3.403529    0.226610
  H      0.135762    3.410321    0.632835
  H     -0.375919    3.396948   -1.073021
  H     -0.468817   -2.161099    1.247648
  H     -2.575735   -0.138274    1.985649
  H      2.200477   -1.380427   -1.641226
  H     -1.912340   -0.879865   -1.909311

 Multiplicity           Mult            ....    1
 Number of Electrons    NEL             ....  132
 Basis Dimension        Dim             ....  882

ORBITAL ENERGIES
----------------

  NO   OCC          E(Eh)            E(eV)
   0   2.0000     -19.333796      -526.0993
   1   2.0000     -19.326668      -525.9054
   2   2.0000     -19.325623      -525.8769
   3   2.0000     -19.314686      -525.5793
   4   2.0000     -14.562983      -396.2789
   5   2.0000     -14.562220      -396.2582
   6   2.0000     -14.556745      -396.1092
   7   2.0000     -14.555521      -396.0759
   8   2.0000     -10.508640      -285.9546
   9   2.0000     -10.500957      -285.7456
  10   2.0000     -10.484543      -285.2989
  11   2.0000     -10.481323      -285.2113
  12   2.0000     -10.440904      -284.1114
  13   2.0000     -10.438489      -284.0457
  14   2.0000     -10.431691      -283.8607
  15   2.0000     -10.429585      -283.8034
  16   2.0000     -10.378379      -282.4101
  17   2.0000     -10.376362      -282.3552
  18   2.0000      -1.223349       -33.2890
  19   2.0000      -1.214227       -33.0408
  20   2.0000      -1.198305       -32.6075
  21   2.0000      -1.190824       -32.4040
  22   2.0000      -1.118457       -30.4348
  23   2.0000      -1.095427       -29.8081
  24   2.0000      -1.064892       -28.9772
  25   2.0000      -1.054390       -28.6914
  26   2.0000      -0.981553       -26.7094
  27   2.0000      -0.945886       -25.7389
  28   2.0000      -0.890767       -24.2390
  29   2.0000      -0.836736       -22.7688
  30   2.0000      -0.826975       -22.5031
  31   2.0000      -0.798731       -21.7346
  32   2.0000      -0.784775       -21.3548
  33   2.0000      -0.779971       -21.2241
  34   2.0000      -0.698380       -19.0039
  35   2.0000      -0.693905       -18.8821
  36   2.0000      -0.688158       -18.7257
  37   2.0000      -0.663324       -18.0500
  38   2.0000      -0.652343       -17.7512
  39   2.0000      -0.640872       -17.4390
  40   2.0000      -0.618566       -16.8320
  41   2.0000      -0.600026       -16.3275
  42   2.0000      -0.587137       -15.9768
  43   2.0000      -0.581360       -15.8196
  44   2.0000      -0.577108       -15.7039
  45   2.0000      -0.570921       -15.5356
  46   2.0000      -0.565040       -15.3755
  47   2.0000      -0.558718       -15.2035
  48   2.0000      -0.557383       -15.1672
  49   2.0000      -0.549773       -14.9601
  50   2.0000      -0.545218       -14.8361
  51   2.0000      -0.543637       -14.7931
  52   2.0000      -0.530002       -14.4221
  53   2.0000      -0.520574       -14.1655
  54   2.0000      -0.511041       -13.9061
  55   2.0000      -0.506084       -13.7712
  56   2.0000      -0.487910       -13.2767
  57   2.0000      -0.420789       -11.4502
  58   2.0000      -0.416023       -11.3206
  59   2.0000      -0.407833       -11.0977
  60   2.0000      -0.396061       -10.7774
  61   2.0000      -0.393264       -10.7013
  62   2.0000      -0.391115       -10.6428
  63   2.0000      -0.386118       -10.5068
  64   2.0000      -0.377673       -10.2770
  65   2.0000      -0.300225        -8.1695
  66   0.0000      -0.091483        -2.4894
  67   0.0000       0.005563         0.1514
  68   0.0000       0.028327         0.7708
  69   0.0000       0.031297         0.8516
  70   0.0000       0.037681         1.0253

MULLIKEN ATOMIC CHARGES
-----------------------
   0 O :   -0.682210
   1 O :   -0.656783
   2 O :   -0.662653
   3 O :   -0.631003
   4 N :   -0.264830
   5 N :   -0.342905
   6 N :    0.041057
   7 N :    0.068074
   8 C :    0.292343
   9 C :    0.613549
  10 C :    0.143702
  11 C :    0.507021
  12 C :   -1.432029
  13 C :   -1.532769
  14 C :    0.503937
  15 C :    0.076117
  16 C :    0.444186
  17 C :    0.306377
  18 H :    0.550380
  19 H :    0.482410
  20 H :    0.286575
  21 H :    0.310304
  22 H :    0.392467
  23 H :    0.360576
  24 H :    0.249150
  25 H :    0.373657
  26 H :    0.049261
  27 H :    0.106199
  28 H :    0.013303
  29 H :    0.034539
Sum of atomic charges:   -0.0000000

LOEWDIN ATOMIC CHARGES
----------------------
   0 O :    0.093646
   1 O :    0.109676
   2 O :    0.090643
   3 O :    0.098875
   4 N :    0.286213
   5 N :    0.282734
   6 N :    0.329445
   7 N :    0.330250
   8 C :   -0.007043
   9 C :    0.005507
  10 C :   -0.134664
  11 C :   -0.133588
  12 C :    0.190165
  13 C :    0.189437
  14 C :   -0.400463
  15 C :   -0.407308
  16 C :   -0.492841
  17 C :   -0.485626
  18 H :    0.055922
  19 H :    0.046919
  20 H :    0.000756
  21 H :   -0.006995
  22 H :    0.018164
  23 H :    0.016858
  24 H :   -0.006808
  25 H :    0.003323
  26 H :   -0.028975
  27 H :   -0.030667
  28 H :   -0.008400
  29 H :   -0.005153

  Mayer bond orders larger than 0.100000
B(  0-O , 14-C ) :   1.2561 B(  1-O , 15-C ) :   1.4529 B(  2-O , 16-C ) :   1.5347
B(  3-O , 17-C ) :   1.5816 B(  4-N ,  8-C ) :   0.2516 B(  4-N , 10-C ) :   0.4037
B(  4-N , 16-C ) :   1.0507 B(  4-N , 26-H ) :   1.0986 B(  5-N ,  9-C ) :   0.2890
B(  5-N , 10-C ) :   0.1423 B(  5-N , 17-C ) :   1.2106 B(  5-N , 27-H ) :   1.0166
B(  6-N , 14-C ) :   1.0580 B(  6-N , 16-C ) :   0.9128 B(  6-N , 28-H ) :   1.1186
B(  7-N , 11-C ) :   0.1488 B(  7-N , 15-C ) :   0.9524 B(  7-N , 17-C ) :   0.9797
B(  7-N , 29-H ) :   1.0925 B(  8-C ,  9-C ) :   0.6076 B(  8-C , 10-C ) :   0.3239
B(  8-C , 12-C ) :   0.4450 B(  8-C , 14-C ) :   0.8173 B(  8-C , 15-C ) :   0.1702
B(  8-C , 16-C ) :   0.1119 B(  8-C , 18-H ) :  -0.1898 B(  8-C , 20-H ) :  -0.1344
B(  8-C , 21-H ) :  -0.1102 B(  9-C , 10-C ) :   0.1145 B(  9-C , 13-C ) :   0.3133
B(  9-C , 14-C ) :   0.1519 B(  9-C , 15-C ) :   0.6592 B( 10-C , 11-C ) :   0.7360
B( 10-C , 12-C ) :  -0.1448 B( 10-C , 16-C ) :  -0.1498 B( 10-C , 18-H ) :   0.8353
B( 11-C , 13-C ) :  -0.2023 B( 11-C , 15-C ) :  -0.1868 B( 11-C , 17-C ) :  -0.2250
B( 11-C , 19-H ) :   0.9259 B( 12-C , 20-H ) :   1.0886 B( 12-C , 21-H ) :   0.9650
B( 12-C , 22-H ) :   0.7981 B( 13-C , 23-H ) :   0.8504 B( 13-C , 24-H ) :   1.0952
B( 13-C , 25-H ) :   0.9040

Dispersion correction           -0.059677439
FINAL SINGLE POINT ENERGY      -908.807415029797

DIPOLE MOMENT
-------------

Method             : SCF
Type of density    : Electron Density
Multiplicity       :   1
Irrep              :   0
Energy             :  -908.7477375907916439 Eh
Relativity type    :
Basis              : AO
                                X                 Y                 Z
Electronic contribution:     -2.243715406     -10.057336475      -7.187726669
Nuclear contribution   :      2.037882543      11.556514721       9.840937194
                        -----------------------------------------
Total Dipole Moment    :     -0.205832863       1.499178246       2.653210525
                        -----------------------------------------
Magnitude (a.u.)       :      3.054411346
Magnitude (Debye)      :      7.763696651

Rotational constants in cm-1:             0.019641             0.014925             0.012566
Rotational constants in MHz :           588.821436           447.439938           376.705783

                             ****ORCA TERMINATED NORMALLY****
TOTAL RUN TIME: 0 days 0 hours 54 minutes 46 seconds 747 msec
