                         Program Version 6.0.0  -   RELEASE  -
|  1> ! Engrad def2-TZVPPD wB97M-D3BJ
|  2> %pal nprocs 8 end%pal nprocs 64 end
|  3>  %tddft nroots 2 Iroot 1
|  4> sf true
|  5> end
|  6> *xyz 0 3
|  7> O   2.84083872887099 1.07071579174956 -0.71522915912819
|  8> O   -0.4068597039767 0.83040278061727 -2.04618533477148
|  9> O   0.57945829449822 -2.78825214730936 -1.48420684367438
| 10> O   -2.63333985649044 -1.73406487961975 0.96661154022059
| 11> N   0.70466372984281 -2.0120680875698 0.65134721225973
| 12> N   -2.44397164597719 0.502766530839 1.3554434014196
| 13> N   1.84138223179476 -0.93884071358628 -1.04234026404518
| 14> N   -1.61461852924891 -0.40840523970412 -0.58644283589803
| 15> C   1.71612503244472 0.09447486975004 1.12830911160577
| 16> C   -1.07008878848743 1.87424951160131 -0.02034867150453
| 17> C   1.00588709940569 -0.97632916885396 1.50508607446548
| 18> C   -1.84985877103661 1.71156265541458 1.05239526601017
| 19> C   2.04851949717052 1.23380873233567 2.03643722631835
| 20> C   -0.3559131964881 3.14150942368467 -0.36472420254882
| 21> C   2.19522152313594 0.15524109109805 -0.2537175753686
| 22> C   -0.98026991144541 0.77125203333609 -0.98146519143076
| 23> C   1.01249146255204 -1.97987104997363 -0.69191864823948
| 24> C   -2.26070833416095 -0.63730788160918 0.60578588680479
| 25> H   0.62190148274894 -1.08649266641556 2.50830497720748
| 26> H   -2.01800799479694 2.49990241702436 1.77024728747277
| 27> H   1.62728876278305 2.16244268047102 1.65507838827156
| 28> H   1.65999327731778 1.05713042281386 3.03690515555774
| 29> H   3.12546694045728 1.37728941425938 2.09655912615107
| 30> H   -0.7247145063136 3.54825101421211 -1.30436419279792
| 31> H   -0.4839354188272 3.88534408077628 0.41835431356807
| 32> H   0.7070288198227 2.94826796644923 -0.50254820986993
| 33> H   0.02258819814791 -2.70330299827038 0.91494519328161
| 34> H   -2.94050627650514 0.37404626192437 2.21821538726874
| 35> H   2.0267603303151 -0.84922197405343 -2.02949912575054
| 36> H   -1.50022247755388 -1.2095008713914 -1.1924352928557
| 37> *
| 38>
| 39>                          ****END OF INPUT****

CARTESIAN COORDINATES (ANGSTROEM)
---------------------------------
  O      2.840839    1.070716   -0.715229
  O     -0.406860    0.830403   -2.046185
  O      0.579458   -2.788252   -1.484207
  O     -2.633340   -1.734065    0.966612
  N      0.704664   -2.012068    0.651347
  N     -2.443972    0.502767    1.355443
  N      1.841382   -0.938841   -1.042340
  N     -1.614619   -0.408405   -0.586443
  C      1.716125    0.094475    1.128309
  C     -1.070089    1.874250   -0.020349
  C      1.005887   -0.976329    1.505086
  C     -1.849859    1.711563    1.052395
  C      2.048519    1.233809    2.036437
  C     -0.355913    3.141509   -0.364724
  C      2.195222    0.155241   -0.253718
  C     -0.980270    0.771252   -0.981465
  C      1.012491   -1.979871   -0.691919
  C     -2.260708   -0.637308    0.605786
  H      0.621901   -1.086493    2.508305
  H     -2.018008    2.499902    1.770247
  H      1.627289    2.162443    1.655078
  H      1.659993    1.057130    3.036905
  H      3.125467    1.377289    2.096559
  H     -0.724715    3.548251   -1.304364
  H     -0.483935    3.885344    0.418354
  H      0.707029    2.948268   -0.502548
  H      0.022588   -2.703303    0.914945
  H     -2.940506    0.374046    2.218215
  H      2.026760   -0.849222   -2.029499
  H     -1.500222   -1.209501   -1.192435

 Total Charge           Charge          ....    0
 Multiplicity           Mult            ....    3
 Number of Electrons    NEL             ....  132
 Basis Dimension        Dim             ....  882

ORBITAL ENERGIES
----------------
                 SPIN UP ORBITALS
  NO   OCC          E(Eh)            E(eV)
   0   1.0000     -19.330707      -526.0153
   1   1.0000     -19.328727      -525.9614
   2   1.0000     -19.323395      -525.8163
   3   1.0000     -19.315890      -525.6121
   4   1.0000     -14.591808      -397.0633
   5   1.0000     -14.584160      -396.8552
   6   1.0000     -14.570383      -396.4803
   7   1.0000     -14.546163      -395.8212
   8   1.0000     -10.514889      -286.1247
   9   1.0000     -10.507631      -285.9272
  10   1.0000     -10.479225      -285.1542
  11   1.0000     -10.453555      -284.4557
  12   1.0000     -10.434123      -283.9269
  13   1.0000     -10.405273      -283.1419
  14   1.0000     -10.396029      -282.8903
  15   1.0000     -10.382160      -282.5129
  16   1.0000     -10.368416      -282.1389
  17   1.0000     -10.354587      -281.7626
  18   1.0000      -1.228041       -33.4167
  19   1.0000      -1.223323       -33.2883
  20   1.0000      -1.194444       -32.5025
  21   1.0000      -1.186429       -32.2844
  22   1.0000      -1.123363       -30.5683
  23   1.0000      -1.122963       -30.5574
  24   1.0000      -1.070655       -29.1340
  25   1.0000      -1.057841       -28.7853
  26   1.0000      -0.972967       -26.4758
  27   1.0000      -0.957942       -26.0669
  28   1.0000      -0.855476       -23.2787
  29   1.0000      -0.848638       -23.0926
  30   1.0000      -0.811127       -22.0719
  31   1.0000      -0.807176       -21.9644
  32   1.0000      -0.794659       -21.6238
  33   1.0000      -0.786200       -21.3936
  34   1.0000      -0.698971       -19.0200
  35   1.0000      -0.696426       -18.9507
  36   1.0000      -0.692607       -18.8468
  37   1.0000      -0.688390       -18.7320
  38   1.0000      -0.645178       -17.5562
  39   1.0000      -0.635872       -17.3029
  40   1.0000      -0.626630       -17.0515
  41   1.0000      -0.603713       -16.4279
  42   1.0000      -0.598320       -16.2811
  43   1.0000      -0.591654       -16.0997
  44   1.0000      -0.571397       -15.5485
  45   1.0000      -0.568489       -15.4694
  46   1.0000      -0.567231       -15.4351
  47   1.0000      -0.552378       -15.0310
  48   1.0000      -0.549203       -14.9446
  49   1.0000      -0.546005       -14.8576
  50   1.0000      -0.528875       -14.3914
  51   1.0000      -0.526041       -14.3143
  52   1.0000      -0.517768       -14.0892
  53   1.0000      -0.515717       -14.0334
  54   1.0000      -0.507278       -13.8037
  55   1.0000      -0.501367       -13.6429
  56   1.0000      -0.492834       -13.4107
  57   1.0000      -0.479466       -13.0469
  58   1.0000      -0.421059       -11.4576
  59   1.0000      -0.418279       -11.3819
  60   1.0000      -0.406854       -11.0711
  61   1.0000      -0.398203       -10.8357
  62   1.0000      -0.388594       -10.5742
  63   1.0000      -0.385288       -10.4842
  64   1.0000      -0.383119       -10.4252
  65   1.0000      -0.348344        -9.4789
  66   1.0000      -0.207378        -5.6430
  67   0.0000       0.011650         0.3170
  68   0.0000       0.019998         0.5442
  69   0.0000       0.033078         0.9001
  70   0.0000       0.037220         1.0128
  71   0.0000       0.044211         1.2031

                 SPIN DOWN ORBITALS
  NO   OCC          E(Eh)            E(eV)
   0   1.0000     -19.328820      -525.9639
   1   1.0000     -19.328711      -525.9610
   2   1.0000     -19.323412      -525.8168
   3   1.0000     -19.309530      -525.4390
   4   1.0000     -14.586492      -396.9186
   5   1.0000     -14.584005      -396.8510
   6   1.0000     -14.570401      -396.4808
   7   1.0000     -14.545254      -395.7965
   8   1.0000     -10.514893      -286.1248
   9   1.0000     -10.508011      -285.9375
  10   1.0000     -10.479212      -285.1538
  11   1.0000     -10.453280      -284.4482
  12   1.0000     -10.433957      -283.9224
  13   1.0000     -10.395787      -282.8837
  14   1.0000     -10.385888      -282.6144
  15   1.0000     -10.382183      -282.5136
  16   1.0000     -10.368882      -282.1516
  17   1.0000     -10.354575      -281.7623
  18   1.0000      -1.227558       -33.4035
  19   1.0000      -1.219390       -33.1813
  20   1.0000      -1.194395       -32.5011
  21   1.0000      -1.177005       -32.0279
  22   1.0000      -1.123007       -30.5586
  23   1.0000      -1.112046       -30.2603
  24   1.0000      -1.070567       -29.1316
  25   1.0000      -1.052320       -28.6351
  26   1.0000      -0.958316       -26.0771
  27   1.0000      -0.948479       -25.8094
  28   1.0000      -0.848603       -23.0917
  29   1.0000      -0.844211       -22.9722
  30   1.0000      -0.810979       -22.0679
  31   1.0000      -0.796826       -21.6827
  32   1.0000      -0.793677       -21.5971
  33   1.0000      -0.779425       -21.2092
  34   1.0000      -0.696293       -18.9471
  35   1.0000      -0.692688       -18.8490
  36   1.0000      -0.687015       -18.6946
  37   1.0000      -0.680217       -18.5096
  38   1.0000      -0.643951       -17.5228
  39   1.0000      -0.627781       -17.0828
  40   1.0000      -0.620370       -16.8811
  41   1.0000      -0.598258       -16.2794
  42   1.0000      -0.591903       -16.1065
  43   1.0000      -0.583410       -15.8754
  44   1.0000      -0.568442       -15.4681
  45   1.0000      -0.561306       -15.2739
  46   1.0000      -0.557311       -15.1652
  47   1.0000      -0.551504       -15.0072
  48   1.0000      -0.541340       -14.7306
  49   1.0000      -0.538691       -14.6585
  50   1.0000      -0.520306       -14.1582
  51   1.0000      -0.518502       -14.1091
  52   1.0000      -0.516152       -14.0452
  53   1.0000      -0.504047       -13.7158
  54   1.0000      -0.501839       -13.6557
  55   1.0000      -0.497786       -13.5454
  56   1.0000      -0.478585       -13.0230
  57   1.0000      -0.446626       -12.1533
  58   1.0000      -0.420459       -11.4413
  59   1.0000      -0.413164       -11.2428
  60   1.0000      -0.403298       -10.9743
  61   1.0000      -0.388322       -10.5668
  62   1.0000      -0.376530       -10.2459
  63   1.0000      -0.374089       -10.1795
  64   1.0000      -0.348090        -9.4720
  65   0.0000      -0.104892        -2.8543
  66   0.0000       0.010769         0.2930
  67   0.0000       0.020246         0.5509
  68   0.0000       0.030492         0.8297
  69   0.0000       0.036177         0.9844

----------------------------------------------------------------------------------------------------
          SPIN FLIP ABSORPTION SPECTRUM VIA TRANSITION ELECTRIC DIPOLE MOMENTS
----------------------------------------------------------------------------------------------------
     Transition      Energy     Energy  Wavelength fosc(D2)      D2        DX        DY        DZ
                      (eV)      (cm-1)    (nm)                 (au**2)    (au)      (au)      (au)
----------------------------------------------------------------------------------------------------
  1-3A  ->  2-3A    4.237742   34179.7   292.6   0.001919021   0.01848  -0.06694  -0.08604   0.08124

Dispersion correction             ... done (  0.1 sec)

MULLIKEN ATOMIC CHARGES AND SPIN DENSITIES
------------------------------------------
   0 O :   -0.678555    0.036415
   1 O :   -0.651769    0.001537
   2 O :   -0.639871    0.007412
   3 O :   -0.663769    0.000702
   4 N :   -0.036233    0.053137
   5 N :   -0.043794    0.003037
   6 N :    0.016038    0.001534
   7 N :    0.011283    0.000732
   8 C :    1.041878    0.495670
   9 C :    0.520261    0.019063
  10 C :   -0.166126   -0.413246
  11 C :    0.080227   -0.010159
  12 C :   -1.364214   -0.034390
  13 C :   -1.421067    0.008530
  14 C :    0.258403   -0.228771
  15 C :    0.607738   -0.022381
  16 C :    0.398371    0.020443
  17 C :    0.454323   -0.002951
  18 H :    0.171574    0.038993
  19 H :    0.138768   -0.000705
  20 H :    0.201582    0.013642
  21 H :    0.344822    0.013682
  22 H :    0.332720    0.000115
  23 H :    0.358049    0.000185
  24 H :    0.328629    0.000726
  25 H :    0.224112   -0.003358
  26 H :    0.074397   -0.000134
  27 H :    0.022571   -0.000395
  28 H :    0.032913    0.002840
  29 H :    0.046738   -0.001905
Sum of atomic charges       :   -0.0000000

LOEWDIN ATOMIC CHARGES AND SPIN DENSITIES
-----------------------------------------
   0 O :    0.085712    0.030109
   1 O :    0.103779    0.000642
   2 O :    0.086449    0.005965
   3 O :    0.073959   -0.000042
   4 N :    0.287055    0.023998
   5 N :    0.277578    0.000335
   6 N :    0.339256   -0.000011
   7 N :    0.341501   -0.000214
   8 C :   -0.134865   -0.034014
   9 C :   -0.136532   -0.000286
  10 C :    0.057721   -0.032329
  11 C :    0.060327   -0.001306
  12 C :    0.177454   -0.003555
  13 C :    0.178691    0.000146
  14 C :   -0.414528    0.009778
  15 C :   -0.390038    0.000034
  16 C :   -0.484913    0.000783
  17 C :   -0.484598   -0.000338
  18 H :    0.038163   -0.002059
  19 H :    0.035433   -0.000023
  20 H :   -0.014977   -0.000266
  21 H :   -0.006749    0.000321
  22 H :    0.002237   -0.000222
  23 H :    0.002171    0.000007
  24 H :   -0.005453    0.000016
  25 H :   -0.012087    0.000098
  26 H :   -0.020445    0.002221
  27 H :   -0.023015    0.000026
  28 H :   -0.003685    0.000206
  29 H :   -0.015600   -0.000019

  Mayer bond orders larger than 0.100000
B(  0-O , 14-C ) :   1.4459 B(  1-O , 15-C ) :   1.4323 B(  2-O , 16-C ) :   1.5798
B(  3-O , 17-C ) :   1.5469 B(  4-N , 10-C ) :   0.9079 B(  4-N , 16-C ) :   0.9582
B(  4-N , 26-H ) :   1.1096 B(  5-N , 11-C ) :   0.9625 B(  5-N , 17-C ) :   1.0460
B(  5-N , 27-H ) :   1.1356 B(  6-N , 14-C ) :   0.9564 B(  6-N , 16-C ) :   0.9478
B(  6-N , 28-H ) :   1.0982 B(  7-N , 15-C ) :   0.9712 B(  7-N , 17-C ) :   0.9565
B(  7-N , 29-H ) :   1.1135 B(  8-C , 10-C ) :   1.1331 B(  8-C , 12-C ) :   0.3626
B(  8-C , 14-C ) :   0.6854 B(  9-C , 11-C ) :   1.2471 B(  9-C , 13-C ) :   0.3292
B(  9-C , 15-C ) :   0.8621 B(  9-C , 25-H ) :  -0.1247 B( 10-C , 12-C ) :  -0.1002
B( 10-C , 16-C ) :  -0.1023 B( 10-C , 18-H ) :   1.1160 B( 11-C , 13-C ) :  -0.1533
B( 11-C , 19-H ) :   1.0965 B( 12-C , 20-H ) :   1.0342 B( 12-C , 21-H ) :   0.9664
B( 12-C , 22-H ) :   0.9308 B( 13-C , 23-H ) :   0.9104 B( 13-C , 24-H ) :   1.0201
B( 13-C , 25-H ) :   1.0176

Dispersion correction           -0.057222347
FINAL SINGLE POINT ENERGY      -908.925639136648

DIPOLE MOMENT
-------------

Method             : TDA/CIS
Type of density    : Electron Density
Level              : Relaxed density
State              :   1
Multiplicity       :   3
Irrep              :   0
Energy             :     0.0000000000000000 Eh
Relativity type    :
Basis              : AO
                                X                 Y                 Z
Electronic contribution:     -2.720175829     -10.504386663      -5.970426181
Nuclear contribution   :      1.783358804      11.437950687       8.467890029
                        -----------------------------------------
Total Dipole Moment    :     -0.936817025       0.933564023       2.497463849
                        -----------------------------------------
Magnitude (a.u.)       :      2.826038499
Magnitude (Debye)      :      7.183219005

Rotational constants in cm-1:             0.017770             0.015246             0.012070
Rotational constants in MHz :           532.721394           457.051981           361.838295

                             ****ORCA TERMINATED NORMALLY****
TOTAL RUN TIME: 0 days 0 hours 6 minutes 4 seconds 545 msec
