                         Program Version 6.0.0  -   RELEASE  -
|  1> ! Opt wB97M-D3BJ def2-TZVPPD
|  2> %pal nprocs 8 end %pal nprocs 64 end
|  3> %geom
|  4> Constraints
|  5>     {A 2 1 0 72.20338983050847 C }
|  6> end
|  7> MaxIter 200
|  8> end
|  9> *xyz 0 1
| 10> O   0.3117830517227203 0.958030404841039 0.0
| 11> C   0.7509 -0.4065 0.0
| 12> C   -0.7502 -0.4076 0.0
| 13> H   1.2625 -0.6786 0.9136
| 14> H   1.2625 -0.6787 -0.9136
| 15> H   -1.2614 -0.6806 -0.9136
| 16> H   -1.2614 -0.6805 0.9136
| 17> *
| 18>
| 19>                          ****END OF INPUT****
 Total Charge           Charge          ....    0
 Multiplicity           Mult            ....    1
 Number of Electrons    NEL             ....   24
Dispersion correction           -0.005203149
FINAL SINGLE POINT ENERGY      -153.855318628931
Dispersion correction             ... done (  0.1 sec)
Dispersion correction           -0.005228680
FINAL SINGLE POINT ENERGY      -153.867746558040
Dispersion correction             ... done (  0.1 sec)
Dispersion correction           -0.005253298
FINAL SINGLE POINT ENERGY      -153.870709385076
Dispersion correction             ... done (  0.1 sec)
FINAL SINGLE POINT ENERGY      -153.871086168725
FINAL SINGLE POINT ENERGY      -153.871206203481
Dispersion correction             ... done (  0.1 sec)
Dispersion correction           -0.005242238
FINAL SINGLE POINT ENERGY      -153.871220986840
Dispersion correction             ... done (  0.1 sec)
Dispersion correction           -0.005243343
FINAL SINGLE POINT ENERGY      -153.871226299750
Dispersion correction             ... done (  0.1 sec)
                    ***********************HURRAY********************

CARTESIAN COORDINATES (ANGSTROEM)
---------------------------------
  O      0.208229    0.873430   -0.000131
  C      0.725322   -0.388428    0.000035
  C     -0.689903   -0.499474   -0.000107
  H      1.265369   -0.681405    0.900808
  H      1.265397   -0.681531   -0.900700
  H     -1.230048   -0.598915   -0.926530
  H     -1.229684   -0.598147    0.926626

 Multiplicity           Mult            ....    1
 Number of Electrons    NEL             ....   24
 Basis Dimension        Dim             ....  182

ORBITAL ENERGIES
----------------

  NO   OCC          E(Eh)            E(eV)
   0   2.0000     -19.347518      -526.4727
   1   2.0000     -10.408261      -283.2232
   2   2.0000     -10.396676      -282.9079
   3   2.0000      -1.180053       -32.1109
   4   2.0000      -0.831934       -22.6381
   5   2.0000      -0.744052       -20.2467
   6   2.0000      -0.628791       -17.1103
   7   2.0000      -0.590743       -16.0749
   8   2.0000      -0.499564       -13.5938
   9   2.0000      -0.494672       -13.4607
  10   2.0000      -0.419652       -11.4193
  11   2.0000      -0.378310       -10.2943
  12   0.0000       0.039645         1.0788
  13   0.0000       0.056710         1.5431
  14   0.0000       0.064537         1.7561
  15   0.0000       0.077172         2.1000
  16   0.0000       0.109256         2.9730

MULLIKEN ATOMIC CHARGES
-----------------------
   0 O :   -0.411595
   1 C :   -0.114016
   2 C :   -0.254619
   3 H :    0.197205
   4 H :    0.197174
   5 H :    0.192890
   6 H :    0.192961
Sum of atomic charges:   -0.0000000

LOEWDIN ATOMIC CHARGES
----------------------
   0 O :   -0.028174
   1 C :   -0.191017
   2 C :    0.170935
   3 H :    0.022740
   4 H :    0.022743
   5 H :    0.001391
   6 H :    0.001382

  Mayer bond orders larger than 0.100000
B(  0-O ,  1-C ) :   0.7322 B(  0-O ,  2-C ) :   0.8990 B(  1-C ,  2-C ) :   0.7994
B(  1-C ,  3-H ) :   1.0444 B(  1-C ,  4-H ) :   1.0443 B(  2-C ,  5-H ) :   0.9862
B(  2-C ,  6-H ) :   0.9863

Dispersion correction           -0.005243643
FINAL SINGLE POINT ENERGY      -153.871226670669

DIPOLE MOMENT
-------------

Method             : SCF
Type of density    : Electron Density
Multiplicity       :   1
Irrep              :   0
Energy             :  -153.8659830275731224 Eh
Relativity type    :
Basis              : AO
                                X                 Y                 Z
Electronic contribution:      0.078892304       1.549166652      -0.000364890
Nuclear contribution   :     -0.257696114      -2.451152306       0.000425388
                        -----------------------------------------
Total Dipole Moment    :     -0.178803810      -0.901985654       0.000060497
                        -----------------------------------------
Magnitude (a.u.)       :      0.919537344
Magnitude (Debye)      :      2.337278182

Rotational constants in cm-1:             0.902118             0.664192             0.451532
Rotational constants in MHz :         27044.804709         19911.987900         13536.577924

                             ****ORCA TERMINATED NORMALLY****
TOTAL RUN TIME: 0 days 0 hours 1 minutes 43 seconds 109 msec
