                         Program Version 6.0.0  -   RELEASE  -
|  1> ! Engrad def2-TZVPPD wB97M-D3BJ
|  2> %pal nprocs 8 end%pal nprocs 64 end
|  3> %tddft
|  4>  Iroot 1 Nroots 3
|  5> sf true
|  6> end
|  7> *xyz 0 3
|  8> O   0.49611041 -0.34657861 -1.02632049
|  9> C   0.6774007 -0.26638176 0.35879026
| 10> C   -0.01914189 0.87079323 0.94062984
| 11> H   1.7878826 -0.08536044 0.62338184
| 12> H   0.47584357 -1.23633091 0.90866313
| 13> H   0.61713434 1.5404203 1.56882279
| 14> H   -1.05927343 1.04997458 0.86275511
| 15> *
| 16>
| 17>                          ****END OF INPUT****

CARTESIAN COORDINATES (ANGSTROEM)
---------------------------------
  O      0.496110   -0.346579   -1.026320
  C      0.677401   -0.266382    0.358790
  C     -0.019142    0.870793    0.940630
  H      1.787883   -0.085360    0.623382
  H      0.475844   -1.236331    0.908663
  H      0.617134    1.540420    1.568823
  H     -1.059273    1.049975    0.862755

 Total Charge           Charge          ....    0
 Multiplicity           Mult            ....    3
 Number of Electrons    NEL             ....   24
 Basis Dimension        Dim             ....  182

ORBITAL ENERGIES
----------------
                 SPIN UP ORBITALS
  NO   OCC          E(Eh)            E(eV)
   0   1.0000     -19.393438      -527.7223
   1   1.0000     -10.419675      -283.5338
   2   1.0000     -10.364684      -282.0374
   3   1.0000      -1.159468       -31.5507
   4   1.0000      -0.883610       -24.0442
   5   1.0000      -0.727719       -19.8023
   6   1.0000      -0.610888       -16.6231
   7   1.0000      -0.584875       -15.9152
   8   1.0000      -0.551158       -14.9978
   9   1.0000      -0.515758       -14.0345
  10   1.0000      -0.438411       -11.9298
  11   1.0000      -0.416381       -11.3303
  12   1.0000      -0.324319        -8.8252
  13   0.0000       0.039729         1.0811
  14   0.0000       0.061637         1.6772
  15   0.0000       0.076717         2.0876
  16   0.0000       0.086515         2.3542
  17   0.0000       0.114236         3.1085

                 SPIN DOWN ORBITALS
  NO   OCC          E(Eh)            E(eV)
   0   1.0000     -19.369149      -527.0613
   1   1.0000     -10.421342      -283.5791
   2   1.0000     -10.351693      -281.6839
   3   1.0000      -1.103365       -30.0241
   4   1.0000      -0.851629       -23.1740
   5   1.0000      -0.701633       -19.0924
   6   1.0000      -0.579561       -15.7706
   7   1.0000      -0.552474       -15.0336
   8   1.0000      -0.528362       -14.3775
   9   1.0000      -0.477558       -12.9950
  10   1.0000      -0.385321       -10.4851
  11   0.0000      -0.058939        -1.6038
  12   0.0000      -0.001733        -0.0472
  13   0.0000       0.038860         1.0574
  14   0.0000       0.061572         1.6755
  15   0.0000       0.076353         2.0777

----------------------------------------------------------------------------------------------------
          SPIN FLIP ABSORPTION SPECTRUM VIA TRANSITION ELECTRIC DIPOLE MOMENTS
----------------------------------------------------------------------------------------------------
     Transition      Energy     Energy  Wavelength fosc(D2)      D2        DX        DY        DZ
                      (eV)      (cm-1)    (nm)                 (au**2)    (au)      (au)      (au)
----------------------------------------------------------------------------------------------------
  1-3A  ->  2-3A    0.243557    1964.4  5090.6   0.000064134   0.01075  -0.07743   0.06072   0.03265
  1-3A  ->  3-1A    0.951597    7675.1  1302.9   0.034385037   1.47489   0.20206  -0.58896  -1.04268

Dispersion correction             ... done (  0.2 sec)

MULLIKEN ATOMIC CHARGES AND SPIN DENSITIES
------------------------------------------
   0 O :   -0.440442   -0.602916
   1 C :    0.004259   -0.027305
   2 C :   -0.472311    0.492893
   3 H :    0.193300   -0.028211
   4 H :    0.225666    0.088329
   5 H :    0.214002    0.031781
   6 H :    0.275527    0.045428
Sum of atomic charges       :    0.0000000

LOEWDIN ATOMIC CHARGES AND SPIN DENSITIES
-----------------------------------------
   0 O :   -0.059540   -0.601557
   1 C :   -0.320144    0.040790
   2 C :    0.328486    0.451634
   3 H :    0.052696   -0.040724
   4 H :    0.048902    0.045159
   5 H :   -0.001870    0.047279
   6 H :   -0.048529    0.057418

  Mayer bond orders larger than 0.100000
B(  0-O ,  1-C ) :   0.9261 B(  0-O ,  2-C ) :   0.4275 B(  1-C ,  2-C ) :   0.8385
B(  1-C ,  3-H ) :   0.9769 B(  1-C ,  4-H ) :   0.9502 B(  2-C ,  5-H ) :   0.9719
B(  2-C ,  6-H ) :   0.9216

Dispersion correction           -0.005513719
FINAL SINGLE POINT ENERGY      -153.753089514975

DIPOLE MOMENT
-------------

Method             : TDA/CIS
Type of density    : Electron Density
Level              : Relaxed density
State              :   1
Multiplicity       :   3
Irrep              :   0
Energy             :     0.0000000000000000 Eh
Relativity type    :
Basis              : AO
                                X                 Y                 Z
Electronic contribution:     -0.248880978      -0.498290230      -2.011761088
Nuclear contribution   :      0.204299581       0.929129951       3.431220015
                        -----------------------------------------
Total Dipole Moment    :     -0.044581397       0.430839721       1.419458928
                        -----------------------------------------
Magnitude (a.u.)       :      1.484073453
Magnitude (Debye)      :      3.772214934

Rotational constants in cm-1:             1.376588             0.353183             0.308571
Rotational constants in MHz :         41269.068814         10588.150632          9250.731161

                             ****ORCA TERMINATED NORMALLY****
TOTAL RUN TIME: 0 days 0 hours 0 minutes 27 seconds 508 msec
