                         Program Version 6.0.0  -   RELEASE  -
|  1> ! EnGrad wB97M-D3BJ def2-TZVPPD
|  2> %pal nprocs 8 end%pal nprocs 16 end
|  3> %tddft
|  4>  sf true
|  5>  nroots 2 Iroot 2 end
|  6> *xyz 0 3
|  7> O   0.14205795611203 0.87968216731911 -0.00026645619327
|  8> C   0.67188309243585 -0.36919491857681 0.00015187221872
|  9> C   -0.72959746316081 -0.57722770282714 -0.00018626279098
| 10> H   1.22614697125963 -0.65030059297088 0.89788201358545
| 11> H   1.22569942497328 -0.65050764169881 -0.89786114759096
| 12> H   -1.26734466355847 -0.67640292278405 -0.92768121092234
| 13> H   -1.26664531806152 -0.67444838846143 0.92796119169338
| 14> *
| 15>
| 16>                          ****END OF INPUT****

CARTESIAN COORDINATES (ANGSTROEM)
---------------------------------
  O      0.142058    0.879682   -0.000266
  C      0.671883   -0.369195    0.000152
  C     -0.729597   -0.577228   -0.000186
  H      1.226147   -0.650301    0.897882
  H      1.225699   -0.650508   -0.897861
  H     -1.267345   -0.676403   -0.927681
  H     -1.266645   -0.674448    0.927961

 Total Charge           Charge          ....    0
 Multiplicity           Mult            ....    3
 Number of Electrons    NEL             ....   24
 Basis Dimension        Dim             ....  182

ORBITAL ENERGIES
----------------
                 SPIN UP ORBITALS
  NO   OCC          E(Eh)            E(eV)
   0   1.0000     -19.435619      -528.8701
   1   1.0000     -10.411439      -283.3096
   2   1.0000     -10.336968      -281.2832
   3   1.0000      -1.252938       -34.0942
   4   1.0000      -0.859310       -23.3830
   5   1.0000      -0.755514       -20.5586
   6   1.0000      -0.664150       -18.0724
   7   1.0000      -0.628075       -17.0908
   8   1.0000      -0.552952       -15.0466
   9   1.0000      -0.498650       -13.5690
  10   1.0000      -0.475979       -12.9520
  11   1.0000      -0.458079       -12.4650
  12   1.0000      -0.202397        -5.5075
  13   0.0000       0.039304         1.0695
  14   0.0000       0.063150         1.7184
  15   0.0000       0.071651         1.9497
  16   0.0000       0.085955         2.3390
  17   0.0000       0.113148         3.0789

                 SPIN DOWN ORBITALS
  NO   OCC          E(Eh)            E(eV)
   0   1.0000     -19.403631      -527.9996
   1   1.0000     -10.412198      -283.3303
   2   1.0000     -10.325508      -280.9714
   3   1.0000      -1.187087       -32.3023
   4   1.0000      -0.824635       -22.4395
   5   1.0000      -0.735954       -20.0263
   6   1.0000      -0.614388       -16.7183
   7   1.0000      -0.592407       -16.1202
   8   1.0000      -0.520720       -14.1695
   9   1.0000      -0.471687       -12.8352
  10   1.0000      -0.412457       -11.2235
  11   0.0000      -0.093686        -2.5493
  12   0.0000       0.035649         0.9701
  13   0.0000       0.055768         1.5175
  14   0.0000       0.060635         1.6500
  15   0.0000       0.067676         1.8416

----------------------------------------------------------------------------------------------------
          SPIN FLIP ABSORPTION SPECTRUM VIA TRANSITION ELECTRIC DIPOLE MOMENTS
----------------------------------------------------------------------------------------------------
     Transition      Energy     Energy  Wavelength fosc(D2)      D2        DX        DY        DZ
                      (eV)      (cm-1)    (nm)                 (au**2)    (au)      (au)      (au)
----------------------------------------------------------------------------------------------------
  1-3A  ->  2-3A    4.769238   38466.5   260.0   0.003535350   0.03026   0.00055   0.00040  -0.17394

Dispersion correction             ... done (  0.0 sec)

MULLIKEN ATOMIC CHARGES AND SPIN DENSITIES
------------------------------------------
   0 O :   -0.292441    0.541551
   1 C :    0.150762    0.277126
   2 C :   -0.223760   -0.382330
   3 H :    0.202982    0.021792
   4 H :    0.202605    0.021601
   5 H :   -0.020077   -0.239875
   6 H :   -0.020071   -0.239865
Sum of atomic charges       :   -0.0000000

LOEWDIN ATOMIC CHARGES AND SPIN DENSITIES
-----------------------------------------
   0 O :    0.106123    0.582498
   1 C :   -0.134644    0.044999
   2 C :    0.108936   -0.466247
   3 H :    0.032416    0.016988
   4 H :    0.032424    0.017016
   5 H :   -0.072662   -0.097686
   6 H :   -0.072593   -0.097567

  Mayer bond orders larger than 0.100000
B(  0-O ,  1-C ) :   0.7920 B(  0-O ,  2-C ) :   0.5469 B(  1-C ,  2-C ) :   0.5982
B(  1-C ,  3-H ) :   0.9890 B(  1-C ,  4-H ) :   0.9888 B(  2-C ,  5-H ) :   1.1525
B(  2-C ,  6-H ) :   1.1527 B(  5-H ,  6-H ) :   0.1777

Dispersion correction           -0.005260385
FINAL SINGLE POINT ENERGY      -153.670974221954

DIPOLE MOMENT
-------------

Method             : TDA/CIS
Type of density    : Electron Density
Level              : Relaxed density
State              :   2
Multiplicity       :   3
Irrep              :   0
Energy             :     0.0000000000000000 Eh
Relativity type    :
Basis              : AO
                                X                 Y                 Z
Electronic contribution:      0.810727522       2.452574533      -0.000553876
Nuclear contribution   :     -0.202971423      -2.477594951       0.000652280
                        -----------------------------------------
Total Dipole Moment    :      0.607756099      -0.025020418       0.000098404
                        -----------------------------------------
Magnitude (a.u.)       :      0.608270915
Magnitude (Debye)      :      1.546101796

Rotational constants in cm-1:             0.927384             0.631612             0.441924
Rotational constants in MHz :         27802.279201         18935.245785         13248.536139

                             ****ORCA TERMINATED NORMALLY****
TOTAL RUN TIME: 0 days 0 hours 0 minutes 17 seconds 761 msec
