                         Program Version 6.0.0  -   RELEASE  -
|  1> ! Engrad def2-TZVPPD wB97M-D3BJ
|  2> %pal nprocs 8 end%pal nprocs 64 end
|  3> %tddft Nroots 2 Iroot 2
|  4> sf true
|  5> end
|  6> *xyz 0 3
|  7> O   3.68271354 0.62047588 -0.28456222
|  8> O   -1.5153593 0.83835557 -2.3405662
|  9> O   0.75301903 -2.65983317 -1.50280075
| 10> O   -3.92856185 -0.70448636 1.04394213
| 11> N   0.37827696 -1.49669619 0.42764244
| 12> N   -1.8451321 0.02483333 1.5845151
| 13> N   2.19516158 -0.9652342 -0.91952719
| 14> N   -2.46007837 -0.22471097 -0.6038008
| 15> C   1.85448066 0.35321412 1.02955699
| 16> C   -0.65162691 1.25731272 -0.18185097
| 17> C   0.59464826 -0.36078372 1.27570429
| 18> C   -0.55949088 0.64925157 1.16902282
| 19> C   2.32760968 1.47656512 1.95758339
| 20> C   0.19039622 2.47505682 -0.65301815
| 21> C   2.69014878 -0.00311875 -0.03680686
| 22> C   -1.55152229 0.64281816 -1.17432494
| 23> C   1.0624795 -1.80939007 -0.77355718
| 24> C   -2.81174202 -0.31251981 0.72104104
| 25> H   0.56313622 -0.72921024 2.25391273
| 26> H   -0.31735848 1.365312 2.0196059
| 27> H   3.37571869 1.48216302 2.05302183
| 28> H   2.0387492 2.40967782 1.51239496
| 29> H   1.87848045 1.39980082 3.02685167
| 30> H   0.31691826 3.16980322 0.13124765
| 31> H   1.26932599 1.97187408 -0.84904123
| 32> H   -0.27929948 2.79965157 -1.54896878
| 33> H   -0.58955185 -1.81242022 0.68934912
| 34> H   -2.15072299 0.14109443 2.51699902
| 35> H   2.70785372 -0.96493419 -1.84487963
| 36> H   -3.32505678 -0.45288128 -1.14358714
| 37> *
| 38>
| 39>                          ****END OF INPUT****

CARTESIAN COORDINATES (ANGSTROEM)
---------------------------------
  O      3.682714    0.620476   -0.284562
  O     -1.515359    0.838356   -2.340566
  O      0.753019   -2.659833   -1.502801
  O     -3.928562   -0.704486    1.043942
  N      0.378277   -1.496696    0.427642
  N     -1.845132    0.024833    1.584515
  N      2.195162   -0.965234   -0.919527
  N     -2.460078   -0.224711   -0.603801
  C      1.854481    0.353214    1.029557
  C     -0.651627    1.257313   -0.181851
  C      0.594648   -0.360784    1.275704
  C     -0.559491    0.649252    1.169023
  C      2.327610    1.476565    1.957583
  C      0.190396    2.475057   -0.653018
  C      2.690149   -0.003119   -0.036807
  C     -1.551522    0.642818   -1.174325
  C      1.062480   -1.809390   -0.773557
  C     -2.811742   -0.312520    0.721041
  H      0.563136   -0.729210    2.253913
  H     -0.317358    1.365312    2.019606
  H      3.375719    1.482163    2.053022
  H      2.038749    2.409678    1.512395
  H      1.878480    1.399801    3.026852
  H      0.316918    3.169803    0.131248
  H      1.269326    1.971874   -0.849041
  H     -0.279299    2.799652   -1.548969
  H     -0.589552   -1.812420    0.689349
  H     -2.150723    0.141094    2.516999
  H      2.707854   -0.964934   -1.844880
  H     -3.325057   -0.452881   -1.143587

 Total Charge           Charge          ....    0
 Multiplicity           Mult            ....    3
 Number of Electrons    NEL             ....  132
 Basis Dimension        Dim             ....  882

ORBITAL ENERGIES
----------------
                 SPIN UP ORBITALS
  NO   OCC          E(Eh)            E(eV)
   0   1.0000     -19.337832      -526.2092
   1   1.0000     -19.334068      -526.1067
   2   1.0000     -19.328427      -525.9532
   3   1.0000     -19.318957      -525.6956
   4   1.0000     -14.569059      -396.4442
   5   1.0000     -14.562906      -396.2768
   6   1.0000     -14.562643      -396.2697
   7   1.0000     -14.551111      -395.9559
   8   1.0000     -10.510136      -285.9954
   9   1.0000     -10.504328      -285.8373
  10   1.0000     -10.482614      -285.2464
  11   1.0000     -10.474767      -285.0329
  12   1.0000     -10.452937      -284.4389
  13   1.0000     -10.430583      -283.8306
  14   1.0000     -10.422294      -283.6050
  15   1.0000     -10.416994      -283.4608
  16   1.0000     -10.385693      -282.6091
  17   1.0000     -10.382990      -282.5355
  18   1.0000      -1.233869       -33.5753
  19   1.0000      -1.230964       -33.4962
  20   1.0000      -1.215299       -33.0700
  21   1.0000      -1.206993       -32.8439
  22   1.0000      -1.122755       -30.5517
  23   1.0000      -1.099416       -29.9166
  24   1.0000      -1.069325       -29.0978
  25   1.0000      -1.048518       -28.5316
  26   1.0000      -0.983478       -26.7618
  27   1.0000      -0.950515       -25.8648
  28   1.0000      -0.891936       -24.2708
  29   1.0000      -0.844697       -22.9854
  30   1.0000      -0.830076       -22.5875
  31   1.0000      -0.797678       -21.7059
  32   1.0000      -0.792319       -21.5601
  33   1.0000      -0.779095       -21.2002
  34   1.0000      -0.706664       -19.2293
  35   1.0000      -0.703154       -19.1338
  36   1.0000      -0.685689       -18.6585
  37   1.0000      -0.668015       -18.1776
  38   1.0000      -0.649508       -17.6740
  39   1.0000      -0.632078       -17.1997
  40   1.0000      -0.618767       -16.8375
  41   1.0000      -0.605726       -16.4826
  42   1.0000      -0.596528       -16.2323
  43   1.0000      -0.587287       -15.9809
  44   1.0000      -0.583227       -15.8704
  45   1.0000      -0.577312       -15.7095
  46   1.0000      -0.573937       -15.6176
  47   1.0000      -0.568972       -15.4825
  48   1.0000      -0.560149       -15.2424
  49   1.0000      -0.556895       -15.1539
  50   1.0000      -0.554447       -15.0873
  51   1.0000      -0.540628       -14.7112
  52   1.0000      -0.529970       -14.4212
  53   1.0000      -0.522842       -14.2272
  54   1.0000      -0.513746       -13.9797
  55   1.0000      -0.506037       -13.7700
  56   1.0000      -0.504504       -13.7283
  57   1.0000      -0.429567       -11.6891
  58   1.0000      -0.425564       -11.5802
  59   1.0000      -0.412604       -11.2275
  60   1.0000      -0.411224       -11.1900
  61   1.0000      -0.399925       -10.8825
  62   1.0000      -0.397841       -10.8258
  63   1.0000      -0.392737       -10.6869
  64   1.0000      -0.384455       -10.4616
  65   1.0000      -0.351466        -9.5639
  66   1.0000      -0.328825        -8.9478
  67   0.0000       0.007221         0.1965
  68   0.0000       0.031462         0.8561
  69   0.0000       0.032730         0.8906
  70   0.0000       0.033926         0.9232
  71   0.0000       0.053082         1.4444

                 SPIN DOWN ORBITALS
  NO   OCC          E(Eh)            E(eV)
   0   1.0000     -19.334383      -526.1153
   1   1.0000     -19.329456      -525.9812
   2   1.0000     -19.328425      -525.9532
   3   1.0000     -19.318772      -525.6905
   4   1.0000     -14.568749      -396.4358
   5   1.0000     -14.562088      -396.2546
   6   1.0000     -14.562032      -396.2530
   7   1.0000     -14.551137      -395.9566
   8   1.0000     -10.510174      -285.9964
   9   1.0000     -10.504338      -285.8376
  10   1.0000     -10.483565      -285.2723
  11   1.0000     -10.475733      -285.0592
  12   1.0000     -10.452553      -284.4284
  13   1.0000     -10.430159      -283.8191
  14   1.0000     -10.410499      -283.2841
  15   1.0000     -10.405807      -283.1564
  16   1.0000     -10.386166      -282.6219
  17   1.0000     -10.383529      -282.5502
  18   1.0000      -1.232886       -33.5485
  19   1.0000      -1.227585       -33.4043
  20   1.0000      -1.209034       -32.8995
  21   1.0000      -1.204805       -32.7844
  22   1.0000      -1.120032       -30.4776
  23   1.0000      -1.097248       -29.8576
  24   1.0000      -1.067727       -29.0543
  25   1.0000      -1.046587       -28.4791
  26   1.0000      -0.970947       -26.4208
  27   1.0000      -0.932191       -25.3662
  28   1.0000      -0.885458       -24.0945
  29   1.0000      -0.839962       -22.8565
  30   1.0000      -0.821748       -22.3609
  31   1.0000      -0.793286       -21.5864
  32   1.0000      -0.790396       -21.5078
  33   1.0000      -0.776686       -21.1347
  34   1.0000      -0.702448       -19.1146
  35   1.0000      -0.697121       -18.9696
  36   1.0000      -0.678001       -18.4493
  37   1.0000      -0.662819       -18.0362
  38   1.0000      -0.635333       -17.2883
  39   1.0000      -0.627215       -17.0674
  40   1.0000      -0.614065       -16.7095
  41   1.0000      -0.599208       -16.3053
  42   1.0000      -0.591715       -16.1014
  43   1.0000      -0.582937       -15.8625
  44   1.0000      -0.576313       -15.6823
  45   1.0000      -0.570764       -15.5313
  46   1.0000      -0.567433       -15.4406
  47   1.0000      -0.563010       -15.3203
  48   1.0000      -0.556187       -15.1346
  49   1.0000      -0.551366       -15.0034
  50   1.0000      -0.543234       -14.7821
  51   1.0000      -0.532175       -14.4812
  52   1.0000      -0.521882       -14.2011
  53   1.0000      -0.515106       -14.0168
  54   1.0000      -0.508277       -13.8309
  55   1.0000      -0.501238       -13.6394
  56   1.0000      -0.494784       -13.4638
  57   1.0000      -0.425960       -11.5910
  58   1.0000      -0.421704       -11.4752
  59   1.0000      -0.407622       -11.0920
  60   1.0000      -0.397023       -10.8035
  61   1.0000      -0.393254       -10.7010
  62   1.0000      -0.392068       -10.6687
  63   1.0000      -0.388798       -10.5797
  64   1.0000      -0.374372       -10.1872
  65   0.0000      -0.063949        -1.7402
  66   0.0000      -0.050950        -1.3864
  67   0.0000       0.006536         0.1778
  68   0.0000       0.031299         0.8517
  69   0.0000       0.032440         0.8827

----------------------------------------------------------------------------------------------------
          SPIN FLIP ABSORPTION SPECTRUM VIA TRANSITION ELECTRIC DIPOLE MOMENTS
----------------------------------------------------------------------------------------------------
     Transition      Energy     Energy  Wavelength fosc(D2)      D2        DX        DY        DZ
                      (eV)      (cm-1)    (nm)                 (au**2)    (au)      (au)      (au)
----------------------------------------------------------------------------------------------------
  1-3A  ->  2-3A    0.058713     473.6  21117.1   0.000015500   0.01078  -0.10348   0.00195  -0.00803

Dispersion correction             ... done (  0.1 sec)

MULLIKEN ATOMIC CHARGES AND SPIN DENSITIES
------------------------------------------
   0 O :   -0.643615    0.087074
   1 O :   -0.629373   -0.063313
   2 O :   -0.555938    0.000034
   3 O :   -0.678121   -0.001781
   4 N :   -0.344495   -0.021408
   5 N :   -0.163403    0.001395
   6 N :   -0.085302    0.017009
   7 N :   -0.057128   -0.011016
   8 C :   -0.114903    0.299365
   9 C :    0.654425    0.352921
  10 C :    0.461494    0.042000
  11 C :    0.185391   -0.429223
  12 C :   -1.484119   -0.002035
  13 C :   -1.229660   -0.038777
  14 C :    0.526937   -0.003624
  15 C :   -0.126181   -0.251248
  16 C :    0.444457   -0.010973
  17 C :    0.411411    0.010390
  18 H :    0.479217    0.028433
  19 H :    0.647322   -0.029451
  20 H :    0.393414    0.005589
  21 H :    0.249355    0.011425
  22 H :    0.331421    0.003160
  23 H :    0.301687    0.012560
  24 H :    0.242055    0.009427
  25 H :    0.372342   -0.010283
  26 H :    0.170930   -0.004851
  27 H :    0.022974   -0.002392
  28 H :    0.091547   -0.001292
  29 H :    0.125861    0.000886
Sum of atomic charges       :   -0.0000000

LOEWDIN ATOMIC CHARGES AND SPIN DENSITIES
-----------------------------------------
   0 O :    0.106157    0.073556
   1 O :    0.125100   -0.056994
   2 O :    0.147084   -0.000315
   3 O :    0.069507   -0.002438
   4 N :    0.272996   -0.002305
   5 N :    0.295359   -0.001890
   6 N :    0.310441    0.013332
   7 N :    0.302227   -0.014057
   8 C :   -0.038897    0.246429
   9 C :    0.035663   -0.246453
  10 C :   -0.160471    0.017007
  11 C :   -0.111310   -0.020456
  12 C :    0.212237    0.027523
  13 C :    0.239964   -0.028708
  14 C :   -0.476719    0.044381
  15 C :   -0.456201   -0.046136
  16 C :   -0.479501   -0.000333
  17 C :   -0.516184   -0.001580
  18 H :    0.026380    0.006610
  19 H :    0.080958   -0.004112
  20 H :   -0.032773    0.003033
  21 H :   -0.025426    0.009514
  22 H :    0.053651    0.001813
  23 H :   -0.040444   -0.002557
  24 H :    0.072310   -0.014727
  25 H :   -0.031515   -0.000049
  26 H :   -0.001402   -0.000244
  27 H :   -0.044768   -0.000105
  28 H :    0.036464    0.000981
  29 H :    0.029110   -0.000720

  Mayer bond orders larger than 0.100000
B(  0-O , 14-C ) :   1.2673 B(  1-O , 15-C ) :   1.3903 B(  2-O , 16-C ) :   1.6584
B(  3-O , 17-C ) :   1.5555 B(  4-N ,  8-C ) :   0.1834 B(  4-N ,  9-C ) :   0.1356
B(  4-N , 10-C ) :   0.4620 B(  4-N , 15-C ) :   0.1050 B(  4-N , 16-C ) :   0.9361
B(  4-N , 26-H ) :   1.0118 B(  5-N , 10-C ) :   0.2853 B(  5-N , 11-C ) :   0.2971
B(  5-N , 17-C ) :   1.1880 B(  5-N , 27-H ) :   1.1392 B(  6-N ,  8-C ) :  -0.2040
B(  6-N , 10-C ) :   0.1155 B(  6-N , 14-C ) :   1.0847 B(  6-N , 16-C ) :   0.9192
B(  6-N , 28-H ) :   1.0768 B(  7-N , 15-C ) :   1.0241 B(  7-N , 17-C ) :   1.0165
B(  7-N , 29-H ) :   0.9860 B(  8-C ,  9-C ) :   0.1788 B(  8-C , 11-C ) :   0.3668
B(  8-C , 12-C ) :   0.5615 B(  8-C , 14-C ) :   0.7885 B(  8-C , 16-C ) :   0.1026
B(  8-C , 18-H ) :  -0.2571 B(  8-C , 22-H ) :  -0.1728 B(  9-C , 11-C ) :   0.7061
B(  9-C , 13-C ) :   0.4540 B(  9-C , 15-C ) :   0.5087 B(  9-C , 19-H ) :  -0.1234
B( 10-C , 11-C ) :   0.5274 B( 10-C , 12-C ) :  -0.2447 B( 10-C , 18-H ) :   0.8960
B( 10-C , 19-H ) :  -0.1387 B( 11-C , 12-C ) :   0.1403 B( 11-C , 17-C ) :  -0.1709
B( 11-C , 19-H ) :   0.7034 B( 12-C , 14-C ) :  -0.1584 B( 12-C , 20-H ) :   0.9122
B( 12-C , 21-H ) :   0.8648 B( 12-C , 22-H ) :   1.0666 B( 13-C , 23-H ) :   1.0844
B( 13-C , 24-H ) :   0.8536 B( 13-C , 25-H ) :   0.9024 B( 15-C , 17-C ) :  -0.1046

Dispersion correction           -0.058968637
FINAL SINGLE POINT ENERGY      -908.758815366705

DIPOLE MOMENT
-------------

Method             : TDA/CIS
Type of density    : Electron Density
Level              : Relaxed density
State              :   2
Multiplicity       :   3
Irrep              :   0
Energy             :     0.0000000000000000 Eh
Relativity type    :
Basis              : AO
                                X                 Y                 Z
Electronic contribution:     -4.453316060      -8.835493479      -5.839431433
Nuclear contribution   :      4.992979726      10.270008148       7.939798071
                        -----------------------------------------
Total Dipole Moment    :      0.539663666       1.434514669       2.100366638
                        -----------------------------------------
Magnitude (a.u.)       :      2.600117156
Magnitude (Debye)      :      6.608972586

Rotational constants in cm-1:             0.022161             0.011847             0.010932
Rotational constants in MHz :           664.358625           355.172005           327.740875

                             ****ORCA TERMINATED NORMALLY****
TOTAL RUN TIME: 0 days 0 hours 4 minutes 31 seconds 509 msec
