                         Program Version 6.0.0  -   RELEASE  -
|  1> ! EnGrad wB97M-D3BJ def2-TZVPPD
|  2> %pal nprocs 8 end%pal nprocs 16 end
|  3> %tddft
|  4>  sf true
|  5>  nroots 2 Iroot 1 end
|  6> *xyz 0 3
|  7> O   0.47001148412499 1.08460043226478 -0.00272275751258
|  8> C   0.60606431083772 -0.24825567750702 -0.00051431154462
|  9> C   -0.74858643395779 -0.75133893660449 0.00098426294915
| 10> H   1.15380513128582 -0.62184242196303 0.8795730235764
| 11> H   1.15279266322709 -0.62484625958387 -0.8799537598915
| 12> H   -1.31636300229444 -0.78075365571563 -0.92074957865676
| 13> H   -1.31552415322338 -0.77596348089074 0.9233831210799
| 14> *
| 15>
| 16>                          ****END OF INPUT****

CARTESIAN COORDINATES (ANGSTROEM)
---------------------------------
  O      0.470011    1.084600   -0.002723
  C      0.606064   -0.248256   -0.000514
  C     -0.748586   -0.751339    0.000984
  H      1.153805   -0.621842    0.879573
  H      1.152793   -0.624846   -0.879954
  H     -1.316363   -0.780754   -0.920750
  H     -1.315524   -0.775963    0.923383

 Total Charge           Charge          ....    0
 Multiplicity           Mult            ....    3
 Number of Electrons    NEL             ....   24
 Basis Dimension        Dim             ....  182

ORBITAL ENERGIES
----------------
                 SPIN UP ORBITALS
  NO   OCC          E(Eh)            E(eV)
   0   1.0000     -19.393856      -527.7337
   1   1.0000     -10.407436      -283.2007
   2   1.0000     -10.353814      -281.7416
   3   1.0000      -1.189713       -32.3737
   4   1.0000      -0.876826       -23.8597
   5   1.0000      -0.734581       -19.9890
   6   1.0000      -0.633074       -17.2268
   7   1.0000      -0.591408       -16.0930
   8   1.0000      -0.556742       -15.1497
   9   1.0000      -0.516427       -14.0527
  10   1.0000      -0.437014       -11.8918
  11   1.0000      -0.420822       -11.4511
  12   1.0000      -0.316435        -8.6106
  13   0.0000       0.041094         1.1182
  14   0.0000       0.063179         1.7192
  15   0.0000       0.073986         2.0133
  16   0.0000       0.087210         2.3731
  17   0.0000       0.117044         3.1849

                 SPIN DOWN ORBITALS
  NO   OCC          E(Eh)            E(eV)
   0   1.0000     -19.368427      -527.0417
   1   1.0000     -10.408771      -283.2370
   2   1.0000     -10.340947      -281.3915
   3   1.0000      -1.134013       -30.8581
   4   1.0000      -0.843250       -22.9460
   5   1.0000      -0.710429       -19.3318
   6   1.0000      -0.594859       -16.1869
   7   1.0000      -0.559007       -15.2113
   8   1.0000      -0.534765       -14.5517
   9   1.0000      -0.478455       -13.0194
  10   1.0000      -0.383361       -10.4318
  11   0.0000      -0.064055        -1.7430
  12   0.0000       0.006166         0.1678
  13   0.0000       0.040029         1.0893
  14   0.0000       0.063815         1.7365
  15   0.0000       0.073578         2.0021

----------------------------------------------------------------------------------------------------
          SPIN FLIP ABSORPTION SPECTRUM VIA TRANSITION ELECTRIC DIPOLE MOMENTS
----------------------------------------------------------------------------------------------------
     Transition      Energy     Energy  Wavelength fosc(D2)      D2        DX        DY        DZ
                      (eV)      (cm-1)    (nm)                 (au**2)    (au)      (au)      (au)
----------------------------------------------------------------------------------------------------
  1-3A  ->  2-3A    0.866438    6988.3  1431.0   0.000115849   0.00546   0.00006  -0.00015  -0.07387

Dispersion correction             ... done (  0.0 sec)

MULLIKEN ATOMIC CHARGES AND SPIN DENSITIES
------------------------------------------
   0 O :   -0.509800   -0.441704
   1 C :   -0.111348   -0.041533
   2 C :   -0.320509    0.321470
   3 H :    0.223540    0.042877
   4 H :    0.223522    0.042769
   5 H :    0.247271    0.038043
   6 H :    0.247323    0.038079
Sum of atomic charges       :   -0.0000000

LOEWDIN ATOMIC CHARGES AND SPIN DENSITIES
-----------------------------------------
   0 O :   -0.040209   -0.445796
   1 C :   -0.388914    0.026912
   2 C :    0.391975    0.328277
   3 H :    0.027378    0.008362
   4 H :    0.027374    0.008302
   5 H :   -0.008797    0.036970
   6 H :   -0.008807    0.036973

  Mayer bond orders larger than 0.100000
B(  0-O ,  1-C ) :   0.8236 B(  0-O ,  2-C ) :   0.6527 B(  1-C ,  2-C ) :   0.7551
B(  1-C ,  3-H ) :   1.0170 B(  1-C ,  4-H ) :   1.0169 B(  2-C ,  5-H ) :   0.9434
B(  2-C ,  6-H ) :   0.9435

Dispersion correction           -0.005628179
FINAL SINGLE POINT ENERGY      -153.775203180581

DIPOLE MOMENT
-------------

Method             : TDA/CIS
Type of density    : Electron Density
Level              : Relaxed density
State              :   1
Multiplicity       :   3
Irrep              :   0
Energy             :     0.0000000000000000 Eh
Relativity type    :
Basis              : AO
                                X                 Y                 Z
Electronic contribution:      0.165917192       1.376498825      -0.002416520
Nuclear contribution   :     -0.766886563      -2.829611609       0.005121773
                        -----------------------------------------
Total Dipole Moment    :     -0.600969372      -1.453112785       0.002705253
                        -----------------------------------------
Magnitude (a.u.)       :      1.572484744
Magnitude (Debye)      :      3.996938577

Rotational constants in cm-1:             1.252058             0.406655             0.348518
Rotational constants in MHz :         37535.748045         12191.223423         10448.296899

                             ****ORCA TERMINATED NORMALLY****
TOTAL RUN TIME: 0 days 0 hours 0 minutes 16 seconds 424 msec
