                         Program Version 6.0.0  -   RELEASE  -
|  1> ! Engrad def2-TZVPPD wB97M-D3BJ
|  2> %pal nprocs 8 end%pal nprocs 64 end
|  3> %tddft Nroots 2 Iroot 1
|  4> sf true
|  5> end
|  6> *xyz 0 3
|  7> O   3.64380438 0.35856532 -0.43460045
|  8> O   -1.18458385 1.21793616 -2.61973494
|  9> O   0.47903059 -2.74724416 -0.79718849
| 10> O   -3.0665952 -1.7138752 0.20894124
| 11> N   0.33551791 -1.30387359 0.9543356
| 12> N   -2.0638994 0.12410556 1.10444156
| 13> N   1.74832813 -0.84844025 -0.82027397
| 14> N   -1.74659364 -0.41794439 -1.1302464
| 15> C   1.96575042 0.39299536 1.22625034
| 16> C   -1.01019073 1.69536636 -0.31073108
| 17> C   0.43672254 0.05059148 1.44588574
| 18> C   -0.88640685 0.96642326 1.03714197
| 19> C   2.7651723 1.00978154 2.29269942
| 20> C   -1.06119629 3.15861037 -0.40528774
| 21> C   2.5425914 0.00741267 -0.03970606
| 22> C   -1.30341684 0.86446692 -1.46281485
| 23> C   0.81993209 -1.71373069 -0.26520891
| 24> C   -2.344566 -0.75105513 0.08032246
| 25> H   0.30174117 -0.01200062 2.52407548
| 26> H   -0.95224524 1.71607142 1.81826475
| 27> H   3.80738655 1.08362343 1.99490217
| 28> H   2.40032779 2.00905462 2.55588316
| 29> H   2.67892241 0.409351 3.21722452
| 30> H   -2.00832576 3.53354408 0.017719
| 31> H   -0.26695401 3.63203718 0.18182219
| 32> H   -1.00554987 3.47358894 -1.44120102
| 33> H   -0.32535142 -1.94219818 1.3691156
| 34> H   -2.48253407 -0.10539147 1.98521104
| 35> H   2.16270848 -1.16284089 -1.67384414
| 36> H   -1.93972979 -1.04889933 -1.89309157
| 37> *
| 38>
| 39>                          ****END OF INPUT****

CARTESIAN COORDINATES (ANGSTROEM)
---------------------------------
  O      3.643804    0.358565   -0.434600
  O     -1.184584    1.217936   -2.619735
  O      0.479031   -2.747244   -0.797188
  O     -3.066595   -1.713875    0.208941
  N      0.335518   -1.303874    0.954336
  N     -2.063899    0.124106    1.104442
  N      1.748328   -0.848440   -0.820274
  N     -1.746594   -0.417944   -1.130246
  C      1.965750    0.392995    1.226250
  C     -1.010191    1.695366   -0.310731
  C      0.436723    0.050591    1.445886
  C     -0.886407    0.966423    1.037142
  C      2.765172    1.009782    2.292699
  C     -1.061196    3.158610   -0.405288
  C      2.542591    0.007413   -0.039706
  C     -1.303417    0.864467   -1.462815
  C      0.819932   -1.713731   -0.265209
  C     -2.344566   -0.751055    0.080322
  H      0.301741   -0.012001    2.524075
  H     -0.952245    1.716071    1.818265
  H      3.807387    1.083623    1.994902
  H      2.400328    2.009055    2.555883
  H      2.678922    0.409351    3.217225
  H     -2.008326    3.533544    0.017719
  H     -0.266954    3.632037    0.181822
  H     -1.005550    3.473589   -1.441201
  H     -0.325351   -1.942198    1.369116
  H     -2.482534   -0.105391    1.985211
  H      2.162708   -1.162841   -1.673844
  H     -1.939730   -1.048899   -1.893092

 Total Charge           Charge          ....    0
 Multiplicity           Mult            ....    3
 Number of Electrons    NEL             ....  132
 Basis Dimension        Dim             ....  882

ORBITAL ENERGIES
----------------
                 SPIN UP ORBITALS
  NO   OCC          E(Eh)            E(eV)
   0   1.0000     -19.337100      -526.1892
   1   1.0000     -19.332152      -526.0546
   2   1.0000     -19.320568      -525.7394
   3   1.0000     -19.315378      -525.5981
   4   1.0000     -14.563280      -396.2870
   5   1.0000     -14.557574      -396.1317
   6   1.0000     -14.557235      -396.1225
   7   1.0000     -14.555297      -396.0698
   8   1.0000     -10.504250      -285.8352
   9   1.0000     -10.499353      -285.7019
  10   1.0000     -10.480838      -285.1981
  11   1.0000     -10.476888      -285.0906
  12   1.0000     -10.451076      -284.3882
  13   1.0000     -10.449690      -284.3505
  14   1.0000     -10.426209      -283.7116
  15   1.0000     -10.415058      -283.4081
  16   1.0000     -10.377689      -282.3913
  17   1.0000     -10.372372      -282.2466
  18   1.0000      -1.219582       -33.1865
  19   1.0000      -1.214672       -33.0529
  20   1.0000      -1.195040       -32.5187
  21   1.0000      -1.194027       -32.4911
  22   1.0000      -1.115822       -30.3631
  23   1.0000      -1.097142       -29.8547
  24   1.0000      -1.062566       -28.9139
  25   1.0000      -1.053160       -28.6579
  26   1.0000      -0.965552       -26.2740
  27   1.0000      -0.955499       -26.0005
  28   1.0000      -0.883780       -24.0489
  29   1.0000      -0.839891       -22.8546
  30   1.0000      -0.826916       -22.5015
  31   1.0000      -0.804013       -21.8783
  32   1.0000      -0.781192       -21.2573
  33   1.0000      -0.774514       -21.0756
  34   1.0000      -0.696502       -18.9528
  35   1.0000      -0.692508       -18.8441
  36   1.0000      -0.675319       -18.3764
  37   1.0000      -0.660871       -17.9832
  38   1.0000      -0.654038       -17.7973
  39   1.0000      -0.641480       -17.4556
  40   1.0000      -0.619669       -16.8621
  41   1.0000      -0.602093       -16.3838
  42   1.0000      -0.593796       -16.1580
  43   1.0000      -0.586452       -15.9582
  44   1.0000      -0.571683       -15.5563
  45   1.0000      -0.568496       -15.4696
  46   1.0000      -0.561704       -15.2847
  47   1.0000      -0.559116       -15.2143
  48   1.0000      -0.556355       -15.1392
  49   1.0000      -0.549005       -14.9392
  50   1.0000      -0.545828       -14.8527
  51   1.0000      -0.541995       -14.7484
  52   1.0000      -0.535088       -14.5605
  53   1.0000      -0.520725       -14.1696
  54   1.0000      -0.514969       -14.0130
  55   1.0000      -0.505421       -13.7532
  56   1.0000      -0.489530       -13.3208
  57   1.0000      -0.422102       -11.4860
  58   1.0000      -0.419110       -11.4046
  59   1.0000      -0.415955       -11.3187
  60   1.0000      -0.399719       -10.8769
  61   1.0000      -0.399285       -10.8651
  62   1.0000      -0.390728       -10.6323
  63   1.0000      -0.389091       -10.5877
  64   1.0000      -0.377496       -10.2722
  65   1.0000      -0.340206        -9.2575
  66   1.0000      -0.331898        -9.0314
  67   0.0000       0.004447         0.1210
  68   0.0000       0.027029         0.7355
  69   0.0000       0.031413         0.8548
  70   0.0000       0.038587         1.0500
  71   0.0000       0.055015         1.4970

                 SPIN DOWN ORBITALS
  NO   OCC          E(Eh)            E(eV)
   0   1.0000     -19.332056      -526.0520
   1   1.0000     -19.327778      -525.9356
   2   1.0000     -19.320319      -525.7326
   3   1.0000     -19.315068      -525.5897
   4   1.0000     -14.562460      -396.2647
   5   1.0000     -14.557335      -396.1252
   6   1.0000     -14.556979      -396.1155
   7   1.0000     -14.554588      -396.0505
   8   1.0000     -10.504265      -285.8356
   9   1.0000     -10.499371      -285.7024
  10   1.0000     -10.481931      -285.2278
  11   1.0000     -10.477918      -285.1187
  12   1.0000     -10.451176      -284.3910
  13   1.0000     -10.449850      -284.3549
  14   1.0000     -10.414707      -283.3986
  15   1.0000     -10.403392      -283.0907
  16   1.0000     -10.378284      -282.4075
  17   1.0000     -10.372962      -282.2626
  18   1.0000      -1.217871       -33.1400
  19   1.0000      -1.212216       -32.9861
  20   1.0000      -1.189613       -32.3710
  21   1.0000      -1.188705       -32.3463
  22   1.0000      -1.113359       -30.2960
  23   1.0000      -1.094513       -29.7832
  24   1.0000      -1.060915       -28.8690
  25   1.0000      -1.051571       -28.6147
  26   1.0000      -0.950903       -25.8754
  27   1.0000      -0.938611       -25.5409
  28   1.0000      -0.880250       -23.9528
  29   1.0000      -0.834394       -22.7050
  30   1.0000      -0.818331       -22.2679
  31   1.0000      -0.798968       -21.7410
  32   1.0000      -0.779896       -21.2220
  33   1.0000      -0.772965       -21.0335
  34   1.0000      -0.690017       -18.7763
  35   1.0000      -0.686024       -18.6677
  36   1.0000      -0.670613       -18.2483
  37   1.0000      -0.655520       -17.8376
  38   1.0000      -0.644035       -17.5251
  39   1.0000      -0.637237       -17.3401
  40   1.0000      -0.616943       -16.7879
  41   1.0000      -0.597375       -16.2554
  42   1.0000      -0.584245       -15.8981
  43   1.0000      -0.577289       -15.7088
  44   1.0000      -0.566514       -15.4156
  45   1.0000      -0.560033       -15.2393
  46   1.0000      -0.556282       -15.1372
  47   1.0000      -0.553628       -15.0650
  48   1.0000      -0.545670       -14.8484
  49   1.0000      -0.542150       -14.7527
  50   1.0000      -0.540622       -14.7111
  51   1.0000      -0.533504       -14.5174
  52   1.0000      -0.529354       -14.4045
  53   1.0000      -0.508922       -13.8485
  54   1.0000      -0.505913       -13.7666
  55   1.0000      -0.499270       -13.5858
  56   1.0000      -0.483318       -13.1517
  57   1.0000      -0.417169       -11.3517
  58   1.0000      -0.415971       -11.3191
  59   1.0000      -0.407598       -11.0913
  60   1.0000      -0.388478       -10.5710
  61   1.0000      -0.387305       -10.5391
  62   1.0000      -0.384820       -10.4715
  63   1.0000      -0.383639       -10.4393
  64   1.0000      -0.371639       -10.1128
  65   0.0000      -0.057241        -1.5576
  66   0.0000      -0.048454        -1.3185
  67   0.0000       0.004218         0.1148
  68   0.0000       0.026823         0.7299
  69   0.0000       0.031269         0.8509

----------------------------------------------------------------------------------------------------
          SPIN FLIP ABSORPTION SPECTRUM VIA TRANSITION ELECTRIC DIPOLE MOMENTS
----------------------------------------------------------------------------------------------------
     Transition      Energy     Energy  Wavelength fosc(D2)      D2        DX        DY        DZ
                      (eV)      (cm-1)    (nm)                 (au**2)    (au)      (au)      (au)
----------------------------------------------------------------------------------------------------
  1-3A  ->  2-3A    0.005481      44.2  226207.0   0.000000002   0.00002  -0.00074  -0.00325   0.00215

Dispersion correction             ... done (  0.1 sec)

MULLIKEN ATOMIC CHARGES AND SPIN DENSITIES
------------------------------------------
   0 O :   -0.667808   -0.179378
   1 O :   -0.664482    0.154911
   2 O :   -0.659453   -0.011413
   3 O :   -0.643023    0.007230
   4 N :   -0.269840   -0.017086
   5 N :   -0.286260    0.019324
   6 N :    0.087701   -0.005445
   7 N :    0.056197    0.017690
   8 C :    1.144153    0.281957
   9 C :    0.038385    0.418415
  10 C :   -0.195176   -0.369977
  11 C :    0.643091    0.054657
  12 C :   -1.334571   -0.007189
  13 C :   -1.501328    0.006892
  14 C :   -0.192845   -0.565308
  15 C :    0.592897    0.152374
  16 C :    0.367787    0.031059
  17 C :    0.356071   -0.012140
  18 H :    0.522430   -0.038723
  19 H :    0.405613    0.021066
  20 H :    0.315219   -0.014797
  21 H :    0.305475   -0.003867
  22 H :    0.338637    0.001046
  23 H :    0.336578    0.033470
  24 H :    0.303076    0.010310
  25 H :    0.344766    0.012477
  26 H :    0.081347   -0.003345
  27 H :    0.092509    0.001910
  28 H :    0.056549    0.004477
  29 H :    0.026305   -0.000596
Sum of atomic charges       :    0.0000000

LOEWDIN ATOMIC CHARGES AND SPIN DENSITIES
-----------------------------------------
   0 O :    0.078322   -0.164904
   1 O :    0.101204    0.140321
   2 O :    0.090601   -0.011214
   3 O :    0.093274    0.007246
   4 N :    0.251523   -0.016526
   5 N :    0.265818    0.021709
   6 N :    0.330848   -0.007031
   7 N :    0.323869    0.010768
   8 C :    0.028095   -0.494438
   9 C :   -0.023445    0.515038
  10 C :   -0.046775   -0.019647
  11 C :   -0.060268    0.028186
  12 C :    0.172681   -0.082446
  13 C :    0.177990    0.083509
  14 C :   -0.414492   -0.093130
  15 C :   -0.401680    0.080711
  16 C :   -0.495094   -0.001586
  17 C :   -0.495328    0.000986
  18 H :    0.030751   -0.000116
  19 H :    0.036040   -0.001024
  20 H :   -0.002612    0.001327
  21 H :    0.011046   -0.022797
  22 H :    0.018946   -0.021415
  23 H :    0.017886    0.030336
  24 H :    0.003554    0.014174
  25 H :   -0.005169    0.001021
  26 H :   -0.027356   -0.001777
  27 H :   -0.032869    0.002348
  28 H :   -0.021505   -0.000592
  29 H :   -0.005853    0.000962

  Mayer bond orders larger than 0.100000
B(  0-O , 14-C ) :   1.4163 B(  1-O , 15-C ) :   1.4347 B(  2-O , 16-C ) :   1.4987
B(  3-O , 17-C ) :   1.5531 B(  4-N ,  8-C ) :   0.1569 B(  4-N , 10-C ) :   0.2615
B(  4-N , 16-C ) :   1.0306 B(  4-N , 26-H ) :   1.0811 B(  5-N ,  9-C ) :   0.3273
B(  5-N , 10-C ) :   0.1938 B(  5-N , 11-C ) :   0.1203 B(  5-N , 17-C ) :   1.0984
B(  5-N , 27-H ) :   1.0176 B(  6-N , 14-C ) :   0.9942 B(  6-N , 16-C ) :   1.0167
B(  6-N , 28-H ) :   1.0526 B(  7-N , 11-C ) :   0.1003 B(  7-N , 15-C ) :   0.9546
B(  7-N , 17-C ) :   1.0171 B(  7-N , 29-H ) :   1.0867 B(  8-C , 10-C ) :   0.2787
B(  8-C , 12-C ) :   0.3790 B(  8-C , 14-C ) :   0.5045 B(  8-C , 16-C ) :   0.1083
B(  8-C , 20-H ) :  -0.1089 B(  9-C , 10-C ) :   0.3014 B(  9-C , 11-C ) :  -0.4122
B(  9-C , 13-C ) :   0.4512 B(  9-C , 15-C ) :   0.7102 B(  9-C , 17-C ) :   0.1110
B(  9-C , 19-H ) :  -0.1241 B(  9-C , 25-H ) :  -0.1068 B( 10-C , 11-C ) :   0.5579
B( 10-C , 14-C ) :   0.1164 B( 10-C , 16-C ) :  -0.1574 B( 10-C , 18-H ) :   0.7554
B( 10-C , 19-H ) :  -0.1299 B( 11-C , 17-C ) :  -0.1551 B( 11-C , 19-H ) :   1.0244
B( 12-C , 20-H ) :   1.0058 B( 12-C , 21-H ) :   0.8769 B( 12-C , 22-H ) :   0.9170
B( 13-C , 15-C ) :  -0.1110 B( 13-C , 23-H ) :   0.9011 B( 13-C , 24-H ) :   0.9545
B( 13-C , 25-H ) :   0.9439 B( 14-C , 16-C ) :  -0.1067

Dispersion correction           -0.056258766
FINAL SINGLE POINT ENERGY      -908.783107517400

DIPOLE MOMENT
-------------

Method             : TDA/CIS
Type of density    : Electron Density
Level              : Relaxed density
State              :   1
Multiplicity       :   3
Irrep              :   0
Energy             :     0.0000000000000000 Eh
Relativity type    :
Basis              : AO
                                X                 Y                 Z
Electronic contribution:     -2.391039239      -9.065918073      -7.317542802
Nuclear contribution   :      2.245499491      10.836128181      10.069787270
                        -----------------------------------------
Total Dipole Moment    :     -0.145539748       1.770210108       2.752244468
                        -----------------------------------------
Magnitude (a.u.)       :      3.275618302
Magnitude (Debye)      :      8.325960048

Rotational constants in cm-1:             0.019637             0.012894             0.011421
Rotational constants in MHz :           588.709595           386.561767           342.395867

                             ****ORCA TERMINATED NORMALLY****
TOTAL RUN TIME: 0 days 0 hours 4 minutes 24 seconds 626 msec
