                         Program Version 6.0.0  -   RELEASE  -
|  1> ! Engrad def2-TZVPPD wB97M-D3BJ
|  2> %pal nprocs 8 end%pal nprocs 64 end
|  3> %tddft
|  4>  Iroot 2 Nroots 3
|  5> sf true
|  6> end
|  7> *xyz 0 3
|  8> O   3.5899738 0.28183901 0.54106094
|  9> O   -0.7346114 0.94979794 -2.85627489
| 10> O   0.58580048 -2.79471237 -0.98614875
| 11> O   -3.90945016 -0.72178543 -0.00310817
| 12> N   -0.00910889 -1.4603499 0.71781869
| 13> N   -2.18927034 0.49414013 0.7782815
| 14> N   2.11830256 -1.28207263 -0.22158236
| 15> N   -2.07891851 -0.21391978 -1.3693552
| 16> C   1.50825252 0.27287503 1.58625099
| 17> C   -0.37714701 1.34032389 -0.60162816
| 18> C   0.08304369 -0.25716163 1.47459808
| 19> C   -0.77189515 0.81280474 0.77640489
| 20> C   1.83392874 1.40464914 2.491875
| 21> C   0.77650185 2.22154066 -0.88149037
| 22> C   2.48242727 -0.24169552 0.55948283
| 23> C   -1.03023126 0.69328546 -1.68562519
| 24> C   0.832884 -1.87446254 -0.24150359
| 25> C   -2.81522581 -0.20905261 -0.14811654
| 26> H   -0.34278305 -0.32203971 2.50686204
| 27> H   -0.72245058 1.71414048 1.45285317
| 28> H   2.60829371 2.00179467 2.07606523
| 29> H   0.92205899 1.89537937 2.78483304
| 30> H   2.27063417 1.02693196 3.42034107
| 31> H   1.69512371 1.68263421 -1.22100247
| 32> H   0.59957448 3.01859253 -1.62439176
| 33> H   1.1195951 2.72001159 -0.04285704
| 34> H   -0.90533786 -1.84743068 0.50398199
| 35> H   -2.67065846 0.43150139 1.65150623
| 36> H   2.78696701 -1.62768869 -0.79642799
| 37> H   -2.31916403 -0.8700351 -2.14895883
| 38> *
| 39>
| 40>                          ****END OF INPUT****

CARTESIAN COORDINATES (ANGSTROEM)
---------------------------------
  O      3.589974    0.281839    0.541061
  O     -0.734611    0.949798   -2.856275
  O      0.585800   -2.794712   -0.986149
  O     -3.909450   -0.721785   -0.003108
  N     -0.009109   -1.460350    0.717819
  N     -2.189270    0.494140    0.778281
  N      2.118303   -1.282073   -0.221582
  N     -2.078919   -0.213920   -1.369355
  C      1.508253    0.272875    1.586251
  C     -0.377147    1.340324   -0.601628
  C      0.083044   -0.257162    1.474598
  C     -0.771895    0.812805    0.776405
  C      1.833929    1.404649    2.491875
  C      0.776502    2.221541   -0.881490
  C      2.482427   -0.241696    0.559483
  C     -1.030231    0.693285   -1.685625
  C      0.832884   -1.874463   -0.241504
  C     -2.815226   -0.209053   -0.148117
  H     -0.342783   -0.322040    2.506862
  H     -0.722451    1.714140    1.452853
  H      2.608294    2.001795    2.076065
  H      0.922059    1.895379    2.784833
  H      2.270634    1.026932    3.420341
  H      1.695124    1.682634   -1.221002
  H      0.599574    3.018593   -1.624392
  H      1.119595    2.720012   -0.042857
  H     -0.905338   -1.847431    0.503982
  H     -2.670658    0.431501    1.651506
  H      2.786967   -1.627689   -0.796428
  H     -2.319164   -0.870035   -2.148959

 Total Charge           Charge          ....    0
 Multiplicity           Mult            ....    3
 Number of Electrons    NEL             ....  132
 Basis Dimension        Dim             ....  882

ORBITAL ENERGIES
----------------
                 SPIN UP ORBITALS
  NO   OCC          E(Eh)            E(eV)
   0   1.0000     -19.335716      -526.1516
   1   1.0000     -19.333465      -526.0903
   2   1.0000     -19.326267      -525.8945
   3   1.0000     -19.322605      -525.7948
   4   1.0000     -14.569621      -396.4596
   5   1.0000     -14.567682      -396.4068
   6   1.0000     -14.566273      -396.3684
   7   1.0000     -14.560873      -396.2215
   8   1.0000     -10.513760      -286.0939
   9   1.0000     -10.506648      -285.9004
  10   1.0000     -10.487650      -285.3835
  11   1.0000     -10.477988      -285.1206
  12   1.0000     -10.454283      -284.4755
  13   1.0000     -10.451502      -284.3998
  14   1.0000     -10.426433      -283.7177
  15   1.0000     -10.425210      -283.6844
  16   1.0000     -10.379439      -282.4389
  17   1.0000     -10.370837      -282.2048
  18   1.0000      -1.229655       -33.4606
  19   1.0000      -1.217445       -33.1284
  20   1.0000      -1.199303       -32.6347
  21   1.0000      -1.190439       -32.3935
  22   1.0000      -1.130731       -30.7688
  23   1.0000      -1.108561       -30.1655
  24   1.0000      -1.082247       -29.4494
  25   1.0000      -1.049269       -28.5520
  26   1.0000      -0.988447       -26.8970
  27   1.0000      -0.956577       -26.0298
  28   1.0000      -0.901723       -24.5371
  29   1.0000      -0.851942       -23.1825
  30   1.0000      -0.830627       -22.6025
  31   1.0000      -0.808230       -21.9930
  32   1.0000      -0.795073       -21.6350
  33   1.0000      -0.780657       -21.2427
  34   1.0000      -0.709454       -19.3052
  35   1.0000      -0.705115       -19.1872
  36   1.0000      -0.693641       -18.8749
  37   1.0000      -0.683493       -18.5988
  38   1.0000      -0.665755       -18.1161
  39   1.0000      -0.642269       -17.4770
  40   1.0000      -0.623721       -16.9723
  41   1.0000      -0.609580       -16.5875
  42   1.0000      -0.592650       -16.1268
  43   1.0000      -0.589439       -16.0395
  44   1.0000      -0.575702       -15.6656
  45   1.0000      -0.573734       -15.6121
  46   1.0000      -0.569223       -15.4893
  47   1.0000      -0.566150       -15.4057
  48   1.0000      -0.563894       -15.3443
  49   1.0000      -0.559938       -15.2367
  50   1.0000      -0.553048       -15.0492
  51   1.0000      -0.540236       -14.7006
  52   1.0000      -0.537876       -14.6363
  53   1.0000      -0.531934       -14.4747
  54   1.0000      -0.515783       -14.0352
  55   1.0000      -0.509579       -13.8663
  56   1.0000      -0.494392       -13.4531
  57   1.0000      -0.425916       -11.5898
  58   1.0000      -0.420079       -11.4309
  59   1.0000      -0.415747       -11.3131
  60   1.0000      -0.410882       -11.1807
  61   1.0000      -0.400777       -10.9057
  62   1.0000      -0.397316       -10.8115
  63   1.0000      -0.392012       -10.6672
  64   1.0000      -0.386952       -10.5295
  65   1.0000      -0.350836        -9.5467
  66   1.0000      -0.332314        -9.0427
  67   0.0000       0.006646         0.1808
  68   0.0000       0.030012         0.8167
  69   0.0000       0.031451         0.8558
  70   0.0000       0.035527         0.9667
  71   0.0000       0.054591         1.4855

                 SPIN DOWN ORBITALS
  NO   OCC          E(Eh)            E(eV)
   0   1.0000     -19.330306      -526.0044
   1   1.0000     -19.329954      -525.9948
   2   1.0000     -19.326236      -525.8936
   3   1.0000     -19.322409      -525.7895
   4   1.0000     -14.569033      -396.4436
   5   1.0000     -14.567660      -396.4062
   6   1.0000     -14.565980      -396.3605
   7   1.0000     -14.560427      -396.2094
   8   1.0000     -10.513801      -286.0951
   9   1.0000     -10.506688      -285.9015
  10   1.0000     -10.488662      -285.4110
  11   1.0000     -10.479186      -285.1531
  12   1.0000     -10.454160      -284.4722
  13   1.0000     -10.451038      -284.3872
  14   1.0000     -10.414560      -283.3946
  15   1.0000     -10.414099      -283.3821
  16   1.0000     -10.379997      -282.4541
  17   1.0000     -10.371405      -282.2203
  18   1.0000      -1.228737       -33.4356
  19   1.0000      -1.216340       -33.0983
  20   1.0000      -1.195072       -32.5196
  21   1.0000      -1.183070       -32.1930
  22   1.0000      -1.128781       -30.7157
  23   1.0000      -1.106933       -30.1212
  24   1.0000      -1.080621       -29.4052
  25   1.0000      -1.047396       -28.5011
  26   1.0000      -0.976343       -26.5677
  27   1.0000      -0.939341       -25.5608
  28   1.0000      -0.895828       -24.3767
  29   1.0000      -0.847090       -23.0505
  30   1.0000      -0.821607       -22.3571
  31   1.0000      -0.803698       -21.8697
  32   1.0000      -0.793572       -21.5942
  33   1.0000      -0.779068       -21.1995
  34   1.0000      -0.704223       -19.1629
  35   1.0000      -0.698135       -18.9972
  36   1.0000      -0.688559       -18.7366
  37   1.0000      -0.676653       -18.4127
  38   1.0000      -0.658602       -17.9215
  39   1.0000      -0.636655       -17.3243
  40   1.0000      -0.619134       -16.8475
  41   1.0000      -0.603948       -16.4343
  42   1.0000      -0.587631       -15.9903
  43   1.0000      -0.584236       -15.8979
  44   1.0000      -0.572630       -15.5820
  45   1.0000      -0.565966       -15.4007
  46   1.0000      -0.563429       -15.3317
  47   1.0000      -0.559647       -15.2288
  48   1.0000      -0.555196       -15.1076
  49   1.0000      -0.546379       -14.8677
  50   1.0000      -0.543075       -14.7778
  51   1.0000      -0.534807       -14.5528
  52   1.0000      -0.530757       -14.4426
  53   1.0000      -0.524316       -14.2674
  54   1.0000      -0.508635       -13.8407
  55   1.0000      -0.498957       -13.5773
  56   1.0000      -0.489160       -13.3107
  57   1.0000      -0.422025       -11.4839
  58   1.0000      -0.416372       -11.3301
  59   1.0000      -0.410664       -11.1747
  60   1.0000      -0.401603       -10.9282
  61   1.0000      -0.392067       -10.6687
  62   1.0000      -0.387594       -10.5470
  63   1.0000      -0.386080       -10.5058
  64   1.0000      -0.377857       -10.2820
  65   0.0000      -0.066946        -1.8217
  66   0.0000      -0.051819        -1.4101
  67   0.0000       0.006191         0.1685
  68   0.0000       0.029674         0.8075
  69   0.0000       0.031224         0.8496

----------------------------------------------------------------------------------------------------
          SPIN FLIP ABSORPTION SPECTRUM VIA TRANSITION ELECTRIC DIPOLE MOMENTS
----------------------------------------------------------------------------------------------------
     Transition      Energy     Energy  Wavelength fosc(D2)      D2        DX        DY        DZ
                      (eV)      (cm-1)    (nm)                 (au**2)    (au)      (au)      (au)
----------------------------------------------------------------------------------------------------
  1-3A  ->  2-3A    0.028034     226.1  44226.1   0.000002319   0.00338  -0.05434   0.01375  -0.01531
  1-3A  ->  3-3A    1.818004   14663.2   682.0   0.000781271   0.01754  -0.02739  -0.01603   0.12858

Dispersion correction             ... done (  0.1 sec)

MULLIKEN ATOMIC CHARGES AND SPIN DENSITIES
------------------------------------------
   0 O :   -0.682151   -0.096922
   1 O :   -0.656297    0.150748
   2 O :   -0.654236    0.001059
   3 O :   -0.652088    0.001135
   4 N :   -0.172065   -0.009821
   5 N :   -0.238309    0.006984
   6 N :    0.110436   -0.011831
   7 N :   -0.001004    0.014189
   8 C :    1.023061    0.194563
   9 C :   -0.153884    0.333344
  10 C :    0.016193   -0.265140
  11 C :    0.571866    0.011860
  12 C :   -1.437103   -0.088826
  13 C :   -1.492624   -0.020880
  14 C :   -0.037416   -0.395625
  15 C :    0.292610    0.040159
  16 C :    0.451614    0.038540
  17 C :    0.421226   -0.002528
  18 H :    0.442008   -0.040925
  19 H :    0.633480    0.050501
  20 H :    0.328849   -0.002511
  21 H :    0.347448    0.000304
  22 H :    0.399769    0.015257
  23 H :    0.250393    0.038467
  24 H :    0.360303    0.014623
  25 H :    0.388743    0.012689
  26 H :    0.068572    0.004477
  27 H :    0.045452    0.000301
  28 H :   -0.068478    0.006332
  29 H :    0.093633   -0.000522
Sum of atomic charges       :   -0.0000000

LOEWDIN ATOMIC CHARGES AND SPIN DENSITIES
-----------------------------------------
   0 O :    0.063233   -0.085583
   1 O :    0.089139    0.131484
   2 O :    0.100490    0.000984
   3 O :    0.082815    0.001215
   4 N :    0.291118   -0.000370
   5 N :    0.273925   -0.000138
   6 N :    0.377388   -0.016348
   7 N :    0.306343    0.011589
   8 C :    0.024722   -0.383016
   9 C :    0.002622    0.364261
  10 C :   -0.125592   -0.032602
  11 C :   -0.117857    0.018609
  12 C :    0.195113   -0.057497
  13 C :    0.202550    0.051751
  14 C :   -0.420959   -0.059823
  15 C :   -0.392126    0.057447
  16 C :   -0.459160    0.000965
  17 C :   -0.513707   -0.000055
  18 H :    0.079818   -0.008283
  19 H :    0.065107    0.007596
  20 H :   -0.015415   -0.005035
  21 H :   -0.015102   -0.003357
  22 H :    0.019970   -0.021004
  23 H :    0.035547    0.019985
  24 H :    0.027437    0.008994
  25 H :   -0.054950   -0.000464
  26 H :   -0.039021    0.000072
  27 H :   -0.027011   -0.000325
  28 H :   -0.079573   -0.001766
  29 H :    0.023136    0.000717

  Mayer bond orders larger than 0.100000
B(  0-O , 14-C ) :   1.4347 B(  1-O , 15-C ) :   1.3277 B(  2-O , 16-C ) :   1.5124
B(  3-O , 17-C ) :   1.5928 B(  4-N ,  8-C ) :   0.1167 B(  4-N ,  9-C ) :   0.1214
B(  4-N , 10-C ) :   0.4614 B(  4-N , 16-C ) :   1.0835 B(  4-N , 26-H ) :   1.0090
B(  5-N ,  9-C ) :   0.2507 B(  5-N , 10-C ) :   0.1094 B(  5-N , 17-C ) :   1.1966
B(  5-N , 27-H ) :   1.0766 B(  6-N , 14-C ) :   1.0454 B(  6-N , 16-C ) :   0.9061
B(  6-N , 28-H ) :   1.2010 B(  7-N , 11-C ) :   0.1283 B(  7-N , 15-C ) :   1.0572
B(  7-N , 17-C ) :   0.8993 B(  7-N , 29-H ) :   1.0749 B(  8-C , 10-C ) :   0.6687
B(  8-C , 11-C ) :   0.2210 B(  8-C , 12-C ) :   0.3763 B(  8-C , 14-C ) :   0.2974
B(  8-C , 18-H ) :  -0.1052 B(  9-C , 10-C ) :   0.1186 B(  9-C , 11-C ) :  -0.1871
B(  9-C , 13-C ) :   0.2835 B(  9-C , 15-C ) :   1.0303 B(  9-C , 19-H ) :  -0.4219
B(  9-C , 25-H ) :  -0.1551 B( 10-C , 11-C ) :   0.5993 B( 10-C , 12-C ) :  -0.1104
B( 10-C , 14-C ) :   0.2825 B( 10-C , 16-C ) :  -0.1400 B( 10-C , 18-H ) :   0.8473
B( 11-C , 13-C ) :  -0.1528 B( 11-C , 15-C ) :  -0.2345 B( 11-C , 17-C ) :  -0.2205
B( 11-C , 18-H ) :  -0.1248 B( 11-C , 19-H ) :   0.8660 B( 12-C , 20-H ) :   0.9371
B( 12-C , 21-H ) :   0.9282 B( 12-C , 22-H ) :   0.8609 B( 13-C , 23-H ) :   0.8882
B( 13-C , 24-H ) :   0.9416 B( 13-C , 25-H ) :   1.0219

Dispersion correction           -0.059134352
FINAL SINGLE POINT ENERGY      -908.774758214159

DIPOLE MOMENT
-------------

Method             : TDA/CIS
Type of density    : Electron Density
Level              : Relaxed density
State              :   2
Multiplicity       :   3
Irrep              :   0
Energy             :     0.0000000000000000 Eh
Relativity type    :
Basis              : AO
                                X                 Y                 Z
Electronic contribution:     -4.562388533      -8.394020350      -5.912077682
Nuclear contribution   :      4.817104938       9.669826536       8.234241118
                        -----------------------------------------
Total Dipole Moment    :      0.254716405       1.275806186       2.322163436
                        -----------------------------------------
Magnitude (a.u.)       :      2.661767250
Magnitude (Debye)      :      6.765674674

Rotational constants in cm-1:             0.021671             0.012115             0.011702
Rotational constants in MHz :           649.680047           363.210543           350.814669

                             ****ORCA TERMINATED NORMALLY****
TOTAL RUN TIME: 0 days 0 hours 4 minutes 46 seconds 8 msec
