                         Program Version 6.0.0  -   RELEASE  -
|  1> ! Engrad def2-TZVPPD wB97M-D3BJ
|  2> %pal nprocs 8 end%pal nprocs 32 end
|  3> %tddft Nroots 2 Iroot 1
|  4> sf true
|  5> end
|  6> *xyz 0 3
|  7> O   0.56129594 1.18586029 0.05995269
|  8> C   0.49896241 -0.2669526 0.1281243
|  9> C   -0.82513711 -0.87518597 -0.17374284
| 10> H   0.83199138 -0.4202014 1.12348412
| 11> H   1.22022457 -0.74182037 -0.47634831
| 12> H   -1.50895996 -0.17416854 -0.63495703
| 13> H   -0.92310456 -1.92543058 -0.47253812
| 14> *
| 15>
| 16>                          ****END OF INPUT****

CARTESIAN COORDINATES (ANGSTROEM)
---------------------------------
  O      0.561296    1.185860    0.059953
  C      0.498962   -0.266953    0.128124
  C     -0.825137   -0.875186   -0.173743
  H      0.831991   -0.420201    1.123484
  H      1.220225   -0.741820   -0.476348
  H     -1.508960   -0.174169   -0.634957
  H     -0.923105   -1.925431   -0.472538

 Total Charge           Charge          ....    0
 Multiplicity           Mult            ....    3
 Number of Electrons    NEL             ....   24
 Basis Dimension        Dim             ....  182

ORBITAL ENERGIES
----------------
                 SPIN UP ORBITALS
  NO   OCC          E(Eh)            E(eV)
   0   1.0000     -19.395877      -527.7886
   1   1.0000     -10.409651      -283.2610
   2   1.0000     -10.370506      -282.1958
   3   1.0000      -1.143211       -31.1084
   4   1.0000      -0.885716       -24.1016
   5   1.0000      -0.744441       -20.2573
   6   1.0000      -0.605573       -16.4785
   7   1.0000      -0.587224       -15.9792
   8   1.0000      -0.544332       -14.8120
   9   1.0000      -0.503291       -13.6952
  10   1.0000      -0.462166       -12.5762
  11   1.0000      -0.423212       -11.5162
  12   1.0000      -0.325839        -8.8665
  13   0.0000       0.040369         1.0985
  14   0.0000       0.062095         1.6897
  15   0.0000       0.081880         2.2281
  16   0.0000       0.085090         2.3154
  17   0.0000       0.107374         2.9218

                 SPIN DOWN ORBITALS
  NO   OCC          E(Eh)            E(eV)
   0   1.0000     -19.371961      -527.1379
   1   1.0000     -10.410626      -283.2875
   2   1.0000     -10.357044      -281.8295
   3   1.0000      -1.086261       -29.5587
   4   1.0000      -0.855625       -23.2827
   5   1.0000      -0.717232       -19.5169
   6   1.0000      -0.575255       -15.6535
   7   1.0000      -0.554261       -15.0822
   8   1.0000      -0.523439       -14.2435
   9   1.0000      -0.484927       -13.1955
  10   1.0000      -0.392844       -10.6898
  11   0.0000      -0.052211        -1.4207
  12   0.0000       0.001268         0.0345
  13   0.0000       0.039928         1.0865
  14   0.0000       0.062188         1.6922
  15   0.0000       0.082631         2.2485

----------------------------------------------------------------------------------------------------
          SPIN FLIP ABSORPTION SPECTRUM VIA TRANSITION ELECTRIC DIPOLE MOMENTS
----------------------------------------------------------------------------------------------------
     Transition      Energy     Energy  Wavelength fosc(D2)      D2        DX        DY        DZ
                      (eV)      (cm-1)    (nm)                 (au**2)    (au)      (au)      (au)
----------------------------------------------------------------------------------------------------
  1-3A  ->  2-3A    0.227009    1830.9  5461.6   0.000341572   0.06142   0.12472   0.21048   0.03951

Dispersion correction             ... done (  0.1 sec)

MULLIKEN ATOMIC CHARGES AND SPIN DENSITIES
------------------------------------------
   0 O :   -0.366858    0.586504
   1 C :   -0.019890    0.073882
   2 C :   -0.428511   -0.539309
   3 H :    0.184249   -0.006055
   4 H :    0.249979   -0.012968
   5 H :    0.184080   -0.044782
   6 H :    0.196951   -0.057272
Sum of atomic charges       :    0.0000000

LOEWDIN ATOMIC CHARGES AND SPIN DENSITIES
-----------------------------------------
   0 O :   -0.015898    0.537834
   1 C :   -0.180184   -0.037278
   2 C :    0.297901   -0.409448
   3 H :    0.008929    0.020384
   4 H :    0.004300   -0.007104
   5 H :   -0.059629   -0.050359
   6 H :   -0.055418   -0.054029

  Mayer bond orders larger than 0.100000
B(  0-O ,  1-C ) :   0.9370 B(  0-O ,  2-C ) :   0.1303 B(  1-C ,  2-C ) :   0.8620
B(  1-C ,  3-H ) :   0.9140 B(  1-C ,  4-H ) :   0.9151 B(  2-C ,  5-H ) :   1.0330
B(  2-C ,  6-H ) :   1.0474

Dispersion correction           -0.005509584
FINAL SINGLE POINT ENERGY      -153.746164978473

DIPOLE MOMENT
-------------

Method             : TDA/CIS
Type of density    : Electron Density
Level              : Relaxed density
State              :   1
Multiplicity       :   3
Irrep              :   0
Energy             :     0.0000000000000000 Eh
Relativity type    :
Basis              : AO
                                X                 Y                 Z
Electronic contribution:      0.830609105       2.202003732       0.279501221
Nuclear contribution   :     -0.748272119      -3.210628365      -0.426497482
                        -----------------------------------------
Total Dipole Moment    :      0.082336986      -1.008624633      -0.146996261
                        -----------------------------------------
Magnitude (a.u.)       :      1.022600084
Magnitude (Debye)      :      2.599242847

Rotational constants in cm-1:             1.511365             0.329620             0.284444
Rotational constants in MHz :         45309.583781          9881.757001          8527.431558

                             ****ORCA TERMINATED NORMALLY****
TOTAL RUN TIME: 0 days 0 hours 0 minutes 16 seconds 89 msec
