                         Program Version 6.0.0  -   RELEASE  -
|  1> ! EnGrad wB97M-D3BJ def2-TZVPPD
|  2> %pal nprocs 8 end%pal nprocs 16 end
|  3> %tddft
|  4>  sf true
|  5>  nroots 2 Iroot 2 end
|  6> *xyz 0 3
|  7> O   0.39915990725219 1.04595470207889 -0.00274075935751
|  8> C   0.61847979301316 -0.27446202127968 -0.00055611991975
|  9> C   -0.74399055698015 -0.73090724825697 0.0007360417058
| 10> H   1.17088330489927 -0.62937542586512 0.88236225916465
| 11> H   1.17082298924863 -0.63233149216633 -0.88228147596188
| 12> H   -1.30732671787112 -0.75076671538397 -0.92230147608187
| 13> H   -1.30582871956198 -0.74651179912683 0.92478153045055
| 14> *
| 15>
| 16>                          ****END OF INPUT****

CARTESIAN COORDINATES (ANGSTROEM)
---------------------------------
  O      0.399160    1.045955   -0.002741
  C      0.618480   -0.274462   -0.000556
  C     -0.743991   -0.730907    0.000736
  H      1.170883   -0.629375    0.882362
  H      1.170823   -0.632331   -0.882281
  H     -1.307327   -0.750767   -0.922301
  H     -1.305829   -0.746512    0.924782

 Total Charge           Charge          ....    0
 Multiplicity           Mult            ....    3
 Number of Electrons    NEL             ....   24
 Basis Dimension        Dim             ....  182

ORBITAL ENERGIES
----------------
                 SPIN UP ORBITALS
  NO   OCC          E(Eh)            E(eV)
   0   1.0000     -19.397579      -527.8350
   1   1.0000     -10.406914      -283.1865
   2   1.0000     -10.348529      -281.5978
   3   1.0000      -1.197004       -32.5721
   4   1.0000      -0.873329       -23.7645
   5   1.0000      -0.736311       -20.0361
   6   1.0000      -0.636706       -17.3256
   7   1.0000      -0.596819       -16.2403
   8   1.0000      -0.554622       -15.0920
   9   1.0000      -0.513105       -13.9623
  10   1.0000      -0.441572       -12.0158
  11   1.0000      -0.426241       -11.5986
  12   1.0000      -0.303491        -8.2584
  13   0.0000       0.041197         1.1210
  14   0.0000       0.063432         1.7261
  15   0.0000       0.073615         2.0032
  16   0.0000       0.086767         2.3610
  17   0.0000       0.117372         3.1938

                 SPIN DOWN ORBITALS
  NO   OCC          E(Eh)            E(eV)
   0   1.0000     -19.371306      -527.1200
   1   1.0000     -10.408209      -283.2218
   2   1.0000     -10.335721      -281.2493
   3   1.0000      -1.140039       -31.0220
   4   1.0000      -0.839517       -22.8444
   5   1.0000      -0.713088       -19.4041
   6   1.0000      -0.597054       -16.2467
   7   1.0000      -0.562732       -15.3127
   8   1.0000      -0.532601       -14.4928
   9   1.0000      -0.476820       -12.9749
  10   1.0000      -0.384856       -10.4725
  11   0.0000      -0.067414        -1.8344
  12   0.0000       0.014399         0.3918
  13   0.0000       0.040040         1.0895
  14   0.0000       0.064144         1.7454
  15   0.0000       0.072986         1.9860

----------------------------------------------------------------------------------------------------
          SPIN FLIP ABSORPTION SPECTRUM VIA TRANSITION ELECTRIC DIPOLE MOMENTS
----------------------------------------------------------------------------------------------------
     Transition      Energy     Energy  Wavelength fosc(D2)      D2        DX        DY        DZ
                      (eV)      (cm-1)    (nm)                 (au**2)    (au)      (au)      (au)
----------------------------------------------------------------------------------------------------
  1-3A  ->  2-3A    1.341688   10821.4   924.1   0.000258925   0.00788  -0.00017  -0.00033  -0.08875

Dispersion correction             ... done (  0.0 sec)

MULLIKEN ATOMIC CHARGES AND SPIN DENSITIES
------------------------------------------
   0 O :   -0.323870    0.772121
   1 C :    0.105663    0.308958
   2 C :   -0.441039   -0.884772
   3 H :    0.201273    0.015111
   4 H :    0.201382    0.015003
   5 H :    0.128240   -0.113334
   6 H :    0.128351   -0.113087
Sum of atomic charges       :    0.0000000

LOEWDIN ATOMIC CHARGES AND SPIN DENSITIES
-----------------------------------------
   0 O :    0.098746    0.707019
   1 C :   -0.288621    0.035284
   2 C :    0.242324   -0.628169
   3 H :    0.040426    0.030062
   4 H :    0.040374    0.029996
   5 H :   -0.066633   -0.087112
   6 H :   -0.066617   -0.087079

  Mayer bond orders larger than 0.100000
B(  0-O ,  1-C ) :   0.9137 B(  0-O ,  2-C ) :   0.1332 B(  1-C ,  2-C ) :   0.6001
B(  1-C ,  3-H ) :   0.9729 B(  1-C ,  4-H ) :   0.9730 B(  2-C ,  5-H ) :   1.1161
B(  2-C ,  6-H ) :   1.1160

Dispersion correction           -0.005659715
FINAL SINGLE POINT ENERGY      -153.737036646543

DIPOLE MOMENT
-------------

Method             : TDA/CIS
Type of density    : Electron Density
Level              : Relaxed density
State              :   2
Multiplicity       :   3
Irrep              :   0
Energy             :     0.0000000000000000 Eh
Relativity type    :
Basis              : AO
                                X                 Y                 Z
Electronic contribution:      0.926255820       2.372096501      -0.005134130
Nuclear contribution   :     -0.642594569      -2.733528979       0.005706491
                        -----------------------------------------
Total Dipole Moment    :      0.283661251      -0.361432478       0.000572361
                        -----------------------------------------
Magnitude (a.u.)       :      0.459453446
Magnitude (Debye)      :      1.167837849

Rotational constants in cm-1:             1.172290             0.439110             0.364942
Rotational constants in MHz :         35144.367604         13164.174136         10940.678043

                             ****ORCA TERMINATED NORMALLY****
TOTAL RUN TIME: 0 days 0 hours 0 minutes 16 seconds 197 msec
