                         Program Version 6.0.0  -   RELEASE  -
|  1> ! Engrad def2-TZVPPD wB97M-D3BJ
|  2> %pal nprocs 8 end%pal nprocs 64 end
|  3> %tddft Nroots 2 Iroot 2
|  4> sf true
|  5> end
|  6> *xyz 0 3
|  7> O   3.18057314 1.04352909 -0.49230242
|  8> O   -0.9244891 0.46677421 -2.07827636
|  9> O   1.3407889 -2.90068306 -1.73756567
| 10> O   -3.11842253 -1.15249333 1.62992972
| 11> N   0.64159645 -2.03383745 0.27598249
| 12> N   -2.33466022 1.00997062 1.66048914
| 13> N   2.30313349 -0.97106523 -1.06825926
| 14> N   -2.04711431 -0.34884912 -0.25977506
| 15> C   1.56613484 0.0845485 0.97817138
| 16> C   -1.01463964 1.86900387 -0.12054142
| 17> C   0.70580182 -1.0157646 1.18761285
| 18> C   -1.59382276 2.01583468 1.18546292
| 19> C   1.87205848 0.95665879 2.10797292
| 20> C   -0.02179863 2.90033853 -0.6831407
| 21> C   2.37162355 0.14006472 -0.21933445
| 22> C   -1.30019856 0.67945732 -0.94365838
| 23> C   1.43222996 -2.02462489 -0.87899255
| 24> C   -2.54522814 -0.27055047 1.02709302
| 25> H   0.36611459 -1.20707129 2.14049983
| 26> H   -1.40565882 2.87857127 1.85594575
| 27> H   2.44322254 1.76067756 1.66092594
| 28> H   1.02229938 1.33543221 2.57380633
| 29> H   2.51309774 0.41567642 2.81250176
| 30> H   0.00898869 2.7348541 -1.77577897
| 31> H   -0.25901358 3.94764192 -0.43101968
| 32> H   1.02752403 2.75233347 -0.31036806
| 33> H   0.32333018 -2.93979603 0.63908151
| 34> H   -2.64355323 0.99998828 2.6252855
| 35> H   2.82258332 -0.93643881 -1.88575684
| 36> H   -1.99743492 -1.27754989 -0.55748581
| 37> *
| 38>
| 39>                          ****END OF INPUT****

CARTESIAN COORDINATES (ANGSTROEM)
---------------------------------
  O      3.180573    1.043529   -0.492302
  O     -0.924489    0.466774   -2.078276
  O      1.340789   -2.900683   -1.737566
  O     -3.118423   -1.152493    1.629930
  N      0.641596   -2.033837    0.275982
  N     -2.334660    1.009971    1.660489
  N      2.303133   -0.971065   -1.068259
  N     -2.047114   -0.348849   -0.259775
  C      1.566135    0.084548    0.978171
  C     -1.014640    1.869004   -0.120541
  C      0.705802   -1.015765    1.187613
  C     -1.593823    2.015835    1.185463
  C      1.872058    0.956659    2.107973
  C     -0.021799    2.900339   -0.683141
  C      2.371624    0.140065   -0.219334
  C     -1.300199    0.679457   -0.943658
  C      1.432230   -2.024625   -0.878993
  C     -2.545228   -0.270550    1.027093
  H      0.366115   -1.207071    2.140500
  H     -1.405659    2.878571    1.855946
  H      2.443223    1.760678    1.660926
  H      1.022299    1.335432    2.573806
  H      2.513098    0.415676    2.812502
  H      0.008989    2.734854   -1.775779
  H     -0.259014    3.947642   -0.431020
  H      1.027524    2.752333   -0.310368
  H      0.323330   -2.939796    0.639082
  H     -2.643553    0.999988    2.625285
  H      2.822583   -0.936439   -1.885757
  H     -1.997435   -1.277550   -0.557486

 Total Charge           Charge          ....    0
 Multiplicity           Mult            ....    3
 Number of Electrons    NEL             ....  132
 Basis Dimension        Dim             ....  882

ORBITAL ENERGIES
----------------
                 SPIN UP ORBITALS
  NO   OCC          E(Eh)            E(eV)
   0   1.0000     -19.336626      -526.1763
   1   1.0000     -19.327105      -525.9173
   2   1.0000     -19.326894      -525.9115
   3   1.0000     -19.325037      -525.8610
   4   1.0000     -14.596453      -397.1897
   5   1.0000     -14.588014      -396.9600
   6   1.0000     -14.569582      -396.4585
   7   1.0000     -14.556719      -396.1085
   8   1.0000     -10.521742      -286.3112
   9   1.0000     -10.514197      -286.1059
  10   1.0000     -10.486570      -285.3541
  11   1.0000     -10.466974      -284.8209
  12   1.0000     -10.450965      -284.3852
  13   1.0000     -10.412348      -283.3344
  14   1.0000     -10.399484      -282.9844
  15   1.0000     -10.390117      -282.7295
  16   1.0000     -10.363516      -282.0056
  17   1.0000     -10.355659      -281.7918
  18   1.0000      -1.224030       -33.3076
  19   1.0000      -1.215540       -33.0765
  20   1.0000      -1.192157       -32.4402
  21   1.0000      -1.179419       -32.0936
  22   1.0000      -1.121473       -30.5168
  23   1.0000      -1.118099       -30.4250
  24   1.0000      -1.071314       -29.1519
  25   1.0000      -1.065789       -29.0016
  26   1.0000      -0.974895       -26.5282
  27   1.0000      -0.930670       -25.3248
  28   1.0000      -0.855747       -23.2861
  29   1.0000      -0.837474       -22.7888
  30   1.0000      -0.822351       -22.3773
  31   1.0000      -0.805995       -21.9322
  32   1.0000      -0.785951       -21.3868
  33   1.0000      -0.780734       -21.2448
  34   1.0000      -0.698790       -19.0151
  35   1.0000      -0.693758       -18.8781
  36   1.0000      -0.690278       -18.7834
  37   1.0000      -0.680141       -18.5076
  38   1.0000      -0.656423       -17.8622
  39   1.0000      -0.650955       -17.7134
  40   1.0000      -0.624246       -16.9866
  41   1.0000      -0.601265       -16.3612
  42   1.0000      -0.599225       -16.3057
  43   1.0000      -0.595082       -16.1930
  44   1.0000      -0.575427       -15.6582
  45   1.0000      -0.567833       -15.4515
  46   1.0000      -0.563172       -15.3247
  47   1.0000      -0.552470       -15.0335
  48   1.0000      -0.551440       -15.0054
  49   1.0000      -0.540233       -14.7005
  50   1.0000      -0.536158       -14.5896
  51   1.0000      -0.526396       -14.3240
  52   1.0000      -0.512444       -13.9443
  53   1.0000      -0.506946       -13.7947
  54   1.0000      -0.502086       -13.6624
  55   1.0000      -0.492103       -13.3908
  56   1.0000      -0.486192       -13.2299
  57   1.0000      -0.480702       -13.0806
  58   1.0000      -0.425383       -11.5753
  59   1.0000      -0.414598       -11.2818
  60   1.0000      -0.406530       -11.0622
  61   1.0000      -0.402866       -10.9625
  62   1.0000      -0.389851       -10.6084
  63   1.0000      -0.387971       -10.5572
  64   1.0000      -0.379903       -10.3377
  65   1.0000      -0.328954        -8.9513
  66   1.0000      -0.233847        -6.3633
  67   0.0000       0.006585         0.1792
  68   0.0000       0.010205         0.2777
  69   0.0000       0.022565         0.6140
  70   0.0000       0.037089         1.0092
  71   0.0000       0.042053         1.1443

                 SPIN DOWN ORBITALS
  NO   OCC          E(Eh)            E(eV)
   0   1.0000     -19.336566      -526.1747
   1   1.0000     -19.327184      -525.9194
   2   1.0000     -19.325150      -525.8641
   3   1.0000     -19.318617      -525.6863
   4   1.0000     -14.591871      -397.0650
   5   1.0000     -14.587854      -396.9557
   6   1.0000     -14.569474      -396.4555
   7   1.0000     -14.555924      -396.0868
   8   1.0000     -10.521747      -286.3113
   9   1.0000     -10.514491      -286.1139
  10   1.0000     -10.486551      -285.3536
  11   1.0000     -10.467184      -284.8265
  12   1.0000     -10.450689      -284.3777
  13   1.0000     -10.402488      -283.0661
  14   1.0000     -10.390128      -282.7297
  15   1.0000     -10.388680      -282.6904
  16   1.0000     -10.363944      -282.0173
  17   1.0000     -10.355644      -281.7914
  18   1.0000      -1.223881       -33.3035
  19   1.0000      -1.211389       -32.9636
  20   1.0000      -1.192229       -32.4422
  21   1.0000      -1.170391       -31.8479
  22   1.0000      -1.121103       -30.5068
  23   1.0000      -1.107689       -30.1418
  24   1.0000      -1.071040       -29.1445
  25   1.0000      -1.060790       -28.8656
  26   1.0000      -0.953717       -25.9520
  27   1.0000      -0.930297       -25.3147
  28   1.0000      -0.842064       -22.9137
  29   1.0000      -0.837125       -22.7793
  30   1.0000      -0.811001       -22.0685
  31   1.0000      -0.805879       -21.9291
  32   1.0000      -0.780579       -21.2406
  33   1.0000      -0.779220       -21.2037
  34   1.0000      -0.691298       -18.8112
  35   1.0000      -0.690150       -18.7799
  36   1.0000      -0.682608       -18.5747
  37   1.0000      -0.679877       -18.5004
  38   1.0000      -0.650990       -17.7143
  39   1.0000      -0.647759       -17.6264
  40   1.0000      -0.612954       -16.6793
  41   1.0000      -0.595505       -16.2045
  42   1.0000      -0.591157       -16.0862
  43   1.0000      -0.588203       -16.0058
  44   1.0000      -0.567734       -15.4488
  45   1.0000      -0.561696       -15.2845
  46   1.0000      -0.556135       -15.1332
  47   1.0000      -0.551379       -15.0038
  48   1.0000      -0.546071       -14.8594
  49   1.0000      -0.535857       -14.5814
  50   1.0000      -0.529027       -14.3956
  51   1.0000      -0.513382       -13.9698
  52   1.0000      -0.509115       -13.8537
  53   1.0000      -0.501373       -13.6430
  54   1.0000      -0.492343       -13.3973
  55   1.0000      -0.486309       -13.2332
  56   1.0000      -0.480411       -13.0727
  57   1.0000      -0.450164       -12.2496
  58   1.0000      -0.425138       -11.5686
  59   1.0000      -0.409769       -11.1504
  60   1.0000      -0.403828       -10.9887
  61   1.0000      -0.389911       -10.6100
  62   1.0000      -0.380383       -10.3507
  63   1.0000      -0.377833       -10.2814
  64   1.0000      -0.329602        -8.9689
  65   0.0000      -0.097236        -2.6459
  66   0.0000       0.007814         0.2126
  67   0.0000       0.009860         0.2683
  68   0.0000       0.020710         0.5636
  69   0.0000       0.033769         0.9189

----------------------------------------------------------------------------------------------------
          SPIN FLIP ABSORPTION SPECTRUM VIA TRANSITION ELECTRIC DIPOLE MOMENTS
----------------------------------------------------------------------------------------------------
     Transition      Energy     Energy  Wavelength fosc(D2)      D2        DX        DY        DZ
                      (eV)      (cm-1)    (nm)                 (au**2)    (au)      (au)      (au)
----------------------------------------------------------------------------------------------------
  1-3A  ->  2-3A    3.341926   26954.5   371.0   0.000833666   0.01018   0.06928   0.04034  -0.06128

Dispersion correction             ... done (  0.1 sec)

MULLIKEN ATOMIC CHARGES AND SPIN DENSITIES
------------------------------------------
   0 O :   -0.713371    0.005176
   1 O :   -0.629763    0.000375
   2 O :   -0.645776    0.001077
   3 O :   -0.633710   -0.000253
   4 N :    0.017018    0.010846
   5 N :   -0.042690   -0.004287
   6 N :    0.013846   -0.005018
   7 N :    0.009039   -0.004732
   8 C :    1.214600   -0.025284
   9 C :    0.427194    0.020231
  10 C :   -0.593138    0.143240
  11 C :    0.063707    0.012727
  12 C :   -1.529998   -0.014990
  13 C :   -1.213665   -0.011854
  14 C :    0.379074   -0.138952
  15 C :    0.561843   -0.024592
  16 C :    0.419464    0.008202
  17 C :    0.424341    0.006002
  18 H :    0.260202    0.004949
  19 H :    0.207392   -0.000030
  20 H :    0.320718   -0.000555
  21 H :    0.331082    0.005559
  22 H :    0.431777    0.009783
  23 H :    0.244315    0.001600
  24 H :    0.392412    0.000160
  25 H :    0.120318   -0.002264
  26 H :    0.112270    0.001435
  27 H :    0.053702   -0.000408
  28 H :   -0.033011    0.002025
  29 H :    0.030810   -0.000168
Sum of atomic charges       :    0.0000000

LOEWDIN ATOMIC CHARGES AND SPIN DENSITIES
-----------------------------------------
   0 O :    0.043322    0.004847
   1 O :    0.084589   -0.000080
   2 O :    0.084026    0.000384
   3 O :    0.076818   -0.000005
   4 N :    0.291142    0.015249
   5 N :    0.245831   -0.001033
   6 N :    0.345921   -0.004760
   7 N :    0.342026   -0.001273
   8 C :   -0.091461    0.004429
   9 C :   -0.104634    0.000121
  10 C :    0.035780   -0.005947
  11 C :    0.050719   -0.000545
  12 C :    0.203947    0.000901
  13 C :    0.165495   -0.000264
  14 C :   -0.387387   -0.006465
  15 C :   -0.380412   -0.000027
  16 C :   -0.421693   -0.002256
  17 C :   -0.439428   -0.000242
  18 H :   -0.037254   -0.004875
  19 H :    0.053146   -0.000068
  20 H :   -0.005167    0.000238
  21 H :   -0.040018    0.000229
  22 H :    0.030382    0.000674
  23 H :   -0.005877   -0.000024
  24 H :   -0.007933   -0.000030
  25 H :   -0.008404   -0.000104
  26 H :    0.014604    0.001615
  27 H :   -0.020916   -0.000056
  28 H :   -0.054287   -0.000575
  29 H :   -0.062877   -0.000057

  Mayer bond orders larger than 0.100000
B(  0-O , 14-C ) :   1.1727 B(  1-O , 15-C ) :   1.4558 B(  2-O , 16-C ) :   1.5605
B(  3-O , 17-C ) :   1.5497 B(  4-N , 10-C ) :   1.0062 B(  4-N , 16-C ) :   1.0008
B(  4-N , 26-H ) :   1.0520 B(  5-N , 11-C ) :   1.0259 B(  5-N , 17-C ) :   0.9758
B(  5-N , 27-H ) :   1.0983 B(  6-N , 14-C ) :   0.9075 B(  6-N , 16-C ) :   1.0348
B(  6-N , 28-H ) :   1.1604 B(  7-N , 15-C ) :   0.8590 B(  7-N , 17-C ) :   0.9432
B(  7-N , 29-H ) :   1.1178 B(  8-C , 10-C ) :   0.3967 B(  8-C , 12-C ) :   0.3079
B(  8-C , 14-C ) :   0.7635 B(  8-C , 18-H ) :  -0.1174 B(  8-C , 20-H ) :  -0.1155
B(  9-C , 11-C ) :   1.0613 B(  9-C , 13-C ) :   0.6504 B(  9-C , 15-C ) :   0.8686
B( 10-C , 16-C ) :  -0.1135 B( 10-C , 18-H ) :   1.0462 B( 11-C , 19-H ) :   1.0225
B( 12-C , 20-H ) :   1.0428 B( 12-C , 21-H ) :   0.9203 B( 12-C , 22-H ) :   0.7602
B( 13-C , 23-H ) :   1.0374 B( 13-C , 24-H ) :   0.9143 B( 13-C , 25-H ) :   0.9806

Dispersion correction           -0.054910496
FINAL SINGLE POINT ENERGY      -908.744452148931

DIPOLE MOMENT
-------------

Method             : TDA/CIS
Type of density    : Electron Density
Level              : Relaxed density
State              :   2
Multiplicity       :   3
Irrep              :   0
Energy             :     0.0000000000000000 Eh
Relativity type    :
Basis              : AO
                                X                 Y                 Z
Electronic contribution:     -3.920329742      -8.954454187      -5.293855866
Nuclear contribution   :      3.534234004       9.716802997       7.887226320
                        -----------------------------------------
Total Dipole Moment    :     -0.386095738       0.762348810       2.593370454
                        -----------------------------------------
Magnitude (a.u.)       :      2.730534003
Magnitude (Debye)      :      6.940465867

Rotational constants in cm-1:             0.018827             0.012500             0.010679
Rotational constants in MHz :           564.420466           374.729117           320.152907

                             ****ORCA TERMINATED NORMALLY****
TOTAL RUN TIME: 0 days 0 hours 5 minutes 24 seconds 587 msec
