                         Program Version 6.0.0  -   RELEASE  -
|  1> ! opt def2-TZVPPD wB97M-D3BJ
|  2> %pal nprocs 8 end%pal nprocs 32 end
|  3> %geom Constraints
|  4> {B 9 8 3.4 C}
|  5> {A 8 9 11 52.285714285714285 C}
|  6>  end
|  7>  end
|  8> *xyz 0 1
|  9> O   2.98579685529314 0.88758230159078 -0.86184571092411
| 10> O   -0.03983205397054 0.68929041702508 -2.10362336723772
| 11> O   0.93431434349854 -3.13274393337945 -0.68767288184107
| 12> O   -3.75829998830163 -0.84727300865116 -0.0472717177755
| 13> N   0.21184538946282 -1.54604804365365 0.7617588924445
| 14> N   -2.13631993928911 0.03188773433438 1.27350571071531
| 15> N   2.02598672506387 -1.14318467211666 -0.64531219127023
| 16> N   -1.91814233924584 0.03137116037665 -1.04498946748291
| 17> C   1.18097737274226 0.71693507080484 0.70173889017321
| 18> C   -0.20686880480777 1.27024627933494 0.21345042231937
| 19> C   0.41441080275909 -0.34173258966541 1.52336266615173
| 20> C   -0.82922175114212 0.58960593673968 1.44434972027296
| 21> C   1.92822011286806 1.69488653817281 1.5963734975385
| 22> C   -0.37809776891576 2.77134929626422 0.04819649358288
| 23> C   2.1403947470937 0.1972384729179 -0.35038567829864
| 24> C   -0.67361678962426 0.6214190571346 -1.0793014500539
| 25> C   1.04142578622994 -2.02697492875068 -0.21027082435993
| 26> C   -2.68467002550422 -0.30396816036989 0.07167054343891
| 27> H   0.80817443950001 -0.54572267081061 2.51895215321335
| 28> H   -0.83785272399001 1.27240685039143 2.28901317073582
| 29> H   2.31167340578204 2.52284411740894 1.00913016264629
| 30> H   1.28982602448342 2.08257620823614 2.38710022492991
| 31> H   2.77390820759972 1.19140411795486 2.06045858523949
| 32> H   -1.41857211141493 3.00964947214868 -0.16882755561625
| 33> H   -0.09065531563179 3.29799318042223 0.95389844358819
| 34> H   0.23426221611057 3.12492645074476 -0.77764887675592
| 35> H   -0.46772570547622 -2.21560145172536 1.0787081584806
| 36> H   -2.71769301149571 -0.17090724573546 2.06627440900372
| 37> H   2.60065167263658 -1.49057255715425 -1.3966820077142
| 38> H   -2.27169977231386 -0.32388339999036 -1.91951041514436
| 39> *
| 40>
| 41>                          ****END OF INPUT****
 Total Charge           Charge          ....    0
 Multiplicity           Mult            ....    1
 Number of Electrons    NEL             ....  132
Dispersion correction           -0.051286342
FINAL SINGLE POINT ENERGY      -908.617693609069
Dispersion correction             ... done (  0.0 sec)
Dispersion correction           -0.051891684
FINAL SINGLE POINT ENERGY      -908.653860480298
Dispersion correction             ... done (  0.0 sec)
Dispersion correction           -0.052622577
FINAL SINGLE POINT ENERGY      -908.680239591910
Dispersion correction             ... done (  0.0 sec)
FINAL SINGLE POINT ENERGY      -908.708264787571
FINAL SINGLE POINT ENERGY      -908.731246966430
FINAL SINGLE POINT ENERGY      -908.739336420314
FINAL SINGLE POINT ENERGY      -908.743180039612
FINAL SINGLE POINT ENERGY      -908.744956369960
FINAL SINGLE POINT ENERGY      -908.746167834262
FINAL SINGLE POINT ENERGY      -908.746899925127
FINAL SINGLE POINT ENERGY      -908.754950721742
FINAL SINGLE POINT ENERGY      -908.755073518693
FINAL SINGLE POINT ENERGY      -908.755119892345
FINAL SINGLE POINT ENERGY      -908.755136169736
FINAL SINGLE POINT ENERGY      -908.755144513042
FINAL SINGLE POINT ENERGY      -908.755151182250
FINAL SINGLE POINT ENERGY      -908.755154797182
Dispersion correction             ... done (  0.0 sec)
Dispersion correction           -0.056736434
FINAL SINGLE POINT ENERGY      -908.755157185587
Dispersion correction             ... done (  0.0 sec)
Dispersion correction           -0.056742474
FINAL SINGLE POINT ENERGY      -908.755158346750
Dispersion correction             ... done (  0.0 sec)
                    ***********************HURRAY********************

CARTESIAN COORDINATES (ANGSTROEM)
---------------------------------
  O      4.159480   -0.246988    1.118667
  O     -2.175717    1.907385   -2.090950
  O      1.333841   -2.868143   -1.191267
  O     -3.612509   -1.576827    0.387363
  N      0.454343   -0.992096   -0.229885
  N     -1.939557   -0.309590    1.248209
  N      2.605791   -1.699322    0.294611
  N     -2.661984    0.018755   -0.929458
  C      1.893203    0.440378    1.059620
  C     -1.116197    1.611116   -0.004751
  C      0.506129   -0.208565    0.997125
  C     -0.850297    0.635973    1.107199
  C      2.138308    1.837600    1.324608
  C     -0.569092    2.962437    0.027338
  C      2.997282   -0.492491    0.858997
  C     -1.994270    1.235380   -1.091961
  C      1.430004   -1.927434   -0.441574
  C     -2.801080   -0.688479    0.257850
  H      0.486459   -0.925227    1.840847
  H     -0.765224    1.204462    2.037734
  H      3.169974    2.007755    1.618459
  H      1.936810    2.460159    0.420209
  H      1.432668    2.244174    2.058510
  H     -0.537467    3.367876    1.041592
  H      0.489745    2.993452   -0.315323
  H     -1.120558    3.618825   -0.639088
  H     -0.446655   -1.266962   -0.586489
  H     -2.010920   -0.860318    2.084857
  H      3.348846   -2.349323    0.088200
  H     -3.328757   -0.218962   -1.646647

 Multiplicity           Mult            ....    1
 Number of Electrons    NEL             ....  132
 Basis Dimension        Dim             ....  882

ORBITAL ENERGIES
----------------

  NO   OCC          E(Eh)            E(eV)
   0   2.0000     -19.342804      -526.3445
   1   2.0000     -19.328529      -525.9560
   2   2.0000     -19.325641      -525.8774
   3   2.0000     -19.322186      -525.7834
   4   2.0000     -14.574289      -396.5866
   5   2.0000     -14.567757      -396.4088
   6   2.0000     -14.566063      -396.3627
   7   2.0000     -14.561842      -396.2479
   8   2.0000     -10.509370      -285.9745
   9   2.0000     -10.508795      -285.9588
  10   2.0000     -10.493264      -285.5362
  11   2.0000     -10.481439      -285.2144
  12   2.0000     -10.458522      -284.5909
  13   2.0000     -10.453742      -284.4608
  14   2.0000     -10.439513      -284.0736
  15   2.0000     -10.415543      -283.4213
  16   2.0000     -10.394395      -282.8459
  17   2.0000     -10.380472      -282.4670
  18   2.0000      -1.226154       -33.3654
  19   2.0000      -1.221601       -33.2415
  20   2.0000      -1.203884       -32.7594
  21   2.0000      -1.193942       -32.4888
  22   2.0000      -1.123349       -30.5679
  23   2.0000      -1.104599       -30.0577
  24   2.0000      -1.070256       -29.1231
  25   2.0000      -1.060422       -28.8556
  26   2.0000      -0.981342       -26.7037
  27   2.0000      -0.959113       -26.0988
  28   2.0000      -0.897465       -24.4213
  29   2.0000      -0.851806       -23.1788
  30   2.0000      -0.831151       -22.6168
  31   2.0000      -0.797180       -21.6924
  32   2.0000      -0.792043       -21.5526
  33   2.0000      -0.785490       -21.3743
  34   2.0000      -0.706755       -19.2318
  35   2.0000      -0.698773       -19.0146
  36   2.0000      -0.692980       -18.8569
  37   2.0000      -0.677004       -18.4222
  38   2.0000      -0.648826       -17.6555
  39   2.0000      -0.636268       -17.3137
  40   2.0000      -0.626690       -17.0531
  41   2.0000      -0.609048       -16.5730
  42   2.0000      -0.602400       -16.3921
  43   2.0000      -0.585417       -15.9300
  44   2.0000      -0.582729       -15.8569
  45   2.0000      -0.579586       -15.7713
  46   2.0000      -0.573839       -15.6150
  47   2.0000      -0.566928       -15.4269
  48   2.0000      -0.562760       -15.3135
  49   2.0000      -0.558449       -15.1962
  50   2.0000      -0.552973       -15.0472
  51   2.0000      -0.539102       -14.6697
  52   2.0000      -0.536613       -14.6020
  53   2.0000      -0.527225       -14.3465
  54   2.0000      -0.516191       -14.0463
  55   2.0000      -0.507908       -13.8209
  56   2.0000      -0.495666       -13.4877
  57   2.0000      -0.431792       -11.7497
  58   2.0000      -0.419978       -11.4282
  59   2.0000      -0.408881       -11.1262
  60   2.0000      -0.404114       -10.9965
  61   2.0000      -0.400294       -10.8926
  62   2.0000      -0.393385       -10.7045
  63   2.0000      -0.390569       -10.6279
  64   2.0000      -0.384741       -10.4693
  65   2.0000      -0.277530        -7.5520
  66   0.0000      -0.132059        -3.5935
  67   0.0000       0.006078         0.1654
  68   0.0000       0.027778         0.7559
  69   0.0000       0.031173         0.8483
  70   0.0000       0.033683         0.9166

MULLIKEN ATOMIC CHARGES
-----------------------
   0 O :   -0.625523
   1 O :   -0.667360
   2 O :   -0.623828
   3 O :   -0.648988
   4 N :   -0.208598
   5 N :   -0.199440
   6 N :   -0.022040
   7 N :   -0.009009
   8 C :    0.373721
   9 C :    0.361785
  10 C :    0.422744
  11 C :    0.327833
  12 C :   -1.272952
  13 C :   -1.430288
  14 C :    0.352637
  15 C :    0.417719
  16 C :    0.270165
  17 C :    0.409509
  18 H :    0.350731
  19 H :    0.498348
  20 H :    0.314931
  21 H :    0.176037
  22 H :    0.266998
  23 H :    0.324975
  24 H :    0.188461
  25 H :    0.340015
  26 H :    0.145504
  27 H :    0.040694
  28 H :    0.085438
  29 H :    0.039780
Sum of atomic charges:    0.0000000

LOEWDIN ATOMIC CHARGES
----------------------
   0 O :    0.097354
   1 O :    0.088762
   2 O :    0.101898
   3 O :    0.088867
   4 N :    0.282113
   5 N :    0.271578
   6 N :    0.329260
   7 N :    0.318248
   8 C :    0.026637
   9 C :   -0.021869
  10 C :   -0.090856
  11 C :   -0.096841
  12 C :    0.183131
  13 C :    0.165659
  14 C :   -0.400740
  15 C :   -0.404747
  16 C :   -0.469750
  17 C :   -0.499454
  18 H :    0.051643
  19 H :    0.048023
  20 H :    0.008003
  21 H :    0.001511
  22 H :    0.010791
  23 H :    0.008103
  24 H :   -0.008674
  25 H :    0.004536
  26 H :   -0.043495
  27 H :   -0.026901
  28 H :   -0.011481
  29 H :   -0.011311

  Mayer bond orders larger than 0.100000
B(  0-O , 14-C ) :   1.3652 B(  1-O , 15-C ) :   1.3257 B(  2-O , 16-C ) :   1.6008
B(  3-O , 17-C ) :   1.5982 B(  4-N ,  8-C ) :   0.3402 B(  4-N ,  9-C ) :   0.1072
B(  4-N , 10-C ) :   0.1227 B(  4-N , 11-C ) :   0.1345 B(  4-N , 16-C ) :   1.1889
B(  4-N , 26-H ) :   0.9769 B(  5-N , 10-C ) :   0.2175 B(  5-N , 11-C ) :   0.2445
B(  5-N , 17-C ) :   1.0820 B(  5-N , 27-H ) :   1.1319 B(  6-N ,  8-C ) :  -0.1308
B(  6-N , 14-C ) :   1.0239 B(  6-N , 16-C ) :   0.9403 B(  6-N , 28-H ) :   1.0507
B(  7-N , 15-C ) :   1.0251 B(  7-N , 17-C ) :   1.0054 B(  7-N , 29-H ) :   1.0971
B(  8-C ,  9-C ) :   0.4462 B(  8-C , 10-C ) :  -0.2174 B(  8-C , 11-C ) :   0.1549
B(  8-C , 12-C ) :   0.5206 B(  8-C , 14-C ) :   0.8039 B(  8-C , 20-H ) :  -0.1004
B(  9-C , 10-C ) :   0.2198 B(  9-C , 13-C ) :   0.3170 B(  9-C , 15-C ) :   0.6924
B(  9-C , 19-H ) :  -0.1924 B(  9-C , 23-H ) :  -0.1405 B( 10-C , 11-C ) :   0.6666
B( 10-C , 16-C ) :  -0.1272 B( 10-C , 18-H ) :   0.8813 B( 11-C , 13-C ) :  -0.2884
B( 11-C , 17-C ) :  -0.1496 B( 11-C , 19-H ) :   0.8298 B( 12-C , 14-C ) :  -0.1641
B( 12-C , 20-H ) :   1.0285 B( 12-C , 21-H ) :   0.8752 B( 12-C , 22-H ) :   0.9637
B( 13-C , 23-H ) :   1.0368 B( 13-C , 24-H ) :   0.9000 B( 13-C , 25-H ) :   0.9182

Dispersion correction           -0.056743548
FINAL SINGLE POINT ENERGY      -908.755158719449

DIPOLE MOMENT
-------------

Method             : SCF
Type of density    : Electron Density
Multiplicity       :   1
Irrep              :   0
Energy             :  -908.6984151716220595 Eh
Relativity type    :
Basis              : AO
                                X                 Y                 Z
Electronic contribution:     -2.282412608     -10.392875883      -4.033046958
Nuclear contribution   :      2.658058962      11.864792987       5.946458200
                        -----------------------------------------
Total Dipole Moment    :      0.375646354       1.471917104       1.913411243
                        -----------------------------------------
Magnitude (a.u.)       :      2.443111281
Magnitude (Debye)      :      6.209895367

Rotational constants in cm-1:             0.021481             0.010712             0.008708
Rotational constants in MHz :           643.983955           321.125879           261.065024

                             ****ORCA TERMINATED NORMALLY****
TOTAL RUN TIME: 0 days 2 hours 22 minutes 50 seconds 406 msec
