                         Program Version 6.0.0  -   RELEASE  -
|  1> ! Opt wB97M-D3BJ def2-TZVPPD
|  2> %pal nprocs 8 end %pal nprocs 64 end
|  3> %geom
|  4> Constraints
|  5>     {A 2 1 0 61.52542372881356 C }
|  6> end
|  7> MaxIter 200
|  8> end
|  9> *xyz 0 1
| 10> O   0.0665546483973325 0.85303894728977 0.0
| 11> C   0.7509 -0.4065 0.0
| 12> C   -0.7502 -0.4076 0.0
| 13> H   1.2625 -0.6786 0.9136
| 14> H   1.2625 -0.6787 -0.9136
| 15> H   -1.2614 -0.6806 -0.9136
| 16> H   -1.2614 -0.6805 0.9136
| 17> *
| 18>
| 19>                          ****END OF INPUT****
 Total Charge           Charge          ....    0
 Multiplicity           Mult            ....    1
 Number of Electrons    NEL             ....   24
Dispersion correction           -0.005192799
FINAL SINGLE POINT ENERGY      -153.884352085073
Dispersion correction             ... done (  0.1 sec)
Dispersion correction           -0.005220264
FINAL SINGLE POINT ENERGY      -153.888395243959
Dispersion correction             ... done (  0.1 sec)
Dispersion correction           -0.005233267
FINAL SINGLE POINT ENERGY      -153.888831613382
Dispersion correction             ... done (  0.1 sec)
Dispersion correction           -0.005231177
FINAL SINGLE POINT ENERGY      -153.888842859225
Dispersion correction             ... done (  0.1 sec)
Dispersion correction           -0.005230511
FINAL SINGLE POINT ENERGY      -153.888846312355
Dispersion correction             ... done (  0.1 sec)
                    ***********************HURRAY********************

CARTESIAN COORDINATES (ANGSTROEM)
---------------------------------
  O      0.040521    0.800266   -0.000050
  C      0.728871   -0.426559    0.000143
  C     -0.719815   -0.447330   -0.000158
  H      1.263690   -0.659871    0.913921
  H      1.263393   -0.660367   -0.913728
  H     -1.253781   -0.642639   -0.919510
  H     -1.253423   -0.642961    0.919382

 Multiplicity           Mult            ....    1
 Number of Electrons    NEL             ....   24
 Basis Dimension        Dim             ....  182

ORBITAL ENERGIES
----------------

  NO   OCC          E(Eh)            E(eV)
   0   2.0000     -19.351572      -526.5830
   1   2.0000     -10.400005      -282.9985
   2   2.0000     -10.398476      -282.9569
   3   2.0000      -1.204817       -32.7848
   4   2.0000      -0.808196       -21.9921
   5   2.0000      -0.755062       -20.5463
   6   2.0000      -0.631350       -17.1799
   7   2.0000      -0.595035       -16.1917
   8   2.0000      -0.501548       -13.6478
   9   2.0000      -0.490027       -13.3343
  10   2.0000      -0.426188       -11.5972
  11   2.0000      -0.385169       -10.4810
  12   0.0000       0.042512         1.1568
  13   0.0000       0.058717         1.5978
  14   0.0000       0.074849         2.0367
  15   0.0000       0.077887         2.1194
  16   0.0000       0.114240         3.1086

MULLIKEN ATOMIC CHARGES
-----------------------
   0 O :   -0.384129
   1 C :   -0.156120
   2 C :   -0.184808
   3 H :    0.182181
   4 H :    0.182115
   5 H :    0.180433
   6 H :    0.180328
Sum of atomic charges:   -0.0000000

LOEWDIN ATOMIC CHARGES
----------------------
   0 O :   -0.031592
   1 C :   -0.044363
   2 C :    0.029352
   3 H :    0.014201
   4 H :    0.014197
   5 H :    0.009103
   6 H :    0.009101

  Mayer bond orders larger than 0.100000
B(  0-O ,  1-C ) :   0.8108 B(  0-O ,  2-C ) :   0.8400 B(  1-C ,  2-C ) :   0.8209
B(  1-C ,  3-H ) :   1.0220 B(  1-C ,  4-H ) :   1.0222 B(  2-C ,  5-H ) :   1.0108
B(  2-C ,  6-H ) :   1.0109

Dispersion correction           -0.005230511
FINAL SINGLE POINT ENERGY      -153.888847281832

DIPOLE MOMENT
-------------

Method             : SCF
Type of density    : Electron Density
Multiplicity       :   1
Irrep              :   0
Energy             :  -153.8836167712310612 Eh
Relativity type    :
Basis              : AO
                                X                 Y                 Z
Electronic contribution:      0.017220492       1.628466517      -0.000107039
Nuclear contribution   :     -0.047210106      -2.405576361       0.000137520
                        -----------------------------------------
Total Dipole Moment    :     -0.029989614      -0.777109843       0.000030481
                        -----------------------------------------
Magnitude (a.u.)       :      0.777688296
Magnitude (Debye)      :      1.976726556

Rotational constants in cm-1:             0.851690             0.748225             0.474225
Rotational constants in MHz :         25533.014374         22431.209716         14216.909834

                             ****ORCA TERMINATED NORMALLY****
TOTAL RUN TIME: 0 days 0 hours 1 minutes 15 seconds 746 msec
