                         Program Version 6.0.0  -   RELEASE  -
|  1> ! Opt wB97M-D3BJ def2-TZVPPD
|  2> %pal nprocs 8 end %pal nprocs 64 end
|  3> %geom
|  4> Constraints
|  5>     {A 2 1 0 110.9090909090909 C }
|  6> end
|  7> MaxIter 500
|  8> end
|  9> *xyz 0 1
| 10> O   -0.0007 0.8141 0.0
| 11> C   0.7509 -0.4065 0.0
| 12> C   -0.7502 -0.4076 0.0
| 13> H   1.2625 -0.6786 0.9136
| 14> H   1.2625 -0.6787 -0.9136
| 15> H   -1.2614 -0.6806 -0.9136
| 16> H   -1.2614 -0.6805 0.9136
| 17> *
| 18>
| 19>                          ****END OF INPUT****
 Total Charge           Charge          ....    0
 Multiplicity           Mult            ....    1
 Number of Electrons    NEL             ....   24
Dispersion correction           -0.005797553
FINAL SINGLE POINT ENERGY      -153.677595145744
Dispersion correction             ... done (  0.2 sec)
Dispersion correction           -0.005683045
FINAL SINGLE POINT ENERGY      -153.738483761710
Dispersion correction             ... done (  0.2 sec)
Dispersion correction           -0.005617063
FINAL SINGLE POINT ENERGY      -153.756117170521
Dispersion correction             ... done (  0.1 sec)
FINAL SINGLE POINT ENERGY      -153.765036822308
FINAL SINGLE POINT ENERGY      -153.768129159498
FINAL SINGLE POINT ENERGY      -153.768839893699
FINAL SINGLE POINT ENERGY      -153.769076294555
FINAL SINGLE POINT ENERGY      -153.769298812685
FINAL SINGLE POINT ENERGY      -153.769424452689
FINAL SINGLE POINT ENERGY      -153.769566030036
FINAL SINGLE POINT ENERGY      -153.920688623495
FINAL SINGLE POINT ENERGY      -153.921397900232
FINAL SINGLE POINT ENERGY      -153.921894520442
FINAL SINGLE POINT ENERGY      -153.922244399550
FINAL SINGLE POINT ENERGY      -153.922439670961
FINAL SINGLE POINT ENERGY      -153.922578909278
FINAL SINGLE POINT ENERGY      -153.922684402786
Dispersion correction             ... done (  0.1 sec)
Dispersion correction           -0.005564282
FINAL SINGLE POINT ENERGY      -153.922707555012
Dispersion correction             ... done (  0.1 sec)
Dispersion correction           -0.005563382
FINAL SINGLE POINT ENERGY      -153.922709408997
Dispersion correction             ... done (  0.1 sec)
                    ***********************HURRAY********************

CARTESIAN COORDINATES (ANGSTROEM)
---------------------------------
  O      0.597044    1.175626    0.324779
  C      0.599386    0.160278   -0.333033
  C     -0.440001   -0.821802    0.181609
  H      0.048489   -1.501858    0.882091
  H      1.283245   -0.041050   -1.168966
  H     -0.892607   -1.438396   -0.596018
  H     -1.193357   -0.251199    0.709537

 Multiplicity           Mult            ....    1
 Number of Electrons    NEL             ....   24
 Basis Dimension        Dim             ....  182

ORBITAL ENERGIES
----------------

  NO   OCC          E(Eh)            E(eV)
   0   2.0000     -19.336067      -526.1611
   1   2.0000     -10.444618      -284.2125
   2   2.0000     -10.350691      -281.6566
   3   2.0000      -1.185907       -32.2702
   4   2.0000      -0.867593       -23.6084
   5   2.0000      -0.711721       -19.3669
   6   2.0000      -0.598109       -16.2754
   7   2.0000      -0.555505       -15.1161
   8   2.0000      -0.543546       -14.7906
   9   2.0000      -0.506508       -13.7828
  10   2.0000      -0.468731       -12.7548
  11   2.0000      -0.365415        -9.9434
  12   0.0000       0.039289         1.0691
  13   0.0000       0.046345         1.2611
  14   0.0000       0.058655         1.5961
  15   0.0000       0.084127         2.2892
  16   0.0000       0.087820         2.3897

MULLIKEN ATOMIC CHARGES
-----------------------
   0 O :   -0.468367
   1 C :    0.233486
   2 C :   -0.673646
   3 H :    0.193361
   4 H :    0.242226
   5 H :    0.240125
   6 H :    0.232816
Sum of atomic charges:    0.0000000

LOEWDIN ATOMIC CHARGES
----------------------
   0 O :    0.044054
   1 C :   -0.180658
   2 C :    0.161080
   3 H :   -0.011993
   4 H :    0.022087
   5 H :   -0.021048
   6 H :   -0.013523

  Mayer bond orders larger than 0.100000
B(  0-O ,  1-C ) :   1.7787 B(  1-C ,  2-C ) :   0.8059 B(  1-C ,  4-H ) :   0.9763
B(  2-C ,  3-H ) :   0.9763 B(  2-C ,  5-H ) :   1.0033 B(  2-C ,  6-H ) :   0.9602

Dispersion correction           -0.005563662
FINAL SINGLE POINT ENERGY      -153.922709554561

DIPOLE MOMENT
-------------

Method             : SCF
Type of density    : Electron Density
Multiplicity       :   1
Irrep              :   0
Energy             :  -153.9171458926950891 Eh
Relativity type    :
Basis              : AO
                                X                 Y                 Z
Electronic contribution:      1.513535714       2.731279171      -0.018051961
Nuclear contribution   :     -1.614387290      -3.665658119      -0.431731087
                        -----------------------------------------
Total Dipole Moment    :     -0.100851576      -0.934378949      -0.449783048
                        -----------------------------------------
Magnitude (a.u.)       :      1.041892437
Magnitude (Debye)      :      2.648280113

Rotational constants in cm-1:             1.579847             0.379909             0.324495
Rotational constants in MHz :         47362.630754         11389.379860          9728.123531

                             ****ORCA TERMINATED NORMALLY****
TOTAL RUN TIME: 0 days 0 hours 12 minutes 20 seconds 676 msec
