                         Program Version 6.0.0  -   RELEASE  -
|  1> ! EnGrad wB97M-D3BJ def2-TZVPPD
|  2> %pal nprocs 8 end%pal nprocs 16 end
|  3> %tddft
|  4>  sf true
|  5>  nroots 2 Iroot 1 end
|  6> *xyz 0 3
|  7> O   0.31050460132623 0.9933833023085 -0.00233496382799
|  8> C   0.63414926777723 -0.30711840544891 -0.00055510261042
|  9> C   -0.73860359346233 -0.69538591110131 0.00049215528296
| 10> H   1.19061456756781 -0.63729044681421 0.88650477643686
| 11> H   1.19140506049047 -0.63936680896529 -0.8862503051509
| 12> H   -1.29383643619678 -0.7180188160527 -0.92501124276209
| 13> H   -1.29203346750262 -0.71460291392607 0.92715468263156
| 14> *
| 15>
| 16>                          ****END OF INPUT****

CARTESIAN COORDINATES (ANGSTROEM)
---------------------------------
  O      0.310505    0.993383   -0.002335
  C      0.634149   -0.307118   -0.000555
  C     -0.738604   -0.695386    0.000492
  H      1.190615   -0.637290    0.886505
  H      1.191405   -0.639367   -0.886250
  H     -1.293836   -0.718019   -0.925011
  H     -1.292033   -0.714603    0.927155

 Total Charge           Charge          ....    0
 Multiplicity           Mult            ....    3
 Number of Electrons    NEL             ....   24
 Basis Dimension        Dim             ....  182

ORBITAL ENERGIES
----------------
                 SPIN UP ORBITALS
  NO   OCC          E(Eh)            E(eV)
   0   1.0000     -19.405213      -528.0427
   1   1.0000     -10.406846      -283.1847
   2   1.0000     -10.341358      -281.4027
   3   1.0000      -1.209146       -32.9025
   4   1.0000      -0.868326       -23.6284
   5   1.0000      -0.739478       -20.1222
   6   1.0000      -0.642700       -17.4888
   7   1.0000      -0.604765       -16.4565
   8   1.0000      -0.551691       -15.0123
   9   1.0000      -0.508223       -13.8295
  10   1.0000      -0.449490       -12.2312
  11   1.0000      -0.435034       -11.8379
  12   1.0000      -0.280702        -7.6383
  13   0.0000       0.041043         1.1168
  14   0.0000       0.063665         1.7324
  15   0.0000       0.073054         1.9879
  16   0.0000       0.086140         2.3440
  17   0.0000       0.117060         3.1854

                 SPIN DOWN ORBITALS
  NO   OCC          E(Eh)            E(eV)
   0   1.0000     -19.377416      -527.2863
   1   1.0000     -10.408054      -283.2176
   2   1.0000     -10.328683      -281.0577
   3   1.0000      -1.149804       -31.2878
   4   1.0000      -0.834199       -22.6997
   5   1.0000      -0.717631       -19.5277
   6   1.0000      -0.600731       -16.3467
   7   1.0000      -0.568802       -15.4779
   8   1.0000      -0.528669       -14.3858
   9   1.0000      -0.474329       -12.9072
  10   1.0000      -0.388639       -10.5754
  11   0.0000      -0.073085        -1.9887
  12   0.0000       0.027561         0.7500
  13   0.0000       0.039638         1.0786
  14   0.0000       0.064258         1.7486
  15   0.0000       0.071974         1.9585

----------------------------------------------------------------------------------------------------
          SPIN FLIP ABSORPTION SPECTRUM VIA TRANSITION ELECTRIC DIPOLE MOMENTS
----------------------------------------------------------------------------------------------------
     Transition      Energy     Energy  Wavelength fosc(D2)      D2        DX        DY        DZ
                      (eV)      (cm-1)    (nm)                 (au**2)    (au)      (au)      (au)
----------------------------------------------------------------------------------------------------
  1-3A  ->  2-3A    2.148294   17327.2   577.1   0.000609738   0.01158   0.00056   0.00074   0.10763

Dispersion correction             ... done (  0.0 sec)

MULLIKEN ATOMIC CHARGES AND SPIN DENSITIES
------------------------------------------
   0 O :   -0.526263   -0.179850
   1 C :   -0.135543   -0.055891
   2 C :   -0.296804    0.114708
   3 H :    0.234532    0.035861
   4 H :    0.234700    0.035680
   5 H :    0.244671    0.024647
   6 H :    0.244706    0.024845
Sum of atomic charges       :    0.0000000

LOEWDIN ATOMIC CHARGES AND SPIN DENSITIES
-----------------------------------------
   0 O :   -0.058676   -0.199895
   1 C :   -0.362485    0.001488
   2 C :    0.366212    0.155741
   3 H :    0.029479    0.006125
   4 H :    0.029454    0.006064
   5 H :   -0.001990    0.015230
   6 H :   -0.001994    0.015247

  Mayer bond orders larger than 0.100000
B(  0-O ,  1-C ) :   0.7387 B(  0-O ,  2-C ) :   0.8662 B(  1-C ,  2-C ) :   0.7793
B(  1-C ,  3-H ) :   1.0251 B(  1-C ,  4-H ) :   1.0248 B(  2-C ,  5-H ) :   0.9386
B(  2-C ,  6-H ) :   0.9387

Dispersion correction           -0.005667009
FINAL SINGLE POINT ENERGY      -153.803176906948

DIPOLE MOMENT
-------------

Method             : TDA/CIS
Type of density    : Electron Density
Level              : Relaxed density
State              :   1
Multiplicity       :   3
Irrep              :   0
Energy             :     0.0000000000000000 Eh
Relativity type    :
Basis              : AO
                                X                 Y                 Z
Electronic contribution:     -0.006014769       1.214299732      -0.002875679
Nuclear contribution   :     -0.486638828      -2.622969366       0.005267924
                        -----------------------------------------
Total Dipole Moment    :     -0.492653597      -1.408669635       0.002392246
                        -----------------------------------------
Magnitude (a.u.)       :      1.492334892
Magnitude (Debye)      :      3.793213843

Rotational constants in cm-1:             1.081873             0.488970             0.388139
Rotational constants in MHz :         32433.732005         14658.952326         11636.121331

                             ****ORCA TERMINATED NORMALLY****
TOTAL RUN TIME: 0 days 0 hours 0 minutes 16 seconds 655 msec
