                         Program Version 6.0.0  -   RELEASE  -
|  1> ! Engrad def2-TZVPPD wB97M-D3BJ
|  2> %pal nprocs 8 end%pal nprocs 32 end
|  3>  %tddft nroots 2 Iroot 2
|  4> sf true
|  5> end
|  6> *xyz 0 3
|  7> O   2.18878548639609 -0.03023345732285 -1.18648954645247
|  8> O   -0.27933055343757 2.6296052003909 -2.36392398369563
|  9> O   0.33600683966695 -3.74397232287577 0.58766726845134
| 10> O   -2.2880394604173 -1.1704576079084 -1.2271062799557
| 11> N   0.39087158394584 -1.88924394661133 1.89438762745838
| 12> N   -1.41703387028739 -0.13972914546501 0.58008573351577
| 13> N   1.08979957819277 -1.80183849702123 -0.32211910435657
| 14> N   -0.91396364539303 0.5742254351131 -1.6291272019586
| 15> C   1.16986976324439 0.29052627108718 0.93679984648176
| 16> C   -0.15857375501652 2.48726185719787 -0.1810510120445
| 17> C   0.56889106940199 -0.48987837375113 2.05886553557091
| 18> C   -0.35508823506623 0.45800544175041 1.31106833516371
| 19> C   2.14148651439386 1.38425614609823 1.2919437049695
| 20> C   -1.25364559783085 3.30445740810971 0.37463566855667
| 21> C   1.53112260131709 -0.49251668296605 -0.28819087953592
| 22> C   -0.48290391211845 1.86569383390565 -1.42834145871181
| 23> C   0.57666503349136 -2.56875849186932 0.72355598354381
| 24> C   -1.58122854296441 -0.29928940965988 -0.77591900388356
| 25> H   0.86160845375741 -0.20420111144635 3.05769340317221
| 26> H   -0.57550539086833 1.37567353275721 1.83376179664674
| 27> H   2.37216818678992 1.98397830059241 0.42205694461443
| 28> H   1.72070992008647 2.03241454470026 2.05753419730709
| 29> H   3.05602064405391 0.93475899239279 1.67810263689772
| 30> H   -2.24223980974969 2.83693809901739 0.37178055906746
| 31> H   -1.02441132571529 3.74241818575362 1.34223385270532
| 32> H   -1.30196083476659 4.12485149349446 -0.35529946484106
| 33> H   -0.0165892157248 -2.43340389433973 2.63313358969268
| 34> H   -1.92249692160238 -0.86425088325168 1.06553758635179
| 35> H   1.30789594030761 -2.32483802532168 -1.15574154700345
| 36> H   -1.04629054408684 0.34254710744918 -2.60293478772805
| 37> *
| 38>
| 39>                          ****END OF INPUT****

CARTESIAN COORDINATES (ANGSTROEM)
---------------------------------
  O      2.188785   -0.030233   -1.186490
  O     -0.279331    2.629605   -2.363924
  O      0.336007   -3.743972    0.587667
  O     -2.288039   -1.170458   -1.227106
  N      0.390872   -1.889244    1.894388
  N     -1.417034   -0.139729    0.580086
  N      1.089800   -1.801838   -0.322119
  N     -0.913964    0.574225   -1.629127
  C      1.169870    0.290526    0.936800
  C     -0.158574    2.487262   -0.181051
  C      0.568891   -0.489878    2.058866
  C     -0.355088    0.458005    1.311068
  C      2.141487    1.384256    1.291944
  C     -1.253646    3.304457    0.374636
  C      1.531123   -0.492517   -0.288191
  C     -0.482904    1.865694   -1.428341
  C      0.576665   -2.568758    0.723556
  C     -1.581229   -0.299289   -0.775919
  H      0.861608   -0.204201    3.057693
  H     -0.575505    1.375674    1.833762
  H      2.372168    1.983978    0.422057
  H      1.720710    2.032415    2.057534
  H      3.056021    0.934759    1.678103
  H     -2.242240    2.836938    0.371781
  H     -1.024411    3.742418    1.342234
  H     -1.301961    4.124851   -0.355299
  H     -0.016589   -2.433404    2.633134
  H     -1.922497   -0.864251    1.065538
  H      1.307896   -2.324838   -1.155742
  H     -1.046291    0.342547   -2.602935

 Total Charge           Charge          ....    0
 Multiplicity           Mult            ....    3
 Number of Electrons    NEL             ....  132
 Basis Dimension        Dim             ....  882

ORBITAL ENERGIES
----------------
                 SPIN UP ORBITALS
  NO   OCC          E(Eh)            E(eV)
   0   1.0000     -19.336769      -526.1802
   1   1.0000     -19.333780      -526.0989
   2   1.0000     -19.322831      -525.8009
   3   1.0000     -19.321238      -525.7576
   4   1.0000     -14.568480      -396.4285
   5   1.0000     -14.567747      -396.4086
   6   1.0000     -14.567131      -396.3918
   7   1.0000     -14.564345      -396.3160
   8   1.0000     -10.510517      -286.0057
   9   1.0000     -10.508877      -285.9611
  10   1.0000     -10.491710      -285.4939
  11   1.0000     -10.481298      -285.2106
  12   1.0000     -10.437939      -284.0308
  13   1.0000     -10.436817      -284.0002
  14   1.0000     -10.416886      -283.4579
  15   1.0000     -10.397758      -282.9374
  16   1.0000     -10.373365      -282.2736
  17   1.0000     -10.368027      -282.1284
  18   1.0000      -1.227129       -33.3919
  19   1.0000      -1.220520       -33.2120
  20   1.0000      -1.203844       -32.7583
  21   1.0000      -1.199479       -32.6395
  22   1.0000      -1.128620       -30.7113
  23   1.0000      -1.092131       -29.7184
  24   1.0000      -1.074110       -29.2280
  25   1.0000      -1.063660       -28.9437
  26   1.0000      -1.009399       -27.4671
  27   1.0000      -0.937727       -25.5168
  28   1.0000      -0.881393       -23.9839
  29   1.0000      -0.823590       -22.4110
  30   1.0000      -0.816943       -22.2302
  31   1.0000      -0.808919       -22.0118
  32   1.0000      -0.791415       -21.5355
  33   1.0000      -0.776354       -21.1257
  34   1.0000      -0.726081       -19.7577
  35   1.0000      -0.702128       -19.1059
  36   1.0000      -0.695442       -18.9239
  37   1.0000      -0.665930       -18.1209
  38   1.0000      -0.642640       -17.4871
  39   1.0000      -0.630955       -17.1692
  40   1.0000      -0.614781       -16.7290
  41   1.0000      -0.609206       -16.5773
  42   1.0000      -0.598292       -16.2804
  43   1.0000      -0.590107       -16.0576
  44   1.0000      -0.579831       -15.7780
  45   1.0000      -0.569260       -15.4904
  46   1.0000      -0.564636       -15.3645
  47   1.0000      -0.561989       -15.2925
  48   1.0000      -0.555954       -15.1283
  49   1.0000      -0.554266       -15.0823
  50   1.0000      -0.543956       -14.8018
  51   1.0000      -0.540639       -14.7115
  52   1.0000      -0.536755       -14.6059
  53   1.0000      -0.512486       -13.9455
  54   1.0000      -0.506197       -13.7743
  55   1.0000      -0.483687       -13.1618
  56   1.0000      -0.446427       -12.1479
  57   1.0000      -0.427256       -11.6262
  58   1.0000      -0.419332       -11.4106
  59   1.0000      -0.410558       -11.1718
  60   1.0000      -0.402594       -10.9552
  61   1.0000      -0.400053       -10.8860
  62   1.0000      -0.395295       -10.7565
  63   1.0000      -0.388991       -10.5850
  64   1.0000      -0.385878       -10.5003
  65   1.0000      -0.373127       -10.1533
  66   1.0000      -0.296998        -8.0817
  67   0.0000       0.009478         0.2579
  68   0.0000       0.029710         0.8084
  69   0.0000       0.032531         0.8852
  70   0.0000       0.036781         1.0009
  71   0.0000       0.045307         1.2329

                 SPIN DOWN ORBITALS
  NO   OCC          E(Eh)            E(eV)
   0   1.0000     -19.336727      -526.1791
   1   1.0000     -19.328375      -525.9518
   2   1.0000     -19.322854      -525.8016
   3   1.0000     -19.321233      -525.7575
   4   1.0000     -14.568432      -396.4272
   5   1.0000     -14.567656      -396.4061
   6   1.0000     -14.567006      -396.3884
   7   1.0000     -14.564329      -396.3155
   8   1.0000     -10.510537      -286.0063
   9   1.0000     -10.508881      -285.9612
  10   1.0000     -10.491737      -285.4947
  11   1.0000     -10.481841      -285.2254
  12   1.0000     -10.437679      -284.0237
  13   1.0000     -10.436416      -283.9893
  14   1.0000     -10.416237      -283.4402
  15   1.0000     -10.373639      -282.2811
  16   1.0000     -10.370069      -282.1839
  17   1.0000     -10.367808      -282.1224
  18   1.0000      -1.226803       -33.3830
  19   1.0000      -1.219453       -33.1830
  20   1.0000      -1.203742       -32.7555
  21   1.0000      -1.191655       -32.4266
  22   1.0000      -1.128095       -30.6970
  23   1.0000      -1.091269       -29.6949
  24   1.0000      -1.073017       -29.1983
  25   1.0000      -1.063010       -28.9260
  26   1.0000      -1.008182       -27.4340
  27   1.0000      -0.909259       -24.7422
  28   1.0000      -0.880499       -23.9596
  29   1.0000      -0.822645       -22.3853
  30   1.0000      -0.813575       -22.1385
  31   1.0000      -0.803135       -21.8544
  32   1.0000      -0.787815       -21.4375
  33   1.0000      -0.771274       -20.9874
  34   1.0000      -0.720977       -19.6188
  35   1.0000      -0.699809       -19.0428
  36   1.0000      -0.687443       -18.7063
  37   1.0000      -0.664542       -18.0831
  38   1.0000      -0.635869       -17.3029
  39   1.0000      -0.626875       -17.0581
  40   1.0000      -0.612269       -16.6607
  41   1.0000      -0.606359       -16.4999
  42   1.0000      -0.588634       -16.0176
  43   1.0000      -0.580791       -15.8041
  44   1.0000      -0.575491       -15.6599
  45   1.0000      -0.562911       -15.3176
  46   1.0000      -0.560092       -15.2409
  47   1.0000      -0.553273       -15.0553
  48   1.0000      -0.552336       -15.0298
  49   1.0000      -0.551985       -15.0203
  50   1.0000      -0.538927       -14.6650
  51   1.0000      -0.532997       -14.5036
  52   1.0000      -0.526642       -14.3307
  53   1.0000      -0.511737       -13.9251
  54   1.0000      -0.494192       -13.4476
  55   1.0000      -0.482220       -13.1219
  56   1.0000      -0.437377       -11.9016
  57   1.0000      -0.422028       -11.4840
  58   1.0000      -0.418314       -11.3829
  59   1.0000      -0.406359       -11.0576
  60   1.0000      -0.397906       -10.8276
  61   1.0000      -0.393209       -10.6998
  62   1.0000      -0.387068       -10.5327
  63   1.0000      -0.381620       -10.3844
  64   1.0000      -0.371425       -10.1070
  65   0.0000      -0.054328        -1.4783
  66   0.0000       0.008827         0.2402
  67   0.0000       0.024000         0.6531
  68   0.0000       0.032138         0.8745
  69   0.0000       0.035286         0.9602

----------------------------------------------------------------------------------------------------
          SPIN FLIP ABSORPTION SPECTRUM VIA TRANSITION ELECTRIC DIPOLE MOMENTS
----------------------------------------------------------------------------------------------------
     Transition      Energy     Energy  Wavelength fosc(D2)      D2        DX        DY        DZ
                      (eV)      (cm-1)    (nm)                 (au**2)    (au)      (au)      (au)
----------------------------------------------------------------------------------------------------
  1-3A  ->  2-3A    2.072493   16715.8   598.2   0.000340143   0.00670   0.03449   0.05605  -0.04866

Dispersion correction             ... done (  0.1 sec)

MULLIKEN ATOMIC CHARGES AND SPIN DENSITIES
------------------------------------------
   0 O :   -0.642791   -0.000853
   1 O :   -0.589135    0.000803
   2 O :   -0.648386   -0.000087
   3 O :   -0.660819   -0.000074
   4 N :   -0.142459   -0.000553
   5 N :   -0.117924   -0.000076
   6 N :    0.010383   -0.000056
   7 N :    0.090723    0.002727
   8 C :    1.970233   -0.025146
   9 C :    0.322907    0.152283
  10 C :   -0.377877    0.004916
  11 C :   -0.748406   -0.013277
  12 C :   -1.586505    0.029424
  13 C :   -1.243942    0.030002
  14 C :   -0.095076   -0.005672
  15 C :    0.433765   -0.177720
  16 C :    0.455789    0.000227
  17 C :    0.545543    0.005211
  18 H :    0.256923    0.000969
  19 H :    0.400601    0.005868
  20 H :    0.328766   -0.005519
  21 H :    0.337338   -0.005137
  22 H :    0.453431   -0.006644
  23 H :    0.308128    0.004425
  24 H :    0.330036   -0.005838
  25 H :    0.421786    0.008016
  26 H :    0.031840    0.000042
  27 H :    0.097831   -0.000334
  28 H :    0.035753   -0.000035
  29 H :    0.021546    0.002108
Sum of atomic charges       :    0.0000000

LOEWDIN ATOMIC CHARGES AND SPIN DENSITIES
-----------------------------------------
   0 O :    0.119228   -0.000542
   1 O :    0.109243   -0.010588
   2 O :    0.096045   -0.000018
   3 O :    0.097144   -0.000188
   4 N :    0.288116   -0.000429
   5 N :    0.287404   -0.001100
   6 N :    0.344073   -0.000295
   7 N :    0.332596   -0.001858
   8 C :   -0.207981   -0.001487
   9 C :    0.135962    0.040756
  10 C :   -0.056951   -0.001174
  11 C :   -0.070547   -0.002222
  12 C :    0.196332   -0.001223
  13 C :    0.109678   -0.004486
  14 C :   -0.375914   -0.000495
  15 C :   -0.476373   -0.007075
  16 C :   -0.475475   -0.000090
  17 C :   -0.475040   -0.000387
  18 H :    0.054860   -0.000098
  19 H :    0.015901   -0.001246
  20 H :   -0.009946   -0.000679
  21 H :    0.004963   -0.000109
  22 H :    0.013129   -0.000510
  23 H :    0.010812   -0.001115
  24 H :   -0.007865    0.000274
  25 H :    0.001197   -0.003234
  26 H :   -0.025200   -0.000022
  27 H :   -0.025873   -0.000039
  28 H :   -0.004379   -0.000040
  29 H :   -0.005137   -0.000281

  Mayer bond orders larger than 0.100000
B(  0-O ,  8-C ) :  -0.1534 B(  0-O , 14-C ) :   1.6043 B(  1-O , 15-C ) :   1.3750
B(  2-O , 16-C ) :   1.5716 B(  3-O , 17-C ) :   1.4782 B(  4-N , 10-C ) :   0.6462
B(  4-N , 16-C ) :   1.1007 B(  4-N , 26-H ) :   1.1288 B(  5-N , 11-C ) :   0.7396
B(  5-N , 17-C ) :   0.9472 B(  5-N , 19-H ) :  -0.1285 B(  5-N , 27-H ) :   1.0603
B(  6-N , 14-C ) :   1.0736 B(  6-N , 16-C ) :   0.9375 B(  6-N , 28-H ) :   1.1088
B(  7-N , 15-C ) :   0.9476 B(  7-N , 17-C ) :   0.9721 B(  7-N , 29-H ) :   1.1105
B(  8-C , 10-C ) :   0.4467 B(  8-C , 14-C ) :   0.1684 B(  8-C , 20-H ) :  -0.1175
B(  8-C , 21-H ) :  -0.1405 B(  9-C , 12-C ) :  -0.1112 B(  9-C , 13-C ) :   0.3473
B(  9-C , 15-C ) :   0.6884 B( 10-C , 11-C ) :   0.7551 B( 10-C , 12-C ) :  -0.1102
B( 10-C , 16-C ) :  -0.1172 B( 10-C , 18-H ) :   1.1404 B( 11-C , 15-C ) :   0.1188
B( 11-C , 19-H ) :   1.0887 B( 12-C , 14-C ) :   0.1022 B( 12-C , 20-H ) :   1.0255
B( 12-C , 21-H ) :   1.0766 B( 12-C , 22-H ) :   0.7430 B( 13-C , 23-H ) :   0.9633
B( 13-C , 24-H ) :   0.9882 B( 13-C , 25-H ) :   0.8635 B( 15-C , 17-C ) :  -0.1202

Dispersion correction           -0.059106884
FINAL SINGLE POINT ENERGY      -908.661448353980

DIPOLE MOMENT
-------------

Method             : TDA/CIS
Type of density    : Electron Density
Level              : Relaxed density
State              :   2
Multiplicity       :   3
Irrep              :   0
Energy             :     0.0000000000000000 Eh
Relativity type    :
Basis              : AO
                                X                 Y                 Z
Electronic contribution:     -0.590755263      -9.800142110      -7.077206864
Nuclear contribution   :      0.457799717      10.766096398       9.691710679
                        -----------------------------------------
Total Dipole Moment    :     -0.132955546       0.965954288       2.614503815
                        -----------------------------------------
Magnitude (a.u.)       :      2.790407687
Magnitude (Debye)      :      7.092652679

Rotational constants in cm-1:             0.022695             0.013335             0.011888
Rotational constants in MHz :           680.390301           399.781292           356.381809

                             ****ORCA TERMINATED NORMALLY****
TOTAL RUN TIME: 0 days 0 hours 5 minutes 50 seconds 324 msec
