                         Program Version 6.0.0  -   RELEASE  -
|  1> ! Engrad def2-TZVPPD wB97M-D3BJ
|  2> %pal nprocs 8 end%pal nprocs 64 end
|  3> %tddft
|  4>  Iroot 1 Nroots 3
|  5> sf true
|  6> end
|  7> *xyz 0 3
|  8> O   0.1816296 0.41273601 1.11559852
|  9> C   0.0355813 -0.35670464 -0.0637001
| 10> C   1.08119973 0.11457991 -0.93988984
| 11> H   -1.04199832 -0.06520225 -0.36733946
| 12> H   -0.10577786 -1.35815329 0.30716106
| 13> H   1.64184973 -0.59972387 -1.47707152
| 14> H   1.22519932 1.16302884 -1.07847953
| 15> *
| 16>
| 17>                          ****END OF INPUT****

CARTESIAN COORDINATES (ANGSTROEM)
---------------------------------
  O      0.181630    0.412736    1.115599
  C      0.035581   -0.356705   -0.063700
  C      1.081200    0.114580   -0.939890
  H     -1.041998   -0.065202   -0.367339
  H     -0.105778   -1.358153    0.307161
  H      1.641850   -0.599724   -1.477072
  H      1.225199    1.163029   -1.078480

 Total Charge           Charge          ....    0
 Multiplicity           Mult            ....    3
 Number of Electrons    NEL             ....   24
 Basis Dimension        Dim             ....  182

ORBITAL ENERGIES
----------------
                 SPIN UP ORBITALS
  NO   OCC          E(Eh)            E(eV)
   0   1.0000     -19.379947      -527.3552
   1   1.0000     -10.413169      -283.3567
   2   1.0000     -10.363676      -282.0100
   3   1.0000      -1.152500       -31.3611
   4   1.0000      -0.878817       -23.9138
   5   1.0000      -0.741078       -20.1657
   6   1.0000      -0.612297       -16.6614
   7   1.0000      -0.589721       -16.0471
   8   1.0000      -0.548704       -14.9310
   9   1.0000      -0.514534       -14.0012
  10   1.0000      -0.433712       -11.8019
  11   1.0000      -0.415887       -11.3169
  12   1.0000      -0.321692        -8.7537
  13   0.0000       0.041434         1.1275
  14   0.0000       0.060668         1.6509
  15   0.0000       0.078786         2.1439
  16   0.0000       0.087201         2.3729
  17   0.0000       0.114506         3.1159

                 SPIN DOWN ORBITALS
  NO   OCC          E(Eh)            E(eV)
   0   1.0000     -19.355206      -526.6819
   1   1.0000     -10.414621      -283.3963
   2   1.0000     -10.350616      -281.6546
   3   1.0000      -1.097445       -29.8630
   4   1.0000      -0.844171       -22.9711
   5   1.0000      -0.716701       -19.5024
   6   1.0000      -0.590461       -16.0673
   7   1.0000      -0.549651       -14.9568
   8   1.0000      -0.521505       -14.1909
   9   1.0000      -0.485761       -13.2182
  10   1.0000      -0.381444       -10.3796
  11   0.0000      -0.044663        -1.2153
  12   0.0000      -0.001165        -0.0317
  13   0.0000       0.040483         1.1016
  14   0.0000       0.060685         1.6513
  15   0.0000       0.078514         2.1365

----------------------------------------------------------------------------------------------------
          SPIN FLIP ABSORPTION SPECTRUM VIA TRANSITION ELECTRIC DIPOLE MOMENTS
----------------------------------------------------------------------------------------------------
     Transition      Energy     Energy  Wavelength fosc(D2)      D2        DX        DY        DZ
                      (eV)      (cm-1)    (nm)                 (au**2)    (au)      (au)      (au)
----------------------------------------------------------------------------------------------------
  1-3A  ->  2-3A    0.216261    1744.3  5733.1   0.000115595   0.02182  -0.08173   0.07173   0.09997
  1-3A  ->  3-3A    1.124496    9069.7  1102.6   0.004643657   0.16856  -0.00972  -0.15641  -0.37947

Dispersion correction             ... done (  0.2 sec)

MULLIKEN ATOMIC CHARGES AND SPIN DENSITIES
------------------------------------------
   0 O :   -0.439314   -0.454055
   1 C :    0.026084    0.009864
   2 C :   -0.492474    0.384844
   3 H :    0.192602    0.051562
   4 H :    0.219915   -0.064621
   5 H :    0.228231    0.040021
   6 H :    0.264955    0.032386
Sum of atomic charges       :   -0.0000000

LOEWDIN ATOMIC CHARGES AND SPIN DENSITIES
-----------------------------------------
   0 O :   -0.078244   -0.447899
   1 C :   -0.266412    0.012434
   2 C :    0.356075    0.371117
   3 H :    0.058383    0.015186
   4 H :    0.006091   -0.042145
   5 H :   -0.046284    0.046284
   6 H :   -0.029608    0.045023

  Mayer bond orders larger than 0.100000
B(  0-O ,  1-C ) :   0.7636 B(  0-O ,  2-C ) :   0.4902 B(  1-C ,  2-C ) :   0.8139
B(  1-C ,  3-H ) :   0.9837 B(  1-C ,  4-H ) :   0.9491 B(  2-C ,  5-H ) :   0.9339
B(  2-C ,  6-H ) :   0.9506

Dispersion correction           -0.005539158
FINAL SINGLE POINT ENERGY      -153.749635186259

DIPOLE MOMENT
-------------

Method             : TDA/CIS
Type of density    : Electron Density
Level              : Relaxed density
State              :   1
Multiplicity       :   3
Irrep              :   0
Energy             :     0.0000000000000000 Eh
Relativity type    :
Basis              : AO
                                X                 Y                 Z
Electronic contribution:      0.083570305       0.564319011       1.437071059
Nuclear contribution   :      0.071777369      -1.042654225      -2.707568033
                        -----------------------------------------
Total Dipole Moment    :      0.155347674      -0.478335214      -1.270496974
                        -----------------------------------------
Magnitude (a.u.)       :      1.366418690
Magnitude (Debye)      :      3.473160295

Rotational constants in cm-1:             1.278763             0.387763             0.324681
Rotational constants in MHz :         38336.337633         11624.844646          9733.683166

                             ****ORCA TERMINATED NORMALLY****
TOTAL RUN TIME: 0 days 0 hours 0 minutes 28 seconds 481 msec
