                         Program Version 6.0.0  -   RELEASE  -
|  1> ! Engrad def2-TZVPPD wB97M-D3BJ
|  2> %pal nprocs 8 end%pal nprocs 64 end
|  3> %tddft
|  4>  Iroot 2 Nroots 3
|  5> sf true
|  6> end
|  7> *xyz 0 3
|  8> O   -0.71255042 0.34347395 -0.17370735
|  9> C   0.65527559 0.56416647 0.22276414
| 10> C   1.39956837 -0.76012445 0.15983246
| 11> H   0.48565593 0.82097017 1.35216589
| 12> H   1.07246349 1.33839078 -0.33795544
| 13> H   0.94513409 -1.67728132 0.61376806
| 14> H   2.45577726 -0.83787854 -0.22062195
| 15> *
| 16>
| 17>                          ****END OF INPUT****

CARTESIAN COORDINATES (ANGSTROEM)
---------------------------------
  O     -0.712550    0.343474   -0.173707
  C      0.655276    0.564166    0.222764
  C      1.399568   -0.760124    0.159832
  H      0.485656    0.820970    1.352166
  H      1.072463    1.338391   -0.337955
  H      0.945134   -1.677281    0.613768
  H      2.455777   -0.837879   -0.220622

 Total Charge           Charge          ....    0
 Multiplicity           Mult            ....    3
 Number of Electrons    NEL             ....   24
 Basis Dimension        Dim             ....  182

ORBITAL ENERGIES
----------------
                 SPIN UP ORBITALS
  NO   OCC          E(Eh)            E(eV)
   0   1.0000     -19.387953      -527.5730
   1   1.0000     -10.421457      -283.5823
   2   1.0000     -10.382217      -282.5145
   3   1.0000      -1.143936       -31.1281
   4   1.0000      -0.868026       -23.6202
   5   1.0000      -0.732064       -19.9205
   6   1.0000      -0.610954       -16.6249
   7   1.0000      -0.573642       -15.6096
   8   1.0000      -0.539682       -14.6855
   9   1.0000      -0.508179       -13.8282
  10   1.0000      -0.443944       -12.0803
  11   1.0000      -0.417553       -11.3622
  12   1.0000      -0.326340        -8.8802
  13   0.0000       0.041285         1.1234
  14   0.0000       0.060445         1.6448
  15   0.0000       0.078312         2.1310
  16   0.0000       0.087692         2.3862
  17   0.0000       0.111565         3.0358

                 SPIN DOWN ORBITALS
  NO   OCC          E(Eh)            E(eV)
   0   1.0000     -19.363300      -526.9022
   1   1.0000     -10.422970      -283.6234
   2   1.0000     -10.368396      -282.1384
   3   1.0000      -1.086646       -29.5691
   4   1.0000      -0.835493       -22.7349
   5   1.0000      -0.706673       -19.2295
   6   1.0000      -0.588969       -16.0267
   7   1.0000      -0.526982       -14.3399
   8   1.0000      -0.516559       -14.0563
   9   1.0000      -0.488538       -13.2938
  10   1.0000      -0.386367       -10.5136
  11   0.0000      -0.047774        -1.3000
  12   0.0000      -0.002952        -0.0803
  13   0.0000       0.041291         1.1236
  14   0.0000       0.061015         1.6603
  15   0.0000       0.078616         2.1393

----------------------------------------------------------------------------------------------------
          SPIN FLIP ABSORPTION SPECTRUM VIA TRANSITION ELECTRIC DIPOLE MOMENTS
----------------------------------------------------------------------------------------------------
     Transition      Energy     Energy  Wavelength fosc(D2)      D2        DX        DY        DZ
                      (eV)      (cm-1)    (nm)                 (au**2)    (au)      (au)      (au)
----------------------------------------------------------------------------------------------------
  1-3A  ->  2-3A    0.061118     493.0  20286.0   0.000137832   0.09205   0.27094  -0.12880  -0.04528
  1-3A  ->  3-1A    0.962243    7761.0  1288.5   0.011424360   0.48461  -0.62419   0.25119  -0.17860

Dispersion correction             ... done (  0.2 sec)

MULLIKEN ATOMIC CHARGES AND SPIN DENSITIES
------------------------------------------
   0 O :   -0.343170    0.155255
   1 C :   -0.107901   -0.003540
   2 C :   -0.333098   -0.131049
   3 H :    0.189267    0.053794
   4 H :    0.248140   -0.014866
   5 H :    0.171141   -0.030803
   6 H :    0.175622   -0.028791
Sum of atomic charges       :   -0.0000000

LOEWDIN ATOMIC CHARGES AND SPIN DENSITIES
-----------------------------------------
   0 O :   -0.030902    0.131146
   1 C :   -0.191602    0.012039
   2 C :    0.254652   -0.139056
   3 H :    0.077573    0.036873
   4 H :   -0.022757   -0.004638
   5 H :   -0.040031   -0.014917
   6 H :   -0.046934   -0.021447

  Mayer bond orders larger than 0.100000
B(  0-O ,  1-C ) :   0.8933 B(  0-O ,  2-C ) :   0.1105 B(  1-C ,  2-C ) :   0.8613
B(  1-C ,  3-H ) :   0.9385 B(  1-C ,  4-H ) :   0.9326 B(  2-C ,  5-H ) :   0.9997
B(  2-C ,  6-H ) :   0.9948

Dispersion correction           -0.005425237
FINAL SINGLE POINT ENERGY      -153.742208666914

DIPOLE MOMENT
-------------

Method             : TDA/CIS
Type of density    : Electron Density
Level              : Relaxed density
State              :   2
Multiplicity       :   3
Irrep              :   0
Energy             :     0.0000000000000000 Eh
Relativity type    :
Basis              : AO
                                X                 Y                 Z
Electronic contribution:     -2.199561373       0.687374413      -0.750952878
Nuclear contribution   :      3.078624277      -0.566724910       1.041130218
                        -----------------------------------------
Total Dipole Moment    :      0.879062904       0.120649504       0.290177340
                        -----------------------------------------
Magnitude (a.u.)       :      0.933547417
Magnitude (Debye)      :      2.372888958

Rotational constants in cm-1:             1.302579             0.342124             0.295442
Rotational constants in MHz :         39050.344810         10256.620474          8857.116591

                             ****ORCA TERMINATED NORMALLY****
TOTAL RUN TIME: 0 days 0 hours 0 minutes 28 seconds 226 msec
