                         Program Version 6.0.0  -   RELEASE  -
|  1> ! Opt wB97M-D3BJ def2-TZVPPD
|  2> %pal nprocs 8 end %pal nprocs 64 end
|  3> %geom
|  4> Constraints
|  5>     {A 2 1 0 124.0677966101695 C }
|  6> end
|  7> MaxIter 200
|  8> end
|  9> *xyz 0 1
| 10> O   1.553007988466455 0.7815192316786365 0.0
| 11> C   0.7509 -0.4065 0.0
| 12> C   -0.7502 -0.4076 0.0
| 13> H   1.2625 -0.6786 0.9136
| 14> H   1.2625 -0.6787 -0.9136
| 15> H   -1.2614 -0.6806 -0.9136
| 16> H   -1.2614 -0.6805 0.9136
| 17> *
| 18>
| 19>                          ****END OF INPUT****
 Total Charge           Charge          ....    0
 Multiplicity           Mult            ....    1
 Number of Electrons    NEL             ....   24
Dispersion correction           -0.005371813
FINAL SINGLE POINT ENERGY      -153.694358451419
Dispersion correction             ... done (  0.1 sec)
Dispersion correction           -0.005433296
FINAL SINGLE POINT ENERGY      -153.710868962194
Dispersion correction             ... done (  0.1 sec)
Dispersion correction           -0.005498707
FINAL SINGLE POINT ENERGY      -153.723499466795
Dispersion correction             ... done (  0.1 sec)
FINAL SINGLE POINT ENERGY      -153.732364303345
FINAL SINGLE POINT ENERGY      -153.747565360188
FINAL SINGLE POINT ENERGY      -153.772966669536
FINAL SINGLE POINT ENERGY      -153.794233917126
FINAL SINGLE POINT ENERGY      -153.819140931415
FINAL SINGLE POINT ENERGY      -153.853174917977
FINAL SINGLE POINT ENERGY      -153.873218073676
FINAL SINGLE POINT ENERGY      -153.931428934203
FINAL SINGLE POINT ENERGY      -153.931472670652
FINAL SINGLE POINT ENERGY      -153.931572135262
FINAL SINGLE POINT ENERGY      -153.931710285608
FINAL SINGLE POINT ENERGY      -153.931845686316
FINAL SINGLE POINT ENERGY      -153.931943742837
FINAL SINGLE POINT ENERGY      -153.931919589901
Dispersion correction             ... done (  0.1 sec)
Dispersion correction           -0.005537055
FINAL SINGLE POINT ENERGY      -153.931959737285
Dispersion correction             ... done (  0.1 sec)
Dispersion correction           -0.005537281
FINAL SINGLE POINT ENERGY      -153.931961798772
Dispersion correction             ... done (  0.1 sec)
                    ***********************HURRAY********************

CARTESIAN COORDINATES (ANGSTROEM)
---------------------------------
  O      1.299470    1.077358   -0.096987
  C      0.925153   -0.002254    0.276432
  C     -0.317457   -0.678903   -0.220895
  H      1.506692   -0.562444    1.033352
  H     -0.055192   -1.643737   -0.656773
  H     -0.821626   -0.059238   -0.955746
  H     -0.981133   -0.881763    0.620617

 Multiplicity           Mult            ....    1
 Number of Electrons    NEL             ....   24
 Basis Dimension        Dim             ....  182

ORBITAL ENERGIES
----------------

  NO   OCC          E(Eh)            E(eV)
   0   2.0000     -19.339143      -526.2448
   1   2.0000     -10.442906      -284.1659
   2   2.0000     -10.356677      -281.8195
   3   2.0000      -1.188052       -32.3285
   4   2.0000      -0.883142       -24.0315
   5   2.0000      -0.703177       -19.1344
   6   2.0000      -0.598346       -16.2818
   7   2.0000      -0.560362       -15.2482
   8   2.0000      -0.553345       -15.0573
   9   2.0000      -0.508159       -13.8277
  10   2.0000      -0.475724       -12.9451
  11   2.0000      -0.368554       -10.0289
  12   0.0000       0.037774         1.0279
  13   0.0000       0.054372         1.4795
  14   0.0000       0.059181         1.6104
  15   0.0000       0.083467         2.2712
  16   0.0000       0.086337         2.3494

MULLIKEN ATOMIC CHARGES
-----------------------
   0 O :   -0.475015
   1 C :    0.236011
   2 C :   -0.695824
   3 H :    0.241800
   4 H :    0.225576
   5 H :    0.242022
   6 H :    0.225430
Sum of atomic charges:   -0.0000000

LOEWDIN ATOMIC CHARGES
----------------------
   0 O :    0.067199
   1 C :   -0.227019
   2 C :    0.168212
   3 H :    0.023281
   4 H :   -0.011387
   5 H :   -0.008912
   6 H :   -0.011374

  Mayer bond orders larger than 0.100000
B(  0-O ,  1-C ) :   1.7702 B(  1-C ,  2-C ) :   0.7598 B(  1-C ,  3-H ) :   0.9852
B(  2-C ,  4-H ) :   0.9933 B(  2-C ,  5-H ) :   0.9569 B(  2-C ,  6-H ) :   0.9932

Dispersion correction           -0.005537290
FINAL SINGLE POINT ENERGY      -153.931961998847

DIPOLE MOMENT
-------------

Method             : SCF
Type of density    : Electron Density
Multiplicity       :   1
Irrep              :   0
Energy             :  -153.9264247089564037 Eh
Relativity type    :
Basis              : AO
                                X                 Y                 Z
Electronic contribution:      2.184598244       2.452872742       0.119009174
Nuclear contribution   :     -2.682289512      -3.439796319       0.109536421
                        -----------------------------------------
Total Dipole Moment    :     -0.497691267      -0.986923577       0.228545595
                        -----------------------------------------
Magnitude (a.u.)       :      1.128692975
Magnitude (Debye)      :      2.868909548

Rotational constants in cm-1:             1.901944             0.342081             0.306230
Rotational constants in MHz :         57018.849871         10255.315921          9180.558897

                             ****ORCA TERMINATED NORMALLY****
TOTAL RUN TIME: 0 days 0 hours 7 minutes 20 seconds 210 msec
