                         Program Version 6.0.0  -   RELEASE  -
|  1> ! Engrad def2-TZVPPD wB97M-D3BJ
|  2> %pal nprocs 8 end%pal nprocs 64 end
|  3> %tddft Nroots 2 Iroot 1
|  4> sf true
|  5> end
|  6> *xyz 0 3
|  7> O   4.16140687 -0.24439096 1.11629704
|  8> O   -2.17559418 1.91087171 -2.09620522
|  9> O   1.33531456 -2.87190838 -1.19692375
| 10> O   -3.60731851 -1.57838268 0.39389843
| 11> N   0.45210873 -0.99207904 -0.22713689
| 12> N   -1.93668761 -0.30906207 1.24353882
| 13> N   2.59978748 -1.70754287 0.29445581
| 14> N   -2.66398681 0.02142424 -0.92654586
| 15> C   1.88214829 0.43364992 1.05598331
| 16> C   -1.11982041 1.60183653 -0.00883856
| 17> C   0.51513046 -0.21387716 0.99466489
| 18> C   -0.84031346 0.63049268 1.11057072
| 19> C   2.13610113 1.84169145 1.32431238
| 20> C   -0.564271 2.97299779 0.03027678
| 21> C   2.9863955 -0.48758776 0.85840174
| 22> C   -1.99214711 1.23724446 -1.09258621
| 23> C   1.4295935 -1.92590253 -0.43860453
| 24> C   -2.80627183 -0.6883136 0.26118703
| 25> H   0.47561276 -0.9015978 1.85989763
| 26> H   -0.74620195 1.21321812 2.03605413
| 27> H   3.180548 2.00477218 1.64256799
| 28> H   1.995579 2.43838873 0.44707189
| 29> H   1.45132423 2.24202111 2.05307391
| 30> H   -0.53239923 3.35769089 1.03538154
| 31> H   0.44546603 3.01849408 -0.30945894
| 32> H   -1.13597036 3.63967319 -0.60634342
| 33> H   -0.42570939 -1.26317005 -0.59939214
| 34> H   -2.01119448 -0.86124229 2.08513144
| 35> H   3.3693113 -2.32756241 0.08941519
| 36> H   -3.33295357 -0.20718149 -1.6402134
| 37> *
| 38>
| 39>                          ****END OF INPUT****

CARTESIAN COORDINATES (ANGSTROEM)
---------------------------------
  O      4.161407   -0.244391    1.116297
  O     -2.175594    1.910872   -2.096205
  O      1.335315   -2.871908   -1.196924
  O     -3.607319   -1.578383    0.393898
  N      0.452109   -0.992079   -0.227137
  N     -1.936688   -0.309062    1.243539
  N      2.599787   -1.707543    0.294456
  N     -2.663987    0.021424   -0.926546
  C      1.882148    0.433650    1.055983
  C     -1.119820    1.601837   -0.008839
  C      0.515130   -0.213877    0.994665
  C     -0.840313    0.630493    1.110571
  C      2.136101    1.841691    1.324312
  C     -0.564271    2.972998    0.030277
  C      2.986395   -0.487588    0.858402
  C     -1.992147    1.237244   -1.092586
  C      1.429593   -1.925903   -0.438605
  C     -2.806272   -0.688314    0.261187
  H      0.475613   -0.901598    1.859898
  H     -0.746202    1.213218    2.036054
  H      3.180548    2.004772    1.642568
  H      1.995579    2.438389    0.447072
  H      1.451324    2.242021    2.053074
  H     -0.532399    3.357691    1.035382
  H      0.445466    3.018494   -0.309459
  H     -1.135970    3.639673   -0.606343
  H     -0.425709   -1.263170   -0.599392
  H     -2.011194   -0.861242    2.085131
  H      3.369311   -2.327562    0.089415
  H     -3.332954   -0.207181   -1.640213

 Total Charge           Charge          ....    0
 Multiplicity           Mult            ....    3
 Number of Electrons    NEL             ....  132
 Basis Dimension        Dim             ....  882

ORBITAL ENERGIES
----------------
                 SPIN UP ORBITALS
  NO   OCC          E(Eh)            E(eV)
   0   1.0000     -19.343496      -526.3633
   1   1.0000     -19.339635      -526.2582
   2   1.0000     -19.327049      -525.9158
   3   1.0000     -19.319676      -525.7151
   4   1.0000     -14.570631      -396.4870
   5   1.0000     -14.569737      -396.4627
   6   1.0000     -14.563730      -396.2993
   7   1.0000     -14.558915      -396.1682
   8   1.0000     -10.513288      -286.0811
   9   1.0000     -10.504602      -285.8447
  10   1.0000     -10.489495      -285.4337
  11   1.0000     -10.484515      -285.2981
  12   1.0000     -10.461578      -284.6740
  13   1.0000     -10.451490      -284.3995
  14   1.0000     -10.430075      -283.8168
  15   1.0000     -10.421940      -283.5954
  16   1.0000     -10.376074      -282.3473
  17   1.0000     -10.375283      -282.3258
  18   1.0000      -1.228824       -33.4380
  19   1.0000      -1.217458       -33.1287
  20   1.0000      -1.204430       -32.7742
  21   1.0000      -1.194365       -32.5003
  22   1.0000      -1.125787       -30.6342
  23   1.0000      -1.104841       -30.0642
  24   1.0000      -1.071637       -29.1607
  25   1.0000      -1.058776       -28.8108
  26   1.0000      -0.985951       -26.8291
  27   1.0000      -0.966025       -26.2869
  28   1.0000      -0.899590       -24.4791
  29   1.0000      -0.852199       -23.1895
  30   1.0000      -0.841672       -22.9031
  31   1.0000      -0.798784       -21.7360
  32   1.0000      -0.793373       -21.5888
  33   1.0000      -0.786080       -21.3903
  34   1.0000      -0.706787       -19.2327
  35   1.0000      -0.701916       -19.1001
  36   1.0000      -0.697483       -18.9795
  37   1.0000      -0.681841       -18.5538
  38   1.0000      -0.652211       -17.7476
  39   1.0000      -0.639980       -17.4147
  40   1.0000      -0.629851       -17.1391
  41   1.0000      -0.610114       -16.6021
  42   1.0000      -0.606784       -16.5114
  43   1.0000      -0.588829       -16.0229
  44   1.0000      -0.585632       -15.9359
  45   1.0000      -0.578693       -15.7470
  46   1.0000      -0.572599       -15.5812
  47   1.0000      -0.569946       -15.5090
  48   1.0000      -0.567504       -15.4426
  49   1.0000      -0.560866       -15.2619
  50   1.0000      -0.555513       -15.1163
  51   1.0000      -0.543899       -14.8002
  52   1.0000      -0.542502       -14.7622
  53   1.0000      -0.528840       -14.3905
  54   1.0000      -0.517033       -14.0692
  55   1.0000      -0.516303       -14.0493
  56   1.0000      -0.498072       -13.5532
  57   1.0000      -0.429551       -11.6887
  58   1.0000      -0.427604       -11.6357
  59   1.0000      -0.414391       -11.2762
  60   1.0000      -0.408641       -11.1197
  61   1.0000      -0.402837       -10.9617
  62   1.0000      -0.400135       -10.8882
  63   1.0000      -0.391485       -10.6529
  64   1.0000      -0.385070       -10.4783
  65   1.0000      -0.351145        -9.5551
  66   1.0000      -0.343253        -9.3404
  67   0.0000       0.006441         0.1753
  68   0.0000       0.027819         0.7570
  69   0.0000       0.032169         0.8754
  70   0.0000       0.032901         0.8953
  71   0.0000       0.053972         1.4686

                 SPIN DOWN ORBITALS
  NO   OCC          E(Eh)            E(eV)
   0   1.0000     -19.338812      -526.2358
   1   1.0000     -19.335007      -526.1323
   2   1.0000     -19.326938      -525.9127
   3   1.0000     -19.319517      -525.7108
   4   1.0000     -14.570483      -396.4830
   5   1.0000     -14.569230      -396.4489
   6   1.0000     -14.563420      -396.2908
   7   1.0000     -14.558258      -396.1504
   8   1.0000     -10.513322      -286.0820
   9   1.0000     -10.504631      -285.8456
  10   1.0000     -10.490582      -285.4633
  11   1.0000     -10.485531      -285.3258
  12   1.0000     -10.462329      -284.6944
  13   1.0000     -10.451022      -284.3868
  14   1.0000     -10.418760      -283.5089
  15   1.0000     -10.410461      -283.2830
  16   1.0000     -10.376598      -282.3616
  17   1.0000     -10.375818      -282.3404
  18   1.0000      -1.227431       -33.4001
  19   1.0000      -1.215430       -33.0735
  20   1.0000      -1.198731       -32.6191
  21   1.0000      -1.189139       -32.3581
  22   1.0000      -1.123516       -30.5724
  23   1.0000      -1.102440       -29.9989
  24   1.0000      -1.069917       -29.1139
  25   1.0000      -1.057199       -28.7678
  26   1.0000      -0.972622       -26.4664
  27   1.0000      -0.948237       -25.8028
  28   1.0000      -0.895688       -24.3729
  29   1.0000      -0.846887       -23.0450
  30   1.0000      -0.831818       -22.6349
  31   1.0000      -0.795316       -21.6416
  32   1.0000      -0.790382       -21.5074
  33   1.0000      -0.784606       -21.3502
  34   1.0000      -0.702038       -19.1034
  35   1.0000      -0.695560       -18.9272
  36   1.0000      -0.691782       -18.8243
  37   1.0000      -0.674001       -18.3405
  38   1.0000      -0.645419       -17.5628
  39   1.0000      -0.629726       -17.1357
  40   1.0000      -0.626157       -17.0386
  41   1.0000      -0.603907       -16.4331
  42   1.0000      -0.601293       -16.3620
  43   1.0000      -0.583539       -15.8789
  44   1.0000      -0.577678       -15.7194
  45   1.0000      -0.570824       -15.5329
  46   1.0000      -0.567867       -15.4524
  47   1.0000      -0.564321       -15.3560
  48   1.0000      -0.559997       -15.2383
  49   1.0000      -0.552425       -15.0323
  50   1.0000      -0.547688       -14.9034
  51   1.0000      -0.537553       -14.6276
  52   1.0000      -0.532043       -14.4776
  53   1.0000      -0.519920       -14.1478
  54   1.0000      -0.509934       -13.8760
  55   1.0000      -0.507585       -13.8121
  56   1.0000      -0.493293       -13.4232
  57   1.0000      -0.425978       -11.5914
  58   1.0000      -0.422736       -11.5032
  59   1.0000      -0.401826       -10.9342
  60   1.0000      -0.400098       -10.8872
  61   1.0000      -0.396637       -10.7931
  62   1.0000      -0.394752       -10.7418
  63   1.0000      -0.386425       -10.5152
  64   1.0000      -0.381879       -10.3915
  65   0.0000      -0.068814        -1.8725
  66   0.0000      -0.056378        -1.5341
  67   0.0000       0.005979         0.1627
  68   0.0000       0.027552         0.7497
  69   0.0000       0.032071         0.8727

----------------------------------------------------------------------------------------------------
          SPIN FLIP ABSORPTION SPECTRUM VIA TRANSITION ELECTRIC DIPOLE MOMENTS
----------------------------------------------------------------------------------------------------
     Transition      Energy     Energy  Wavelength fosc(D2)      D2        DX        DY        DZ
                      (eV)      (cm-1)    (nm)                 (au**2)    (au)      (au)      (au)
----------------------------------------------------------------------------------------------------
  1-3A  ->  2-3A    0.023970     193.3  51725.4   0.000000028   0.00005   0.00559  -0.00288   0.00278

Dispersion correction             ... done (  0.1 sec)

MULLIKEN ATOMIC CHARGES AND SPIN DENSITIES
------------------------------------------
   0 O :   -0.636926    0.165501
   1 O :   -0.673958   -0.171989
   2 O :   -0.641559    0.002715
   3 O :   -0.636620   -0.004790
   4 N :   -0.187313    0.027700
   5 N :   -0.213337   -0.024599
   6 N :   -0.039061    0.017394
   7 N :   -0.006031   -0.026355
   8 C :    0.100985    0.434523
   9 C :    1.462439    0.297763
  10 C :    0.662046    0.006545
  11 C :   -0.250833   -0.406182
  12 C :   -1.401125    0.021247
  13 C :   -1.537504   -0.046361
  14 C :    0.447550    0.114649
  15 C :   -0.084648   -0.504502
  16 C :    0.272535   -0.009557
  17 C :    0.440506    0.018177
  18 H :    0.331033    0.058649
  19 H :    0.511876   -0.009490
  20 H :    0.317373    0.014077
  21 H :    0.211325    0.043034
  22 H :    0.291750    0.001269
  23 H :    0.363890    0.016223
  24 H :    0.259363   -0.012186
  25 H :    0.333931   -0.025513
  26 H :    0.116315   -0.003986
  27 H :    0.053008    0.001770
  28 H :    0.093094   -0.001492
  29 H :    0.039894    0.005767
Sum of atomic charges       :    0.0000000

LOEWDIN ATOMIC CHARGES AND SPIN DENSITIES
-----------------------------------------
   0 O :    0.087735    0.148583
   1 O :    0.083091   -0.152806
   2 O :    0.089336    0.004349
   3 O :    0.098168   -0.004911
   4 N :    0.291340    0.014785
   5 N :    0.268477   -0.005266
   6 N :    0.318598    0.010471
   7 N :    0.320042   -0.022883
   8 C :   -0.002782    0.505395
   9 C :    0.030729   -0.483610
  10 C :   -0.086823    0.029290
  11 C :   -0.093624   -0.058898
  12 C :    0.189689    0.086310
  13 C :    0.199496   -0.075496
  14 C :   -0.386530    0.079399
  15 C :   -0.412250   -0.092862
  16 C :   -0.463967    0.001158
  17 C :   -0.501844   -0.001563
  18 H :    0.060460    0.018192
  19 H :    0.052817   -0.008187
  20 H :    0.022240    0.002888
  21 H :   -0.027557    0.028060
  22 H :   -0.008327    0.012285
  23 H :    0.000656   -0.009275
  24 H :   -0.028968   -0.022949
  25 H :    0.009595   -0.003342
  26 H :   -0.060824    0.001785
  27 H :   -0.020163   -0.000000
  28 H :   -0.013582    0.000998
  29 H :   -0.015227   -0.001900

  Mayer bond orders larger than 0.100000
B(  0-O ,  8-C ) :   0.1165 B(  0-O , 14-C ) :   1.3567 B(  1-O , 15-C ) :   1.3107
B(  2-O , 16-C ) :   1.5962 B(  3-O , 17-C ) :   1.6090 B(  4-N ,  8-C ) :   0.3415
B(  4-N , 11-C ) :   0.1678 B(  4-N , 16-C ) :   1.2014 B(  4-N , 26-H ) :   1.0062
B(  5-N , 10-C ) :   0.1886 B(  5-N , 11-C ) :   0.2930 B(  5-N , 17-C ) :   1.0807
B(  5-N , 27-H ) :   1.1231 B(  6-N ,  8-C ) :  -0.1355 B(  6-N , 14-C ) :   1.0338
B(  6-N , 16-C ) :   0.9478 B(  6-N , 28-H ) :   1.0422 B(  7-N , 15-C ) :   1.0055
B(  7-N , 17-C ) :   0.9931 B(  7-N , 29-H ) :   1.1015 B(  8-C , 10-C ) :  -0.5644
B(  8-C , 11-C ) :   0.1974 B(  8-C , 12-C ) :   0.4108 B(  8-C , 14-C ) :   0.7990
B(  8-C , 22-H ) :  -0.1112 B(  9-C , 10-C ) :   0.1306 B(  9-C , 11-C ) :   0.2644
B(  9-C , 13-C ) :   0.1706 B(  9-C , 15-C ) :   0.2331 B(  9-C , 19-H ) :  -0.1256
B(  9-C , 23-H ) :  -0.1356 B( 10-C , 11-C ) :   0.6866 B( 10-C , 16-C ) :  -0.1502
B( 10-C , 18-H ) :   0.8926 B( 11-C , 13-C ) :  -0.2282 B( 11-C , 15-C ) :   0.2707
B( 11-C , 17-C ) :  -0.1398 B( 11-C , 19-H ) :   0.8001 B( 12-C , 14-C ) :  -0.1673
B( 12-C , 20-H ) :   1.0045 B( 12-C , 21-H ) :   0.9003 B( 12-C , 22-H ) :   0.9913
B( 13-C , 23-H ) :   1.0004 B( 13-C , 24-H ) :   0.8531 B( 13-C , 25-H ) :   0.9396

Dispersion correction           -0.056699885
FINAL SINGLE POINT ENERGY      -908.794552623593

DIPOLE MOMENT
-------------

Method             : TDA/CIS
Type of density    : Electron Density
Level              : Relaxed density
State              :   1
Multiplicity       :   3
Irrep              :   0
Energy             :     0.0000000000000000 Eh
Relativity type    :
Basis              : AO
                                X                 Y                 Z
Electronic contribution:     -2.680229910     -10.260803282      -4.139971041
Nuclear contribution   :      2.730623362      11.938648405       6.030844158
                        -----------------------------------------
Total Dipole Moment    :      0.050393453       1.677845123       1.890873117
                        -----------------------------------------
Magnitude (a.u.)       :      2.528458997
Magnitude (Debye)      :      6.426832023

Rotational constants in cm-1:             0.021437             0.010719             0.008710
Rotational constants in MHz :           642.679144           321.337593           261.105863

                             ****ORCA TERMINATED NORMALLY****
TOTAL RUN TIME: 0 days 0 hours 4 minutes 20 seconds 632 msec
