                         Program Version 6.0.0  -   RELEASE  -
|  1> ! Engrad def2-TZVPPD wB97M-D3BJ
|  2> %pal nprocs 8 end%pal nprocs 64 end
|  3> %tddft Nroots 2 Iroot 2
|  4> sf true
|  5> end
|  6> *xyz 0 3
|  7> O   2.93284153 1.25105916 -0.49984185
|  8> O   -0.54062069 0.42650653 -1.84540698
|  9> O   1.42165006 -2.83639995 -1.81453705
| 10> O   -3.08823256 -1.35924619 1.44664127
| 11> N   0.79013 -2.03150271 0.23025433
| 12> N   -2.37051663 0.78697844 1.66377516
| 13> N   2.21092789 -0.81157061 -1.10928954
| 14> N   -1.9191605 -0.38520715 -0.25821065
| 15> C   1.53796922 0.12249322 0.99674773
| 16> C   -0.98843754 1.81387361 0.01748399
| 17> C   0.81391208 -1.08325498 1.18872635
| 18> C   -1.65634174 1.85446915 1.17784574
| 19> C   1.60760353 1.15993448 2.04741799
| 20> C   -0.17774345 2.95710612 -0.51844042
| 21> C   2.26463999 0.26217533 -0.22640102
| 22> C   -1.09721314 0.60039521 -0.79048781
| 23> C   1.4707074 -1.95898967 -0.98025555
| 24> C   -2.51690088 -0.40252756 0.98597106
| 25> H   0.26861491 -1.24632115 2.10584698
| 26> H   -1.6459929 2.72830274 1.80801436
| 27> H   1.34074691 2.13515887 1.62083912
| 28> H   0.95412044 0.95402265 2.88529105
| 29> H   2.63054793 1.26559185 2.39815815
| 30> H   -0.54448093 3.24925123 -1.49647872
| 31> H   -0.21926598 3.82143881 0.15262438
| 32> H   0.85997958 2.66588551 -0.64559865
| 33> H   0.23893755 -2.86625376 0.37410602
| 34> H   -2.84425409 0.81716129 2.54420329
| 35> H   2.68856866 -0.70124251 -1.97993755
| 36> H   -1.99191243 -1.24002244 -0.78339179
| 37> *
| 38>
| 39>                          ****END OF INPUT****

CARTESIAN COORDINATES (ANGSTROEM)
---------------------------------
  O      2.932842    1.251059   -0.499842
  O     -0.540621    0.426507   -1.845407
  O      1.421650   -2.836400   -1.814537
  O     -3.088233   -1.359246    1.446641
  N      0.790130   -2.031503    0.230254
  N     -2.370517    0.786978    1.663775
  N      2.210928   -0.811571   -1.109290
  N     -1.919161   -0.385207   -0.258211
  C      1.537969    0.122493    0.996748
  C     -0.988438    1.813874    0.017484
  C      0.813912   -1.083255    1.188726
  C     -1.656342    1.854469    1.177846
  C      1.607604    1.159934    2.047418
  C     -0.177743    2.957106   -0.518440
  C      2.264640    0.262175   -0.226401
  C     -1.097213    0.600395   -0.790488
  C      1.470707   -1.958990   -0.980256
  C     -2.516901   -0.402528    0.985971
  H      0.268615   -1.246321    2.105847
  H     -1.645993    2.728303    1.808014
  H      1.340747    2.135159    1.620839
  H      0.954120    0.954023    2.885291
  H      2.630548    1.265592    2.398158
  H     -0.544481    3.249251   -1.496479
  H     -0.219266    3.821439    0.152624
  H      0.859980    2.665886   -0.645599
  H      0.238938   -2.866254    0.374106
  H     -2.844254    0.817161    2.544203
  H      2.688569   -0.701243   -1.979938
  H     -1.991912   -1.240022   -0.783392

 Total Charge           Charge          ....    0
 Multiplicity           Mult            ....    3
 Number of Electrons    NEL             ....  132
 Basis Dimension        Dim             ....  882

ORBITAL ENERGIES
----------------
                 SPIN UP ORBITALS
  NO   OCC          E(Eh)            E(eV)
   0   1.0000     -19.330003      -525.9961
   1   1.0000     -19.325780      -525.8812
   2   1.0000     -19.324849      -525.8559
   3   1.0000     -19.318583      -525.6854
   4   1.0000     -14.587259      -396.9395
   5   1.0000     -14.585253      -396.8849
   6   1.0000     -14.571036      -396.4981
   7   1.0000     -14.547116      -395.8472
   8   1.0000     -10.515024      -286.1283
   9   1.0000     -10.505486      -285.8688
  10   1.0000     -10.479334      -285.1572
  11   1.0000     -10.456534      -284.5368
  12   1.0000     -10.434111      -283.9266
  13   1.0000     -10.408113      -283.2191
  14   1.0000     -10.396556      -282.9047
  15   1.0000     -10.381742      -282.5016
  16   1.0000     -10.368280      -282.1352
  17   1.0000     -10.353454      -281.7318
  18   1.0000      -1.231051       -33.4986
  19   1.0000      -1.218906       -33.1681
  20   1.0000      -1.199692       -32.6453
  21   1.0000      -1.184144       -32.2222
  22   1.0000      -1.126801       -30.6618
  23   1.0000      -1.120563       -30.4921
  24   1.0000      -1.073004       -29.1979
  25   1.0000      -1.059573       -28.8325
  26   1.0000      -0.966687       -26.3049
  27   1.0000      -0.956738       -26.0342
  28   1.0000      -0.853480       -23.2244
  29   1.0000      -0.848837       -23.0980
  30   1.0000      -0.814171       -22.1547
  31   1.0000      -0.812306       -22.1040
  32   1.0000      -0.796805       -21.6822
  33   1.0000      -0.784625       -21.3507
  34   1.0000      -0.699333       -19.0298
  35   1.0000      -0.696066       -18.9409
  36   1.0000      -0.693084       -18.8598
  37   1.0000      -0.690053       -18.7773
  38   1.0000      -0.644213       -17.5299
  39   1.0000      -0.635424       -17.2908
  40   1.0000      -0.630704       -17.1623
  41   1.0000      -0.607513       -16.5313
  42   1.0000      -0.599035       -16.3006
  43   1.0000      -0.588710       -16.0196
  44   1.0000      -0.572534       -15.5794
  45   1.0000      -0.569489       -15.4966
  46   1.0000      -0.563192       -15.3252
  47   1.0000      -0.553271       -15.0553
  48   1.0000      -0.551154       -14.9977
  49   1.0000      -0.542283       -14.7563
  50   1.0000      -0.532898       -14.5009
  51   1.0000      -0.525427       -14.2976
  52   1.0000      -0.520996       -14.1770
  53   1.0000      -0.516508       -14.0549
  54   1.0000      -0.507327       -13.8051
  55   1.0000      -0.500385       -13.6162
  56   1.0000      -0.487952       -13.2778
  57   1.0000      -0.480373       -13.0716
  58   1.0000      -0.422607       -11.4997
  59   1.0000      -0.414748       -11.2859
  60   1.0000      -0.408584       -11.1181
  61   1.0000      -0.397095       -10.8055
  62   1.0000      -0.389862       -10.6087
  63   1.0000      -0.385017       -10.4768
  64   1.0000      -0.377065       -10.2605
  65   1.0000      -0.346884        -9.4392
  66   1.0000      -0.217094        -5.9074
  67   0.0000       0.011187         0.3044
  68   0.0000       0.020336         0.5534
  69   0.0000       0.028943         0.7876
  70   0.0000       0.037959         1.0329
  71   0.0000       0.042318         1.1515

                 SPIN DOWN ORBITALS
  NO   OCC          E(Eh)            E(eV)
   0   1.0000     -19.329978      -525.9955
   1   1.0000     -19.324850      -525.8559
   2   1.0000     -19.323819      -525.8278
   3   1.0000     -19.312160      -525.5106
   4   1.0000     -14.585133      -396.8816
   5   1.0000     -14.582524      -396.8107
   6   1.0000     -14.570973      -396.4963
   7   1.0000     -14.546233      -395.8231
   8   1.0000     -10.515019      -286.1282
   9   1.0000     -10.505829      -285.8781
  10   1.0000     -10.479316      -285.1567
  11   1.0000     -10.456549      -284.5372
  12   1.0000     -10.433867      -283.9200
  13   1.0000     -10.398403      -282.9549
  14   1.0000     -10.386111      -282.6204
  15   1.0000     -10.381791      -282.5029
  16   1.0000     -10.368769      -282.1485
  17   1.0000     -10.353441      -281.7315
  18   1.0000      -1.230936       -33.4955
  19   1.0000      -1.214535       -33.0492
  20   1.0000      -1.199640       -32.6439
  21   1.0000      -1.174829       -31.9687
  22   1.0000      -1.126582       -30.6559
  23   1.0000      -1.110034       -30.2056
  24   1.0000      -1.072808       -29.1926
  25   1.0000      -1.054173       -28.6855
  26   1.0000      -0.958977       -26.0951
  27   1.0000      -0.942171       -25.6378
  28   1.0000      -0.848749       -23.0956
  29   1.0000      -0.841503       -22.8985
  30   1.0000      -0.812889       -22.1198
  31   1.0000      -0.801612       -21.8130
  32   1.0000      -0.796597       -21.6765
  33   1.0000      -0.778135       -21.1741
  34   1.0000      -0.699140       -19.0246
  35   1.0000      -0.694113       -18.8878
  36   1.0000      -0.686861       -18.6904
  37   1.0000      -0.678343       -18.4587
  38   1.0000      -0.643857       -17.5202
  39   1.0000      -0.628696       -17.1077
  40   1.0000      -0.622758       -16.9461
  41   1.0000      -0.600315       -16.3354
  42   1.0000      -0.593509       -16.1502
  43   1.0000      -0.580255       -15.7896
  44   1.0000      -0.570022       -15.5111
  45   1.0000      -0.560064       -15.2401
  46   1.0000      -0.556578       -15.1453
  47   1.0000      -0.552139       -15.0245
  48   1.0000      -0.544521       -14.8172
  49   1.0000      -0.537123       -14.6159
  50   1.0000      -0.525546       -14.3008
  51   1.0000      -0.518619       -14.1123
  52   1.0000      -0.515139       -14.0176
  53   1.0000      -0.504669       -13.7327
  54   1.0000      -0.500048       -13.6070
  55   1.0000      -0.496347       -13.5063
  56   1.0000      -0.480078       -13.0636
  57   1.0000      -0.445987       -12.1359
  58   1.0000      -0.422369       -11.4933
  59   1.0000      -0.410347       -11.1661
  60   1.0000      -0.404266       -11.0006
  61   1.0000      -0.389785       -10.6066
  62   1.0000      -0.376911       -10.2563
  63   1.0000      -0.374407       -10.1881
  64   1.0000      -0.347909        -9.4671
  65   0.0000      -0.094182        -2.5628
  66   0.0000       0.010834         0.2948
  67   0.0000       0.021970         0.5978
  68   0.0000       0.027123         0.7381
  69   0.0000       0.035108         0.9553

----------------------------------------------------------------------------------------------------
          SPIN FLIP ABSORPTION SPECTRUM VIA TRANSITION ELECTRIC DIPOLE MOMENTS
----------------------------------------------------------------------------------------------------
     Transition      Energy     Energy  Wavelength fosc(D2)      D2        DX        DY        DZ
                      (eV)      (cm-1)    (nm)                 (au**2)    (au)      (au)      (au)
----------------------------------------------------------------------------------------------------
  1-3A  ->  2-3A    3.649306   29433.6   339.7   0.001081337   0.01209   0.05202   0.06552  -0.07139

Dispersion correction             ... done (  0.1 sec)

MULLIKEN ATOMIC CHARGES AND SPIN DENSITIES
------------------------------------------
   0 O :   -0.706939    0.007528
   1 O :   -0.653618   -0.001388
   2 O :   -0.633788    0.000881
   3 O :   -0.655761    0.000109
   4 N :    0.038458    0.026580
   5 N :   -0.015609   -0.002352
   6 N :   -0.013506   -0.008102
   7 N :    0.002694   -0.000468
   8 C :    1.222092    0.079421
   9 C :    0.474563    0.015375
  10 C :   -0.533758    0.041585
  11 C :    0.139182   -0.004441
  12 C :   -1.362412   -0.023064
  13 C :   -1.350177    0.005121
  14 C :    0.270731   -0.137881
  15 C :    0.471016   -0.019216
  16 C :    0.536315    0.007343
  17 C :    0.472835    0.000993
  18 H :    0.194950    0.001273
  19 H :    0.178326    0.000232
  20 H :    0.227023    0.007735
  21 H :    0.304228   -0.000599
  22 H :    0.400516    0.008310
  23 H :    0.368981   -0.000051
  24 H :    0.316180   -0.000303
  25 H :    0.201005   -0.001449
  26 H :    0.046871   -0.002277
  27 H :    0.008340   -0.000790
  28 H :    0.010540    0.001454
  29 H :    0.040722   -0.001560
Sum of atomic charges       :    0.0000000

LOEWDIN ATOMIC CHARGES AND SPIN DENSITIES
-----------------------------------------
   0 O :    0.065344    0.006724
   1 O :    0.110273   -0.000582
   2 O :    0.106459    0.000385
   3 O :    0.085008    0.000073
   4 N :    0.290448    0.015494
   5 N :    0.281546   -0.000754
   6 N :    0.325166   -0.005776
   7 N :    0.333892   -0.000693
   8 C :   -0.084259    0.006499
   9 C :   -0.139984    0.000084
  10 C :    0.016959   -0.009128
  11 C :    0.052019   -0.000298
  12 C :    0.197786    0.001279
  13 C :    0.184877    0.000004
  14 C :   -0.434993   -0.006906
  15 C :   -0.409808    0.000020
  16 C :   -0.458254   -0.002698
  17 C :   -0.488219   -0.000196
  18 H :   -0.002554   -0.005621
  19 H :    0.036644   -0.000074
  20 H :   -0.000553    0.000798
  21 H :   -0.006095   -0.000315
  22 H :    0.014522    0.000832
  23 H :    0.000425    0.000015
  24 H :    0.002479   -0.000028
  25 H :   -0.025134   -0.000043
  26 H :   -0.000813    0.001667
  27 H :   -0.025012   -0.000038
  28 H :   -0.017767   -0.000698
  29 H :   -0.010403   -0.000027

  Mayer bond orders larger than 0.100000
B(  0-O , 14-C ) :   1.2546 B(  1-O , 15-C ) :   1.4458 B(  2-O , 16-C ) :   1.5646
B(  3-O , 17-C ) :   1.5509 B(  4-N , 10-C ) :   0.9207 B(  4-N , 16-C ) :   0.9584
B(  4-N , 26-H ) :   1.1189 B(  5-N , 11-C ) :   0.9806 B(  5-N , 17-C ) :   1.0374
B(  5-N , 27-H ) :   1.1515 B(  6-N , 14-C ) :   0.9639 B(  6-N , 16-C ) :   0.9906
B(  6-N , 28-H ) :   1.1201 B(  7-N , 15-C ) :   1.0356 B(  7-N , 17-C ) :   0.9568
B(  7-N , 29-H ) :   1.1019 B(  8-C , 10-C ) :   0.3335 B(  8-C , 12-C ) :   0.3254
B(  8-C , 14-C ) :   0.7591 B(  8-C , 18-H ) :  -0.1663 B(  8-C , 21-H ) :  -0.1121
B(  9-C , 11-C ) :   1.1108 B(  9-C , 13-C ) :   0.4142 B(  9-C , 15-C ) :   0.8626
B( 10-C , 18-H ) :   1.1876 B( 11-C , 13-C ) :  -0.1920 B( 11-C , 19-H ) :   1.0703
B( 12-C , 20-H ) :   1.0203 B( 12-C , 21-H ) :   1.0369 B( 12-C , 22-H ) :   0.8246
B( 13-C , 23-H ) :   0.9007 B( 13-C , 24-H ) :   1.0633 B( 13-C , 25-H ) :   0.9631

Dispersion correction           -0.057557442
FINAL SINGLE POINT ENERGY      -908.782618253645

DIPOLE MOMENT
-------------

Method             : TDA/CIS
Type of density    : Electron Density
Level              : Relaxed density
State              :   2
Multiplicity       :   3
Irrep              :   0
Energy             :     0.0000000000000000 Eh
Relativity type    :
Basis              : AO
                                X                 Y                 Z
Electronic contribution:     -2.109083280      -9.697826630      -5.343020996
Nuclear contribution   :      1.163433738      10.764028543       7.498701958
                        -----------------------------------------
Total Dipole Moment    :     -0.945649541       1.066201913       2.155680962
                        -----------------------------------------
Magnitude (a.u.)       :      2.584182653
Magnitude (Debye)      :      6.568470299

Rotational constants in cm-1:             0.019605             0.013534             0.010971
Rotational constants in MHz :           587.747228           405.731375           328.907132

                             ****ORCA TERMINATED NORMALLY****
TOTAL RUN TIME: 0 days 0 hours 5 minutes 3 seconds 527 msec
