                         Program Version 6.0.0  -   RELEASE  -
|  1> ! opt def2-TZVPPD wB97M-D3BJ
|  2> %pal nprocs 8 end%pal nprocs 32 end
|  3> %geom Constraints
|  4> {B 9 8 3.3 C}
|  5> {A 8 9 11 61.42857142857143 C}
|  6> end
|  7> MaxIter 300
|  8> end
|  9> *xyz 0 1
| 10> O   2.98579685529314 0.88758230159078 -0.86184571092411
| 11> O   -0.03983205397054 0.68929041702508 -2.10362336723772
| 12> O   0.93431434349854 -3.13274393337945 -0.68767288184107
| 13> O   -3.75829998830163 -0.84727300865116 -0.0472717177755
| 14> N   0.21184538946282 -1.54604804365365 0.7617588924445
| 15> N   -2.13631993928911 0.03188773433438 1.27350571071531
| 16> N   2.02598672506387 -1.14318467211666 -0.64531219127023
| 17> N   -1.91814233924584 0.03137116037665 -1.04498946748291
| 18> C   1.18097737274226 0.71693507080484 0.70173889017321
| 19> C   -0.20686880480777 1.27024627933494 0.21345042231937
| 20> C   0.41441080275909 -0.34173258966541 1.52336266615173
| 21> C   -0.82922175114212 0.58960593673968 1.44434972027296
| 22> C   1.92822011286806 1.69488653817281 1.5963734975385
| 23> C   -0.37809776891576 2.77134929626422 0.04819649358288
| 24> C   2.1403947470937 0.1972384729179 -0.35038567829864
| 25> C   -0.67361678962426 0.6214190571346 -1.0793014500539
| 26> C   1.04142578622994 -2.02697492875068 -0.21027082435993
| 27> C   -2.68467002550422 -0.30396816036989 0.07167054343891
| 28> H   0.80817443950001 -0.54572267081061 2.51895215321335
| 29> H   -0.83785272399001 1.27240685039143 2.28901317073582
| 30> H   2.31167340578204 2.52284411740894 1.00913016264629
| 31> H   1.28982602448342 2.08257620823614 2.38710022492991
| 32> H   2.77390820759972 1.19140411795486 2.06045858523949
| 33> H   -1.41857211141493 3.00964947214868 -0.16882755561625
| 34> H   -0.09065531563179 3.29799318042223 0.95389844358819
| 35> H   0.23426221611057 3.12492645074476 -0.77764887675592
| 36> H   -0.46772570547622 -2.21560145172536 1.0787081584806
| 37> H   -2.71769301149571 -0.17090724573546 2.06627440900372
| 38> H   2.60065167263658 -1.49057255715425 -1.3966820077142
| 39> H   -2.27169977231386 -0.32388339999036 -1.91951041514436
| 40> *
| 41>
| 42>                          ****END OF INPUT****
 Total Charge           Charge          ....    0
 Multiplicity           Mult            ....    1
 Number of Electrons    NEL             ....  132
Dispersion correction           -0.051334370
FINAL SINGLE POINT ENERGY      -908.637454793670
Dispersion correction             ... done (  0.0 sec)
Dispersion correction           -0.052035395
FINAL SINGLE POINT ENERGY      -908.672192925898
Dispersion correction             ... done (  0.1 sec)
Dispersion correction           -0.052833159
FINAL SINGLE POINT ENERGY      -908.696054704196
Dispersion correction             ... done (  0.0 sec)
FINAL SINGLE POINT ENERGY      -908.718355297042
FINAL SINGLE POINT ENERGY      -908.731859388518
FINAL SINGLE POINT ENERGY      -908.736384474807
FINAL SINGLE POINT ENERGY      -908.739441045569
FINAL SINGLE POINT ENERGY      -908.741683221151
FINAL SINGLE POINT ENERGY      -908.743309761391
FINAL SINGLE POINT ENERGY      -908.744328551888
FINAL SINGLE POINT ENERGY      -908.749994969594
FINAL SINGLE POINT ENERGY      -908.750042356819
FINAL SINGLE POINT ENERGY      -908.750077396044
FINAL SINGLE POINT ENERGY      -908.750105731055
FINAL SINGLE POINT ENERGY      -908.750119016403
FINAL SINGLE POINT ENERGY      -908.750131060715
FINAL SINGLE POINT ENERGY      -908.750136397531
Dispersion correction             ... done (  0.0 sec)
Dispersion correction           -0.057005093
FINAL SINGLE POINT ENERGY      -908.750138090266
Dispersion correction             ... done (  0.0 sec)
Dispersion correction           -0.057013810
FINAL SINGLE POINT ENERGY      -908.750138490395
Dispersion correction             ... done (  0.0 sec)
                    ***********************HURRAY********************

CARTESIAN COORDINATES (ANGSTROEM)
---------------------------------
  O      3.409047    0.393126   -0.719547
  O     -0.874088    1.378949   -2.470922
  O      0.422150   -2.923451   -0.554836
  O     -3.022666   -1.772534   -0.118550
  N      0.343794   -1.369514    1.100934
  N     -2.109746   -0.040252    1.044049
  N      1.610175   -0.998209   -0.811793
  N     -1.570899   -0.371006   -1.187438
  C      1.887864    0.461731    1.074008
  C     -0.939238    1.672121   -0.122842
  C      0.417469    0.011001    1.510134
  C     -0.984232    0.843825    1.157656
  C      2.706542    1.281525    1.975819
  C     -0.971249    3.141681   -0.111426
  C      2.380534   -0.005921   -0.198577
  C     -1.104699    0.932072   -1.363919
  C      0.757183   -1.844269   -0.124772
  C     -2.291830   -0.814071   -0.079012
  H      0.427740    0.002925    2.602825
  H     -1.151900    1.513632    1.997284
  H      3.693190    1.443480    1.553706
  H      2.237999    2.251892    2.169786
  H      2.799443    0.791645    2.951891
  H     -1.966212    3.491101    0.195411
  H     -0.261960    3.553376    0.607231
  H     -0.768839    3.531362   -1.104588
  H     -0.281408   -2.000815    1.572223
  H     -2.612423   -0.354356    1.855414
  H      1.980274   -1.370554   -1.671111
  H     -1.709413   -0.915492   -2.024437

 Multiplicity           Mult            ....    1
 Number of Electrons    NEL             ....  132
 Basis Dimension        Dim             ....  882

ORBITAL ENERGIES
----------------

  NO   OCC          E(Eh)            E(eV)
   0   2.0000     -19.333104      -526.0805
   1   2.0000     -19.326694      -525.9061
   2   2.0000     -19.320386      -525.7344
   3   2.0000     -19.315643      -525.6054
   4   2.0000     -14.568025      -396.4161
   5   2.0000     -14.563684      -396.2980
   6   2.0000     -14.558059      -396.1449
   7   2.0000     -14.550579      -395.9414
   8   2.0000     -10.508913      -285.9620
   9   2.0000     -10.498423      -285.6766
  10   2.0000     -10.482935      -285.2552
  11   2.0000     -10.471997      -284.9575
  12   2.0000     -10.447015      -284.2777
  13   2.0000     -10.446878      -284.2740
  14   2.0000     -10.434552      -283.9386
  15   2.0000     -10.424818      -283.6737
  16   2.0000     -10.379848      -282.4500
  17   2.0000     -10.374027      -282.2916
  18   2.0000      -1.223950       -33.3054
  19   2.0000      -1.211569       -32.9685
  20   2.0000      -1.196600       -32.5611
  21   2.0000      -1.183894       -32.2154
  22   2.0000      -1.118178       -30.4272
  23   2.0000      -1.094529       -29.7837
  24   2.0000      -1.064641       -28.9703
  25   2.0000      -1.050731       -28.5918
  26   2.0000      -0.965541       -26.2737
  27   2.0000      -0.945035       -25.7157
  28   2.0000      -0.881701       -23.9923
  29   2.0000      -0.837913       -22.8008
  30   2.0000      -0.823357       -22.4047
  31   2.0000      -0.801438       -21.8082
  32   2.0000      -0.785620       -21.3778
  33   2.0000      -0.770773       -20.9738
  34   2.0000      -0.697823       -18.9887
  35   2.0000      -0.686554       -18.6821
  36   2.0000      -0.678103       -18.4521
  37   2.0000      -0.657758       -17.8985
  38   2.0000      -0.647597       -17.6220
  39   2.0000      -0.640463       -17.4279
  40   2.0000      -0.617146       -16.7934
  41   2.0000      -0.599369       -16.3097
  42   2.0000      -0.584333       -15.9005
  43   2.0000      -0.580212       -15.7884
  44   2.0000      -0.570198       -15.5159
  45   2.0000      -0.565573       -15.3900
  46   2.0000      -0.565144       -15.3783
  47   2.0000      -0.555086       -15.1047
  48   2.0000      -0.551900       -15.0180
  49   2.0000      -0.547047       -14.8859
  50   2.0000      -0.545696       -14.8491
  51   2.0000      -0.541358       -14.7311
  52   2.0000      -0.530379       -14.4324
  53   2.0000      -0.516824       -14.0635
  54   2.0000      -0.508448       -13.8356
  55   2.0000      -0.504322       -13.7233
  56   2.0000      -0.483499       -13.1567
  57   2.0000      -0.422683       -11.5018
  58   2.0000      -0.414359       -11.2753
  59   2.0000      -0.407830       -11.0976
  60   2.0000      -0.398714       -10.8496
  61   2.0000      -0.391439       -10.6516
  62   2.0000      -0.387183       -10.5358
  63   2.0000      -0.381064       -10.3693
  64   2.0000      -0.373781       -10.1711
  65   2.0000      -0.272381        -7.4119
  66   0.0000      -0.122501        -3.3334
  67   0.0000       0.004950         0.1347
  68   0.0000       0.026968         0.7338
  69   0.0000       0.031199         0.8490
  70   0.0000       0.039203         1.0668

MULLIKEN ATOMIC CHARGES
-----------------------
   0 O :   -0.673468
   1 O :   -0.669390
   2 O :   -0.648810
   3 O :   -0.627665
   4 N :   -0.291207
   5 N :   -0.320474
   6 N :    0.090504
   7 N :    0.054909
   8 C :    0.235189
   9 C :    0.137829
  10 C :    0.073893
  11 C :    0.759569
  12 C :   -1.351234
  13 C :   -1.452932
  14 C :    0.385237
  15 C :    0.393220
  16 C :    0.358290
  17 C :    0.350945
  18 H :    0.603351
  19 H :    0.488960
  20 H :    0.320194
  21 H :    0.261917
  22 H :    0.313907
  23 H :    0.342602
  24 H :    0.290123
  25 H :    0.344542
  26 H :    0.080703
  27 H :    0.078670
  28 H :    0.044822
  29 H :    0.025807
Sum of atomic charges:   -0.0000000

LOEWDIN ATOMIC CHARGES
----------------------
   0 O :    0.084838
   1 O :    0.101517
   2 O :    0.094834
   3 O :    0.106818
   4 N :    0.261250
   5 N :    0.269160
   6 N :    0.318103
   7 N :    0.328578
   8 C :    0.015374
   9 C :    0.009388
  10 C :   -0.059735
  11 C :   -0.090380
  12 C :    0.171617
  13 C :    0.183997
  14 C :   -0.422791
  15 C :   -0.407345
  16 C :   -0.498861
  17 C :   -0.488450
  18 H :    0.025778
  19 H :    0.039440
  20 H :   -0.004321
  21 H :    0.005263
  22 H :    0.009153
  23 H :    0.018919
  24 H :    0.001048
  25 H :    0.000549
  26 H :   -0.028806
  27 H :   -0.027153
  28 H :   -0.012859
  29 H :   -0.004925

  Mayer bond orders larger than 0.100000
B(  0-O , 14-C ) :   1.3544 B(  1-O , 15-C ) :   1.3745 B(  2-O , 16-C ) :   1.5210
B(  3-O , 17-C ) :   1.5468 B(  4-N ,  8-C ) :   0.3003 B(  4-N , 10-C ) :   0.2624
B(  4-N , 16-C ) :   1.0079 B(  4-N , 26-H ) :   1.0825 B(  5-N ,  9-C ) :   0.3810
B(  5-N , 10-C ) :   0.1213 B(  5-N , 17-C ) :   1.1271 B(  5-N , 27-H ) :   1.0451
B(  6-N ,  8-C ) :  -0.1122 B(  6-N , 14-C ) :   1.0679 B(  6-N , 16-C ) :   0.9958
B(  6-N , 28-H ) :   1.0644 B(  7-N , 11-C ) :   0.1206 B(  7-N , 15-C ) :   0.9779
B(  7-N , 17-C ) :   0.9700 B(  7-N , 29-H ) :   1.0819 B(  8-C ,  9-C ) :   0.4174
B(  8-C , 12-C ) :   0.4917 B(  8-C , 14-C ) :   0.7909 B(  8-C , 16-C ) :   0.1319
B(  8-C , 18-H ) :  -0.1546 B(  8-C , 20-H ) :  -0.1171 B(  9-C , 10-C ) :   0.3898
B(  9-C , 11-C ) :  -0.2585 B(  9-C , 13-C ) :   0.5108 B(  9-C , 14-C ) :   0.1374
B(  9-C , 15-C ) :   0.8633 B(  9-C , 19-H ) :  -0.1030 B(  9-C , 25-H ) :  -0.1195
B( 10-C , 11-C ) :   0.5799 B( 10-C , 16-C ) :  -0.1446 B( 10-C , 18-H ) :   0.6941
B( 11-C , 13-C ) :  -0.1163 B( 11-C , 15-C ) :  -0.1917 B( 11-C , 17-C ) :  -0.2028
B( 11-C , 19-H ) :   0.9007 B( 12-C , 20-H ) :   0.9911 B( 12-C , 21-H ) :   0.9537
B( 12-C , 22-H ) :   0.9037 B( 13-C , 23-H ) :   0.8754 B( 13-C , 24-H ) :   0.9638
B( 13-C , 25-H ) :   0.9499

Dispersion correction           -0.057014173
FINAL SINGLE POINT ENERGY      -908.750138605578

DIPOLE MOMENT
-------------

Method             : SCF
Type of density    : Electron Density
Multiplicity       :   1
Irrep              :   0
Energy             :  -908.6931244327191735 Eh
Relativity type    :
Basis              : AO
                                X                 Y                 Z
Electronic contribution:     -2.787425688      -9.683496413      -7.464327855
Nuclear contribution   :      2.251319228      11.386705525      10.182509062
                        -----------------------------------------
Total Dipole Moment    :     -0.536106460       1.703209112       2.718181207
                        -----------------------------------------
Magnitude (a.u.)       :      3.252205481
Magnitude (Debye)      :      8.266449387

Rotational constants in cm-1:             0.019128             0.014143             0.011850
Rotational constants in MHz :           573.434245           423.990649           355.254555

                             ****ORCA TERMINATED NORMALLY****
TOTAL RUN TIME: 0 days 5 hours 12 minutes 11 seconds 461 msec
