                         Program Version 6.0.0  -   RELEASE  -
|  1> ! Opt wB97M-D3BJ def2-TZVPPD
|  2> %pal nprocs 8 end %pal nprocs 64 end
|  3> %geom
|  4> Constraints
|  5>     {A 2 1 0 68.18181818181819 C }
|  6> end
|  7> MaxIter 500
|  8> end
|  9> *xyz 0 1
| 10> O   -0.0007 0.8141 0.0
| 11> C   0.7509 -0.4065 0.0
| 12> C   -0.7502 -0.4076 0.0
| 13> H   1.2625 -0.6786 0.9136
| 14> H   1.2625 -0.6787 -0.9136
| 15> H   -1.2614 -0.6806 -0.9136
| 16> H   -1.2614 -0.6805 0.9136
| 17> *
| 18>
| 19>                          ****END OF INPUT****
 Total Charge           Charge          ....    0
 Multiplicity           Mult            ....    1
 Number of Electrons    NEL             ....   24
Dispersion correction           -0.005251690
FINAL SINGLE POINT ENERGY      -153.875968898228
Dispersion correction             ... done (  0.1 sec)
Dispersion correction           -0.005239414
FINAL SINGLE POINT ENERGY      -153.878901572148
Dispersion correction             ... done (  0.1 sec)
Dispersion correction           -0.005236090
FINAL SINGLE POINT ENERGY      -153.879587501166
Dispersion correction             ... done (  0.0 sec)
FINAL SINGLE POINT ENERGY      -153.879671917931
Dispersion correction             ... done (  0.1 sec)
Dispersion correction           -0.005236659
FINAL SINGLE POINT ENERGY      -153.879714613760
Dispersion correction             ... done (  0.1 sec)
Dispersion correction           -0.005237339
FINAL SINGLE POINT ENERGY      -153.879717921320
Dispersion correction             ... done (  0.1 sec)
                    ***********************HURRAY********************

CARTESIAN COORDINATES (ANGSTROEM)
---------------------------------
  O      0.077724    0.833288   -0.000094
  C      0.693438   -0.396608    0.000116
  C     -0.727866   -0.515344   -0.000153
  H      1.240732   -0.653480    0.904988
  H      1.240475   -0.653740   -0.904885
  H     -1.261347   -0.666481   -0.924486
  H     -1.260955   -0.666034    0.924514

 Multiplicity           Mult            ....    1
 Number of Electrons    NEL             ....   24
 Basis Dimension        Dim             ....  182

ORBITAL ENERGIES
----------------

  NO   OCC          E(Eh)            E(eV)
   0   2.0000     -19.349275      -526.5205
   1   2.0000     -10.404265      -283.1144
   2   2.0000     -10.397024      -282.9174
   3   2.0000      -1.189568       -32.3698
   4   2.0000      -0.822708       -22.3870
   5   2.0000      -0.747857       -20.3502
   6   2.0000      -0.629819       -17.1382
   7   2.0000      -0.592774       -16.1302
   8   2.0000      -0.497354       -13.5337
   9   2.0000      -0.491913       -13.3856
  10   2.0000      -0.425685       -11.5835
  11   2.0000      -0.381510       -10.3814
  12   0.0000       0.041302         1.1239
  13   0.0000       0.058326         1.5871
  14   0.0000       0.070146         1.9088
  15   0.0000       0.077446         2.1074
  16   0.0000       0.113005         3.0750

MULLIKEN ATOMIC CHARGES
-----------------------
   0 O :   -0.398092
   1 C :   -0.127784
   2 C :   -0.226605
   3 H :    0.190528
   4 H :    0.190481
   5 H :    0.185735
   6 H :    0.185737
Sum of atomic charges:    0.0000000

LOEWDIN ATOMIC CHARGES
----------------------
   0 O :   -0.030005
   1 C :   -0.140498
   2 C :    0.120922
   3 H :    0.020568
   4 H :    0.020568
   5 H :    0.004226
   6 H :    0.004219

  Mayer bond orders larger than 0.100000
B(  0-O ,  1-C ) :   0.7628 B(  0-O ,  2-C ) :   0.8766 B(  1-C ,  2-C ) :   0.8120
B(  1-C ,  3-H ) :   1.0370 B(  1-C ,  4-H ) :   1.0371 B(  2-C ,  5-H ) :   0.9956
B(  2-C ,  6-H ) :   0.9957

Dispersion correction           -0.005237788
FINAL SINGLE POINT ENERGY      -153.879718613945

DIPOLE MOMENT
-------------

Method             : SCF
Type of density    : Electron Density
Multiplicity       :   1
Irrep              :   0
Energy             :  -153.8744808255101191 Eh
Relativity type    :
Basis              : AO
                                X                 Y                 Z
Electronic contribution:      0.010105014       1.583342175      -0.000225499
Nuclear contribution   :     -0.104843155      -2.440050339       0.000276665
                        -----------------------------------------
Total Dipole Moment    :     -0.094738141      -0.856708164       0.000051166
                        -----------------------------------------
Magnitude (a.u.)       :      0.861930505
Magnitude (Debye)      :      2.190853234

Rotational constants in cm-1:             0.873929             0.704400             0.462190
Rotational constants in MHz :         26199.741524         21117.388699         13856.112114

                             ****ORCA TERMINATED NORMALLY****
TOTAL RUN TIME: 0 days 0 hours 1 minutes 34 seconds 277 msec
