                         Program Version 6.0.0  -   RELEASE  -
|  1> ! Engrad def2-TZVPPD wB97M-D3BJ
|  2> %pal nprocs 8 end%pal nprocs 32 end
|  3> %tddft Nroots 2 Iroot 1
|  4> sf true
|  5> end
|  6> *xyz 0 3
|  7> O   0.06185604 1.090105 0.06107319
|  8> C   0.6284144 -0.49868735 -0.12806277
|  9> C   -0.69163323 -0.77397562 0.07720936
| 10> H   1.36329674 -0.65678217 0.61424078
| 11> H   0.95557252 -0.41805831 -1.16333544
| 12> H   -1.34825518 -0.88985138 -0.91158105
| 13> H   -1.1543564 -0.82637964 1.13728487
| 14> *
| 15>
| 16>                          ****END OF INPUT****

CARTESIAN COORDINATES (ANGSTROEM)
---------------------------------
  O      0.061856    1.090105    0.061073
  C      0.628414   -0.498687   -0.128063
  C     -0.691633   -0.773976    0.077209
  H      1.363297   -0.656782    0.614241
  H      0.955573   -0.418058   -1.163335
  H     -1.348255   -0.889851   -0.911581
  H     -1.154356   -0.826380    1.137285

 Total Charge           Charge          ....    0
 Multiplicity           Mult            ....    3
 Number of Electrons    NEL             ....   24
 Basis Dimension        Dim             ....  182

ORBITAL ENERGIES
----------------
                 SPIN UP ORBITALS
  NO   OCC          E(Eh)            E(eV)
   0   1.0000     -19.400310      -527.9093
   1   1.0000     -10.403372      -283.0901
   2   1.0000     -10.374474      -282.3038
   3   1.0000      -1.121100       -30.5067
   4   1.0000      -0.894991       -24.3539
   5   1.0000      -0.719676       -19.5834
   6   1.0000      -0.621215       -16.9041
   7   1.0000      -0.566189       -15.4068
   8   1.0000      -0.515296       -14.0219
   9   1.0000      -0.492550       -13.4030
  10   1.0000      -0.468445       -12.7470
  11   1.0000      -0.453674       -12.3451
  12   1.0000      -0.284599        -7.7443
  13   0.0000       0.041752         1.1361
  14   0.0000       0.058228         1.5845
  15   0.0000       0.075049         2.0422
  16   0.0000       0.083358         2.2683
  17   0.0000       0.102191         2.7808

                 SPIN DOWN ORBITALS
  NO   OCC          E(Eh)            E(eV)
   0   1.0000     -19.363010      -526.8943
   1   1.0000     -10.404221      -283.1132
   2   1.0000     -10.364238      -282.0252
   3   1.0000      -1.035873       -28.1875
   4   1.0000      -0.861004       -23.4291
   5   1.0000      -0.707288       -19.2463
   6   1.0000      -0.604172       -16.4403
   7   1.0000      -0.535717       -14.5776
   8   1.0000      -0.476077       -12.9547
   9   1.0000      -0.451335       -12.2815
  10   1.0000      -0.398448       -10.8423
  11   0.0000      -0.046720        -1.2713
  12   0.0000       0.018765         0.5106
  13   0.0000       0.040158         1.0928
  14   0.0000       0.058425         1.5898
  15   0.0000       0.075998         2.0680

----------------------------------------------------------------------------------------------------
          SPIN FLIP ABSORPTION SPECTRUM VIA TRANSITION ELECTRIC DIPOLE MOMENTS
----------------------------------------------------------------------------------------------------
     Transition      Energy     Energy  Wavelength fosc(D2)      D2        DX        DY        DZ
                      (eV)      (cm-1)    (nm)                 (au**2)    (au)      (au)      (au)
----------------------------------------------------------------------------------------------------
  1-3A  ->  2-3A    1.923547   15514.5   644.6   0.000887031   0.01882  -0.02012  -0.04837   0.12680

Dispersion correction             ... done (  0.1 sec)

MULLIKEN ATOMIC CHARGES AND SPIN DENSITIES
------------------------------------------
   0 O :   -0.471189    0.002068
   1 C :   -0.169045   -0.023964
   2 C :   -0.238375   -0.044529
   3 H :    0.230437    0.014895
   4 H :    0.220586    0.026415
   5 H :    0.202461    0.016327
   6 H :    0.225125    0.008788
Sum of atomic charges       :    0.0000000

LOEWDIN ATOMIC CHARGES AND SPIN DENSITIES
-----------------------------------------
   0 O :   -0.212524   -0.021506
   1 C :   -0.073182   -0.029287
   2 C :    0.181961    0.052058
   3 H :   -0.012281   -0.003257
   4 H :    0.010199   -0.003055
   5 H :    0.064260    0.002604
   6 H :    0.041565    0.002443

  Mayer bond orders larger than 0.100000
B(  0-O ,  1-C ) :   0.6012 B(  0-O ,  2-C ) :   0.7751 B(  1-C ,  2-C ) :   0.9650
B(  1-C ,  3-H ) :   0.9990 B(  1-C ,  4-H ) :   0.9987 B(  2-C ,  5-H ) :   0.9763
B(  2-C ,  6-H ) :   0.9487

Dispersion correction           -0.005662606
FINAL SINGLE POINT ENERGY      -153.758338752142

DIPOLE MOMENT
-------------

Method             : TDA/CIS
Type of density    : Electron Density
Level              : Relaxed density
State              :   1
Multiplicity       :   3
Irrep              :   0
Energy             :     0.0000000000000000 Eh
Relativity type    :
Basis              : AO
                                X                 Y                 Z
Electronic contribution:      0.072277422       1.018795601       0.218589724
Nuclear contribution   :     -0.175325039      -2.546056746      -0.305943672
                        -----------------------------------------
Total Dipole Moment    :     -0.103047618      -1.527261145      -0.087353947
                        -----------------------------------------
Magnitude (a.u.)       :      1.533224096
Magnitude (Debye)      :      3.897145940

Rotational constants in cm-1:             0.868827             0.462870             0.349687
Rotational constants in MHz :         26046.780016         13876.504397         10483.342337

                             ****ORCA TERMINATED NORMALLY****
TOTAL RUN TIME: 0 days 0 hours 0 minutes 21 seconds 82 msec
