                         Program Version 6.0.0  -   RELEASE  -
|  1> ! Engrad def2-TZVPPD wB97M-D3BJ
|  2> %pal nprocs 8 end%pal nprocs 64 end
|  3> %tddft
|  4>  Iroot 1 Nroots 3
|  5> sf true
|  6> end
|  7> *xyz 0 3
|  8> O   3.37746599 -1.09597833 -1.92287383
|  9> O   -2.18562551 1.89747179 -1.4325852
| 10> O   -1.06305168 -2.09341905 -1.71199235
| 11> O   -3.08367037 0.44819352 2.80691493
| 12> N   0.06453148 -1.65935893 0.20274955
| 13> N   -0.88173704 0.34278097 2.08641904
| 14> N   1.18291576 -1.5278147 -1.79410329
| 15> N   -2.67414362 0.95254248 0.5947087
| 16> C   2.23741309 -0.51772299 0.09698555
| 17> C   -0.33802976 1.33989103 -0.04014902
| 18> C   1.01154033 -0.74628492 0.85514607
| 19> C   0.20163483 0.66714481 1.17219504
| 20> C   3.43950646 0.00943663 0.66033022
| 21> C   0.61144186 1.96828806 -0.99728982
| 22> C   2.34786261 -1.09166546 -1.26427466
| 23> C   -1.75392905 1.41144118 -0.35417291
| 24> C   -0.04799168 -1.70264806 -1.15800647
| 25> C   -2.23129234 0.6202377 1.93624436
| 26> H   1.28195816 -1.11512935 1.85979284
| 27> H   0.96698365 1.33999717 1.65553781
| 28> H   3.14329955 0.80044391 1.37983804
| 29> H   3.86953952 -0.86676513 1.18925989
| 30> H   4.21902545 0.37658267 -0.02636755
| 31> H   0.62646733 1.56013348 -2.00834466
| 32> H   0.28487843 3.03068497 -1.1881631
| 33> H   1.57131637 1.84695978 -0.70790459
| 34> H   -0.79242076 -1.80815789 0.70081445
| 35> H   -0.76607535 -0.22563994 2.91345317
| 36> H   1.14177593 -1.52184329 -2.85259264
| 37> H   -3.61331977 1.18479193 0.50171133
| 38> *
| 39>
| 40>                          ****END OF INPUT****

CARTESIAN COORDINATES (ANGSTROEM)
---------------------------------
  O      3.377466   -1.095978   -1.922874
  O     -2.185626    1.897472   -1.432585
  O     -1.063052   -2.093419   -1.711992
  O     -3.083670    0.448194    2.806915
  N      0.064531   -1.659359    0.202750
  N     -0.881737    0.342781    2.086419
  N      1.182916   -1.527815   -1.794103
  N     -2.674144    0.952542    0.594709
  C      2.237413   -0.517723    0.096986
  C     -0.338030    1.339891   -0.040149
  C      1.011540   -0.746285    0.855146
  C      0.201635    0.667145    1.172195
  C      3.439506    0.009437    0.660330
  C      0.611442    1.968288   -0.997290
  C      2.347863   -1.091665   -1.264275
  C     -1.753929    1.411441   -0.354173
  C     -0.047992   -1.702648   -1.158006
  C     -2.231292    0.620238    1.936244
  H      1.281958   -1.115129    1.859793
  H      0.966984    1.339997    1.655538
  H      3.143300    0.800444    1.379838
  H      3.869540   -0.866765    1.189260
  H      4.219025    0.376583   -0.026368
  H      0.626467    1.560133   -2.008345
  H      0.284878    3.030685   -1.188163
  H      1.571316    1.846960   -0.707905
  H     -0.792421   -1.808158    0.700814
  H     -0.766075   -0.225640    2.913453
  H      1.141776   -1.521843   -2.852593
  H     -3.613320    1.184792    0.501711

 Total Charge           Charge          ....    0
 Multiplicity           Mult            ....    3
 Number of Electrons    NEL             ....  132
 Basis Dimension        Dim             ....  882

ORBITAL ENERGIES
----------------
                 SPIN UP ORBITALS
  NO   OCC          E(Eh)            E(eV)
   0   1.0000     -19.334460      -526.1174
   1   1.0000     -19.331683      -526.0418
   2   1.0000     -19.331678      -526.0417
   3   1.0000     -19.325106      -525.8629
   4   1.0000     -14.576164      -396.6376
   5   1.0000     -14.571037      -396.4981
   6   1.0000     -14.564493      -396.3200
   7   1.0000     -14.563440      -396.2913
   8   1.0000     -10.521030      -286.2918
   9   1.0000     -10.510252      -285.9985
  10   1.0000     -10.484969      -285.3105
  11   1.0000     -10.483279      -285.2645
  12   1.0000     -10.463006      -284.7129
  13   1.0000     -10.458392      -284.5873
  14   1.0000     -10.427813      -283.7552
  15   1.0000     -10.418410      -283.4993
  16   1.0000     -10.383684      -282.5544
  17   1.0000     -10.370524      -282.1963
  18   1.0000      -1.220659       -33.2158
  19   1.0000      -1.210648       -32.9434
  20   1.0000      -1.196351       -32.5544
  21   1.0000      -1.177586       -32.0437
  22   1.0000      -1.119213       -30.4553
  23   1.0000      -1.100023       -29.9332
  24   1.0000      -1.066281       -29.0150
  25   1.0000      -1.056017       -28.7357
  26   1.0000      -0.991668       -26.9847
  27   1.0000      -0.967327       -26.3223
  28   1.0000      -0.892198       -24.2779
  29   1.0000      -0.851401       -23.1678
  30   1.0000      -0.829196       -22.5636
  31   1.0000      -0.801648       -21.8140
  32   1.0000      -0.795482       -21.6462
  33   1.0000      -0.773991       -21.0614
  34   1.0000      -0.704204       -19.1624
  35   1.0000      -0.700932       -19.0733
  36   1.0000      -0.692926       -18.8555
  37   1.0000      -0.681629       -18.5481
  38   1.0000      -0.654341       -17.8055
  39   1.0000      -0.643182       -17.5019
  40   1.0000      -0.621142       -16.9021
  41   1.0000      -0.610233       -16.6053
  42   1.0000      -0.604107       -16.4386
  43   1.0000      -0.583399       -15.8751
  44   1.0000      -0.578826       -15.7506
  45   1.0000      -0.570778       -15.5316
  46   1.0000      -0.568537       -15.4707
  47   1.0000      -0.565695       -15.3933
  48   1.0000      -0.562048       -15.2941
  49   1.0000      -0.558966       -15.2102
  50   1.0000      -0.553021       -15.0485
  51   1.0000      -0.539445       -14.6791
  52   1.0000      -0.537638       -14.6299
  53   1.0000      -0.525765       -14.3068
  54   1.0000      -0.510599       -13.8941
  55   1.0000      -0.509940       -13.8762
  56   1.0000      -0.503060       -13.6890
  57   1.0000      -0.422280       -11.4908
  58   1.0000      -0.420654       -11.4466
  59   1.0000      -0.409675       -11.1478
  60   1.0000      -0.408165       -11.1067
  61   1.0000      -0.402444       -10.9511
  62   1.0000      -0.398735       -10.8501
  63   1.0000      -0.389077       -10.5873
  64   1.0000      -0.388555       -10.5731
  65   1.0000      -0.354406        -9.6439
  66   1.0000      -0.319631        -8.6976
  67   0.0000       0.007267         0.1977
  68   0.0000       0.026397         0.7183
  69   0.0000       0.029872         0.8128
  70   0.0000       0.032830         0.8933
  71   0.0000       0.052787         1.4364

                 SPIN DOWN ORBITALS
  NO   OCC          E(Eh)            E(eV)
   0   1.0000     -19.331633      -526.0405
   1   1.0000     -19.331036      -526.0242
   2   1.0000     -19.327018      -525.9149
   3   1.0000     -19.324903      -525.8573
   4   1.0000     -14.576055      -396.6346
   5   1.0000     -14.570270      -396.4772
   6   1.0000     -14.563864      -396.3029
   7   1.0000     -14.563486      -396.2926
   8   1.0000     -10.521062      -286.2926
   9   1.0000     -10.510325      -286.0005
  10   1.0000     -10.486123      -285.3419
  11   1.0000     -10.484151      -285.2883
  12   1.0000     -10.462410      -284.6966
  13   1.0000     -10.457980      -284.5761
  14   1.0000     -10.416795      -283.4554
  15   1.0000     -10.407211      -283.1946
  16   1.0000     -10.384149      -282.5671
  17   1.0000     -10.370957      -282.2081
  18   1.0000      -1.218778       -33.1646
  19   1.0000      -1.209830       -32.9212
  20   1.0000      -1.192863       -32.4594
  21   1.0000      -1.171537       -31.8792
  22   1.0000      -1.116772       -30.3889
  23   1.0000      -1.098029       -29.8789
  24   1.0000      -1.064259       -28.9600
  25   1.0000      -1.054129       -28.6843
  26   1.0000      -0.978314       -26.6213
  27   1.0000      -0.950936       -25.8763
  28   1.0000      -0.887139       -24.1403
  29   1.0000      -0.846062       -23.0225
  30   1.0000      -0.820156       -22.3176
  31   1.0000      -0.796657       -21.6781
  32   1.0000      -0.792488       -21.5647
  33   1.0000      -0.772688       -21.0259
  34   1.0000      -0.699997       -19.0479
  35   1.0000      -0.694648       -18.9023
  36   1.0000      -0.686675       -18.6854
  37   1.0000      -0.676320       -18.4036
  38   1.0000      -0.641811       -17.4646
  39   1.0000      -0.639186       -17.3931
  40   1.0000      -0.615197       -16.7404
  41   1.0000      -0.604456       -16.4481
  42   1.0000      -0.597849       -16.2683
  43   1.0000      -0.577242       -15.7075
  44   1.0000      -0.569620       -15.5001
  45   1.0000      -0.567391       -15.4395
  46   1.0000      -0.562980       -15.3195
  47   1.0000      -0.559376       -15.2214
  48   1.0000      -0.555085       -15.1046
  49   1.0000      -0.550720       -14.9859
  50   1.0000      -0.542948       -14.7744
  51   1.0000      -0.532212       -14.4822
  52   1.0000      -0.528758       -14.3882
  53   1.0000      -0.517537       -14.0829
  54   1.0000      -0.503700       -13.7064
  55   1.0000      -0.502753       -13.6806
  56   1.0000      -0.495122       -13.4730
  57   1.0000      -0.419714       -11.4210
  58   1.0000      -0.417725       -11.3669
  59   1.0000      -0.405345       -11.0300
  60   1.0000      -0.395578       -10.7642
  61   1.0000      -0.394238       -10.7278
  62   1.0000      -0.388228       -10.5642
  63   1.0000      -0.383408       -10.4331
  64   1.0000      -0.379771       -10.3341
  65   0.0000      -0.074418        -2.0250
  66   0.0000      -0.048953        -1.3321
  67   0.0000       0.007191         0.1957
  68   0.0000       0.025998         0.7075
  69   0.0000       0.030281         0.8240

----------------------------------------------------------------------------------------------------
          SPIN FLIP ABSORPTION SPECTRUM VIA TRANSITION ELECTRIC DIPOLE MOMENTS
----------------------------------------------------------------------------------------------------
     Transition      Energy     Energy  Wavelength fosc(D2)      D2        DX        DY        DZ
                      (eV)      (cm-1)    (nm)                 (au**2)    (au)      (au)      (au)
----------------------------------------------------------------------------------------------------
  1-3A  ->  2-3A    0.192738    1554.5  6432.8   0.000065253   0.01382   0.09912  -0.05084  -0.03755
  1-3A  ->  3-3A    2.098166   16922.9   590.9   0.001730208   0.03366  -0.12063   0.10549  -0.08933

Dispersion correction             ... done (  0.1 sec)

MULLIKEN ATOMIC CHARGES AND SPIN DENSITIES
------------------------------------------
   0 O :   -0.681026    0.000415
   1 O :   -0.697827    0.004115
   2 O :   -0.649219   -0.001365
   3 O :   -0.642358   -0.000155
   4 N :   -0.245938   -0.008283
   5 N :   -0.193033   -0.005643
   6 N :   -0.062965   -0.000714
   7 N :    0.058221   -0.001229
   8 C :    0.361539    0.320190
   9 C :    0.681734    0.387669
  10 C :    0.389998   -0.204958
  11 C :    0.262816   -0.243140
  12 C :   -1.546981   -0.008193
  13 C :   -1.918114   -0.007613
  14 C :    0.288960   -0.113723
  15 C :    0.403603   -0.174511
  16 C :    0.410115    0.006377
  17 C :    0.338592    0.009498
  18 H :    0.477911   -0.002167
  19 H :    0.502664    0.002848
  20 H :    0.346694    0.008087
  21 H :    0.415825    0.009798
  22 H :    0.274905   -0.000919
  23 H :    0.264917    0.007983
  24 H :    0.412252    0.007279
  25 H :    0.417341    0.003681
  26 H :    0.087973    0.000563
  27 H :    0.089902    0.001669
  28 H :    0.116169    0.001158
  29 H :    0.035333    0.001282
Sum of atomic charges       :    0.0000000

LOEWDIN ATOMIC CHARGES AND SPIN DENSITIES
-----------------------------------------
   0 O :    0.078647    0.000087
   1 O :    0.047641    0.003764
   2 O :    0.088123   -0.001222
   3 O :    0.064364   -0.000210
   4 N :    0.282763   -0.001472
   5 N :    0.257656   -0.001846
   6 N :    0.301311   -0.000916
   7 N :    0.346905   -0.002767
   8 C :   -0.090671    0.010370
   9 C :   -0.019619    0.008415
  10 C :   -0.077166   -0.005413
  11 C :   -0.093181   -0.006259
  12 C :    0.162074    0.001772
  13 C :    0.216569    0.000988
  14 C :   -0.424912   -0.002372
  15 C :   -0.368336   -0.003188
  16 C :   -0.473696   -0.000438
  17 C :   -0.407341   -0.000512
  18 H :    0.067359   -0.000543
  19 H :    0.068577   -0.001138
  20 H :    0.010194    0.000153
  21 H :    0.034161    0.001492
  22 H :    0.021102    0.000285
  23 H :    0.020835    0.000841
  24 H :    0.053165    0.000584
  25 H :   -0.082465    0.000110
  26 H :   -0.040784   -0.000096
  27 H :   -0.030171   -0.000170
  28 H :    0.050962   -0.000043
  29 H :   -0.064068   -0.000255

  Mayer bond orders larger than 0.100000
B(  0-O , 14-C ) :   1.3242 B(  1-O , 13-C ) :   0.1018 B(  1-O , 15-C ) :   1.2043
B(  2-O , 16-C ) :   1.4910 B(  3-O , 17-C ) :   1.6328 B(  4-N ,  8-C ) :   0.1824
B(  4-N , 10-C ) :   0.4477 B(  4-N , 16-C ) :   1.0832 B(  4-N , 18-H ) :  -0.1320
B(  4-N , 26-H ) :   0.9925 B(  5-N , 11-C ) :   0.5002 B(  5-N , 17-C ) :   1.0953
B(  5-N , 27-H ) :   1.0906 B(  6-N ,  8-C ) :  -0.1486 B(  6-N , 10-C ) :   0.1178
B(  6-N , 14-C ) :   1.0223 B(  6-N , 16-C ) :   0.9037 B(  6-N , 28-H ) :   1.0554
B(  7-N , 15-C ) :   1.0550 B(  7-N , 17-C ) :   0.9750 B(  7-N , 29-H ) :   1.0773
B(  8-C ,  9-C ) :   0.1623 B(  8-C , 10-C ) :   0.8124 B(  8-C , 11-C ) :   0.2211
B(  8-C , 12-C ) :   0.2455 B(  8-C , 13-C ) :   0.1380 B(  8-C , 14-C ) :   0.8140
B(  8-C , 20-H ) :  -0.1755 B(  8-C , 22-H ) :  -0.1020 B(  9-C , 11-C ) :   0.7643
B(  9-C , 15-C ) :   0.7442 B(  9-C , 19-H ) :  -0.1837 B(  9-C , 23-H ) :  -0.1136
B(  9-C , 25-H ) :  -0.1326 B( 10-C , 11-C ) :   0.4434 B( 10-C , 12-C ) :  -0.1714
B( 10-C , 18-H ) :   0.8176 B( 11-C , 13-C ) :  -0.3410 B( 11-C , 17-C ) :  -0.1750
B( 11-C , 19-H ) :   0.8714 B( 12-C , 20-H ) :   1.0272 B( 12-C , 21-H ) :   0.7868
B( 12-C , 22-H ) :   1.0628 B( 13-C , 23-H ) :   1.0363 B( 13-C , 24-H ) :   0.7737
B( 13-C , 25-H ) :   0.9795

Dispersion correction           -0.057514353
FINAL SINGLE POINT ENERGY      -908.778936419335

DIPOLE MOMENT
-------------

Method             : TDA/CIS
Type of density    : Electron Density
Level              : Relaxed density
State              :   1
Multiplicity       :   3
Irrep              :   0
Energy             :     0.0000000000000000 Eh
Relativity type    :
Basis              : AO
                                X                 Y                 Z
Electronic contribution:     -9.333868915      -4.322220840      -1.741692745
Nuclear contribution   :     11.219376288       4.826936259       3.473416816
                        -----------------------------------------
Total Dipole Moment    :      1.885507373       0.504715419       1.731724070
                        -----------------------------------------
Magnitude (a.u.)       :      2.609357002
Magnitude (Debye)      :      6.632458410

Rotational constants in cm-1:             0.023531             0.010803             0.010198
Rotational constants in MHz :           705.427400           323.873845           305.724092

                             ****ORCA TERMINATED NORMALLY****
TOTAL RUN TIME: 0 days 0 hours 4 minutes 57 seconds 974 msec
