                         Program Version 6.0.0  -   RELEASE  -
|  1> ! Engrad def2-TZVPPD wB97M-D3BJ
|  2> %pal nprocs 8 end%pal nprocs 32 end
|  3> %tddft Nroots 2 Iroot 1
|  4> sf true
|  5> end
|  6> *xyz 0 3
|  7> O   0.15099747 1.19156642 0.00264354
|  8> C   0.58472905 -0.59789686 0.03129613
|  9> C   -0.7498835 -0.84291041 -0.02431682
| 10> H   1.12275933 -0.61331692 0.955292
| 11> H   1.0961108 -0.5492281 -0.90527959
| 12> H   -1.2395877 -0.70558974 -0.96186782
| 13> H   -1.35192715 -0.51295878 0.81063756
| 14> *
| 15>
| 16>                          ****END OF INPUT****

CARTESIAN COORDINATES (ANGSTROEM)
---------------------------------
  O      0.150997    1.191566    0.002644
  C      0.584729   -0.597897    0.031296
  C     -0.749884   -0.842910   -0.024317
  H      1.122759   -0.613317    0.955292
  H      1.096111   -0.549228   -0.905280
  H     -1.239588   -0.705590   -0.961868
  H     -1.351927   -0.512959    0.810638

 Total Charge           Charge          ....    0
 Multiplicity           Mult            ....    3
 Number of Electrons    NEL             ....   24
 Basis Dimension        Dim             ....  182

ORBITAL ENERGIES
----------------
                 SPIN UP ORBITALS
  NO   OCC          E(Eh)            E(eV)
   0   1.0000     -19.398114      -527.8495
   1   1.0000     -10.399830      -282.9938
   2   1.0000     -10.364016      -282.0192
   3   1.0000      -1.095384       -29.8069
   4   1.0000      -0.912159       -24.8211
   5   1.0000      -0.731257       -19.8985
   6   1.0000      -0.621578       -16.9140
   7   1.0000      -0.551071       -14.9954
   8   1.0000      -0.527033       -14.3413
   9   1.0000      -0.497365       -13.5340
  10   1.0000      -0.477420       -12.9913
  11   1.0000      -0.442833       -12.0501
  12   1.0000      -0.329696        -8.9715
  13   0.0000       0.043182         1.1751
  14   0.0000       0.059305         1.6138
  15   0.0000       0.071016         1.9324
  16   0.0000       0.080409         2.1880
  17   0.0000       0.096329         2.6213

                 SPIN DOWN ORBITALS
  NO   OCC          E(Eh)            E(eV)
   0   1.0000     -19.358704      -526.7771
   1   1.0000     -10.400993      -283.0254
   2   1.0000     -10.355129      -281.7774
   3   1.0000      -1.002138       -27.2696
   4   1.0000      -0.880154       -23.9502
   5   1.0000      -0.722130       -19.6502
   6   1.0000      -0.610782       -16.6202
   7   1.0000      -0.542154       -14.7528
   8   1.0000      -0.480639       -13.0789
   9   1.0000      -0.434787       -11.8312
  10   1.0000      -0.389320       -10.5939
  11   0.0000      -0.039472        -1.0741
  12   0.0000      -0.015490        -0.4215
  13   0.0000       0.042507         1.1567
  14   0.0000       0.060303         1.6409
  15   0.0000       0.084003         2.2858

----------------------------------------------------------------------------------------------------
          SPIN FLIP ABSORPTION SPECTRUM VIA TRANSITION ELECTRIC DIPOLE MOMENTS
----------------------------------------------------------------------------------------------------
     Transition      Energy     Energy  Wavelength fosc(D2)      D2        DX        DY        DZ
                      (eV)      (cm-1)    (nm)                 (au**2)    (au)      (au)      (au)
----------------------------------------------------------------------------------------------------
  1-3A  ->  2-3A    0.696604    5618.5  1779.8   0.000169346   0.00992  -0.03421  -0.03458   0.08693

Dispersion correction             ... done (  0.1 sec)

MULLIKEN ATOMIC CHARGES AND SPIN DENSITIES
------------------------------------------
   0 O :   -0.460932   -0.074765
   1 C :   -0.126275   -0.055680
   2 C :   -0.385017    0.042657
   3 H :    0.218482    0.017356
   4 H :    0.222865    0.027785
   5 H :    0.250695    0.026672
   6 H :    0.280182    0.015974
Sum of atomic charges       :   -0.0000000

LOEWDIN ATOMIC CHARGES AND SPIN DENSITIES
-----------------------------------------
   0 O :   -0.223002   -0.088356
   1 C :    0.016596   -0.030205
   2 C :    0.257146    0.105890
   3 H :   -0.006801   -0.005601
   4 H :   -0.013414   -0.005969
   5 H :   -0.018917    0.013165
   6 H :   -0.011609    0.011076

  Mayer bond orders larger than 0.100000
B(  0-O ,  1-C ) :   0.4956 B(  0-O ,  2-C ) :   0.6758 B(  1-C ,  2-C ) :   1.0393
B(  1-C ,  3-H ) :   0.9810 B(  1-C ,  4-H ) :   0.9809 B(  2-C ,  5-H ) :   0.9657
B(  2-C ,  6-H ) :   0.9313

Dispersion correction           -0.005975488
FINAL SINGLE POINT ENERGY      -153.717424003190

DIPOLE MOMENT
-------------

Method             : TDA/CIS
Type of density    : Electron Density
Level              : Relaxed density
State              :   1
Multiplicity       :   3
Irrep              :   0
Energy             :     0.0000000000000000 Eh
Relativity type    :
Basis              : AO
                                X                 Y                 Z
Electronic contribution:      0.150255214       0.711696758       0.076486698
Nuclear contribution   :     -0.352206400      -2.161374817      -0.096981744
                        -----------------------------------------
Total Dipole Moment    :     -0.201951186      -1.449678058      -0.020495046
                        -----------------------------------------
Magnitude (a.u.)       :      1.463820618
Magnitude (Debye)      :      3.720736318

Rotational constants in cm-1:             0.911776             0.398663             0.311538
Rotational constants in MHz :         27334.343188         11951.619262          9339.680176

                             ****ORCA TERMINATED NORMALLY****
TOTAL RUN TIME: 0 days 0 hours 0 minutes 18 seconds 3 msec
