                         Program Version 6.0.0  -   RELEASE  -
|  1> ! Engrad def2-TZVPPD wB97M-D3BJ
|  2> %pal nprocs 8 end%pal nprocs 64 end
|  3> %tddft Nroots 2 Iroot 1
|  4> sf true
|  5> end
|  6> *xyz 0 3
|  7> O   3.61899157 0.34862536 -0.38015542
|  8> O   -1.24887473 1.23192742 -2.61582073
|  9> O   0.50966985 -2.78614587 -0.77237154
| 10> O   -3.0438462 -1.72198913 0.2221601
| 11> N   0.30681421 -1.33465924 0.94598716
| 12> N   -2.00972439 0.15050492 1.1268822
| 13> N   1.71569619 -0.85789526 -0.85191812
| 14> N   -1.78708292 -0.35884533 -1.11073563
| 15> C   1.85785136 0.46859681 1.1710244
| 16> C   -0.90606661 1.67390764 -0.31700232
| 17> C   0.43110106 0.002777 1.43938139
| 18> C   -0.80106758 0.96735014 1.01587785
| 19> C   2.67180105 1.04377335 2.25039729
| 20> C   -0.9659216 3.14421627 -0.41004546
| 21> C   2.48889343 -0.00723989 -0.02347223
| 22> C   -1.25948358 0.85341842 -1.46914502
| 23> C   0.81398771 -1.72191298 -0.27800896
| 24> C   -2.35301224 -0.72627719 0.11082122
| 25> H   0.3861581 -0.01652005 2.53963283
| 26> H   -0.77779134 1.73888518 1.78274935
| 27> H   3.72846723 1.08048227 1.91823329
| 28> H   2.39082708 2.03967393 2.61808671
| 29> H   2.73839651 0.33415311 3.07129211
| 30> H   -1.94178863 3.45487399 -0.01177543
| 31> H   -0.19667872 3.61069047 0.18980437
| 32> H   -0.86916159 3.43938279 -1.43621223
| 33> H   -0.4254357 -1.93296356 1.28353228
| 34> H   -2.2967524 -0.12481782 2.03023841
| 35> H   2.21377113 -1.17354411 -1.67352685
| 36> H   -2.02003943 -0.99107073 -1.89603941
| 37> *
| 38>
| 39>                          ****END OF INPUT****

CARTESIAN COORDINATES (ANGSTROEM)
---------------------------------
  O      3.618992    0.348625   -0.380155
  O     -1.248875    1.231927   -2.615821
  O      0.509670   -2.786146   -0.772372
  O     -3.043846   -1.721989    0.222160
  N      0.306814   -1.334659    0.945987
  N     -2.009724    0.150505    1.126882
  N      1.715696   -0.857895   -0.851918
  N     -1.787083   -0.358845   -1.110736
  C      1.857851    0.468597    1.171024
  C     -0.906067    1.673908   -0.317002
  C      0.431101    0.002777    1.439381
  C     -0.801068    0.967350    1.015878
  C      2.671801    1.043773    2.250397
  C     -0.965922    3.144216   -0.410045
  C      2.488893   -0.007240   -0.023472
  C     -1.259484    0.853418   -1.469145
  C      0.813988   -1.721913   -0.278009
  C     -2.353012   -0.726277    0.110821
  H      0.386158   -0.016520    2.539633
  H     -0.777791    1.738885    1.782749
  H      3.728467    1.080482    1.918233
  H      2.390827    2.039674    2.618087
  H      2.738397    0.334153    3.071292
  H     -1.941789    3.454874   -0.011775
  H     -0.196679    3.610690    0.189804
  H     -0.869162    3.439383   -1.436212
  H     -0.425436   -1.932964    1.283532
  H     -2.296752   -0.124818    2.030238
  H      2.213771   -1.173544   -1.673527
  H     -2.020039   -0.991071   -1.896039

 Total Charge           Charge          ....    0
 Multiplicity           Mult            ....    3
 Number of Electrons    NEL             ....  132
 Basis Dimension        Dim             ....  882

ORBITAL ENERGIES
----------------
                 SPIN UP ORBITALS
  NO   OCC          E(Eh)            E(eV)
   0   1.0000     -19.341647      -526.3130
   1   1.0000     -19.330290      -526.0039
   2   1.0000     -19.326982      -525.9139
   3   1.0000     -19.314568      -525.5761
   4   1.0000     -14.564327      -396.3155
   5   1.0000     -14.563354      -396.2890
   6   1.0000     -14.559518      -396.1846
   7   1.0000     -14.556908      -396.1136
   8   1.0000     -10.511163      -286.0233
   9   1.0000     -10.500952      -285.7454
  10   1.0000     -10.483574      -285.2725
  11   1.0000     -10.474821      -285.0344
  12   1.0000     -10.446506      -284.2639
  13   1.0000     -10.446339      -284.2593
  14   1.0000     -10.424391      -283.6621
  15   1.0000     -10.413264      -283.3593
  16   1.0000     -10.377046      -282.3738
  17   1.0000     -10.369682      -282.1734
  18   1.0000      -1.221226       -33.2313
  19   1.0000      -1.215577       -33.0775
  20   1.0000      -1.197695       -32.5909
  21   1.0000      -1.191670       -32.4270
  22   1.0000      -1.120128       -30.4802
  23   1.0000      -1.098979       -29.9047
  24   1.0000      -1.066273       -29.0148
  25   1.0000      -1.054976       -28.7073
  26   1.0000      -0.974639       -26.5213
  27   1.0000      -0.959587       -26.1117
  28   1.0000      -0.886964       -24.1355
  29   1.0000      -0.841472       -22.8976
  30   1.0000      -0.828191       -22.5362
  31   1.0000      -0.802041       -21.8246
  32   1.0000      -0.788892       -21.4668
  33   1.0000      -0.778096       -21.1731
  34   1.0000      -0.696203       -18.9447
  35   1.0000      -0.693347       -18.8669
  36   1.0000      -0.686428       -18.6786
  37   1.0000      -0.663955       -18.0671
  38   1.0000      -0.659172       -17.9370
  39   1.0000      -0.642784       -17.4910
  40   1.0000      -0.616804       -16.7841
  41   1.0000      -0.605277       -16.4704
  42   1.0000      -0.597588       -16.2612
  43   1.0000      -0.586164       -15.9503
  44   1.0000      -0.574401       -15.6302
  45   1.0000      -0.571313       -15.5462
  46   1.0000      -0.565868       -15.3981
  47   1.0000      -0.562211       -15.2985
  48   1.0000      -0.559399       -15.2220
  49   1.0000      -0.552948       -15.0465
  50   1.0000      -0.545037       -14.8312
  51   1.0000      -0.540019       -14.6947
  52   1.0000      -0.534088       -14.5333
  53   1.0000      -0.521745       -14.1974
  54   1.0000      -0.514859       -14.0100
  55   1.0000      -0.502292       -13.6681
  56   1.0000      -0.490655       -13.3514
  57   1.0000      -0.423756       -11.5310
  58   1.0000      -0.421309       -11.4644
  59   1.0000      -0.416029       -11.3207
  60   1.0000      -0.402884       -10.9630
  61   1.0000      -0.400484       -10.8977
  62   1.0000      -0.391240       -10.6462
  63   1.0000      -0.389986       -10.6121
  64   1.0000      -0.381828       -10.3901
  65   1.0000      -0.346830        -9.4377
  66   1.0000      -0.333331        -9.0704
  67   0.0000       0.005226         0.1422
  68   0.0000       0.027293         0.7427
  69   0.0000       0.031826         0.8660
  70   0.0000       0.037701         1.0259
  71   0.0000       0.055637         1.5140

                 SPIN DOWN ORBITALS
  NO   OCC          E(Eh)            E(eV)
   0   1.0000     -19.335961      -526.1582
   1   1.0000     -19.326780      -525.9084
   2   1.0000     -19.326449      -525.8994
   3   1.0000     -19.314380      -525.5710
   4   1.0000     -14.564060      -396.3082
   5   1.0000     -14.562433      -396.2639
   6   1.0000     -14.559168      -396.1751
   7   1.0000     -14.556351      -396.0984
   8   1.0000     -10.511188      -286.0240
   9   1.0000     -10.500986      -285.7464
  10   1.0000     -10.484787      -285.3055
  11   1.0000     -10.475811      -285.0613
  12   1.0000     -10.446427      -284.2617
  13   1.0000     -10.446313      -284.2586
  14   1.0000     -10.413190      -283.3573
  15   1.0000     -10.401506      -283.0394
  16   1.0000     -10.377605      -282.3890
  17   1.0000     -10.370204      -282.1876
  18   1.0000      -1.219345       -33.1801
  19   1.0000      -1.213427       -33.0190
  20   1.0000      -1.193522       -32.4774
  21   1.0000      -1.185063       -32.2472
  22   1.0000      -1.117520       -30.4093
  23   1.0000      -1.096280       -29.8313
  24   1.0000      -1.064458       -28.9654
  25   1.0000      -1.053267       -28.6609
  26   1.0000      -0.960280       -26.1305
  27   1.0000      -0.942799       -25.6549
  28   1.0000      -0.882655       -24.0183
  29   1.0000      -0.836133       -22.7523
  30   1.0000      -0.819748       -22.3065
  31   1.0000      -0.797083       -21.6897
  32   1.0000      -0.787087       -21.4177
  33   1.0000      -0.776526       -21.1303
  34   1.0000      -0.690551       -18.7909
  35   1.0000      -0.687010       -18.6945
  36   1.0000      -0.680791       -18.5253
  37   1.0000      -0.657541       -17.8926
  38   1.0000      -0.647946       -17.6315
  39   1.0000      -0.639165       -17.3926
  40   1.0000      -0.613799       -16.7023
  41   1.0000      -0.600238       -16.3333
  42   1.0000      -0.587312       -15.9816
  43   1.0000      -0.578599       -15.7445
  44   1.0000      -0.567618       -15.4457
  45   1.0000      -0.562526       -15.3071
  46   1.0000      -0.559956       -15.2372
  47   1.0000      -0.557446       -15.1689
  48   1.0000      -0.551404       -15.0045
  49   1.0000      -0.545881       -14.8542
  50   1.0000      -0.539309       -14.6753
  51   1.0000      -0.533230       -14.5099
  52   1.0000      -0.528158       -14.3719
  53   1.0000      -0.506821       -13.7913
  54   1.0000      -0.505826       -13.7642
  55   1.0000      -0.497923       -13.5492
  56   1.0000      -0.485508       -13.2113
  57   1.0000      -0.418809       -11.3964
  58   1.0000      -0.417288       -11.3550
  59   1.0000      -0.408632       -11.1194
  60   1.0000      -0.392375       -10.6771
  61   1.0000      -0.387539       -10.5455
  62   1.0000      -0.387202       -10.5363
  63   1.0000      -0.384181       -10.4541
  64   1.0000      -0.375427       -10.2159
  65   0.0000      -0.064482        -1.7546
  66   0.0000      -0.048906        -1.3308
  67   0.0000       0.005117         0.1392
  68   0.0000       0.027084         0.7370
  69   0.0000       0.031811         0.8656

----------------------------------------------------------------------------------------------------
          SPIN FLIP ABSORPTION SPECTRUM VIA TRANSITION ELECTRIC DIPOLE MOMENTS
----------------------------------------------------------------------------------------------------
     Transition      Energy     Energy  Wavelength fosc(D2)      D2        DX        DY        DZ
                      (eV)      (cm-1)    (nm)                 (au**2)    (au)      (au)      (au)
----------------------------------------------------------------------------------------------------
  1-3A  ->  2-1A    0.011302      91.2  109702.1   0.000000240   0.00087   0.02254   0.01878  -0.00244

Dispersion correction             ... done (  0.1 sec)

MULLIKEN ATOMIC CHARGES AND SPIN DENSITIES
------------------------------------------
   0 O :   -0.676957   -0.130893
   1 O :   -0.665185    0.088346
   2 O :   -0.660250   -0.004636
   3 O :   -0.630726    0.003280
   4 N :   -0.324527   -0.009037
   5 N :   -0.323154    0.013097
   6 N :    0.092591    0.002267
   7 N :    0.006475    0.013889
   8 C :    0.880742    0.374598
   9 C :    0.199007    0.377036
  10 C :    0.161836   -0.367151
  11 C :    0.544415   -0.027507
  12 C :   -1.417431    0.028768
  13 C :   -1.573055    0.018490
  14 C :   -0.045191   -0.462423
  15 C :    0.526480    0.022756
  16 C :    0.277446    0.028695
  17 C :    0.348172   -0.004788
  18 H :    0.538171   -0.014757
  19 H :    0.367920    0.018496
  20 H :    0.312945   -0.011547
  21 H :    0.305645    0.006095
  22 H :    0.373884   -0.001743
  23 H :    0.362630    0.022366
  24 H :    0.318903    0.005613
  25 H :    0.349783    0.006635
  26 H :    0.099555   -0.001237
  27 H :    0.096427    0.001597
  28 H :    0.095523    0.003428
  29 H :    0.057925    0.000266
Sum of atomic charges       :    0.0000000

LOEWDIN ATOMIC CHARGES AND SPIN DENSITIES
-----------------------------------------
   0 O :    0.067092   -0.119621
   1 O :    0.106363    0.079086
   2 O :    0.089999   -0.004526
   3 O :    0.089773    0.003306
   4 N :    0.271508   -0.006590
   5 N :    0.279573    0.013414
   6 N :    0.331393   -0.005331
   7 N :    0.306916    0.009465
   8 C :   -0.000028   -0.302320
   9 C :   -0.015342    0.340100
  10 C :   -0.098335   -0.020190
  11 C :   -0.071158    0.017753
  12 C :    0.178790   -0.049893
  13 C :    0.194018    0.051849
  14 C :   -0.382154   -0.059242
  15 C :   -0.431257    0.050445
  16 C :   -0.495604   -0.000142
  17 C :   -0.475719    0.000365
  18 H :    0.049777   -0.001470
  19 H :    0.042872   -0.001153
  20 H :    0.009294    0.000576
  21 H :    0.014636   -0.011202
  22 H :    0.005713   -0.013713
  23 H :    0.021402    0.019649
  24 H :   -0.005139    0.007624
  25 H :   -0.012328    0.000995
  26 H :   -0.034467   -0.000995
  27 H :   -0.055896    0.001477
  28 H :   -0.007075   -0.000505
  29 H :    0.025384    0.000788

  Mayer bond orders larger than 0.100000
B(  0-O , 14-C ) :   1.3730 B(  1-O , 15-C ) :   1.4149 B(  2-O , 16-C ) :   1.5208
B(  3-O , 17-C ) :   1.5891 B(  4-N ,  8-C ) :   0.2982 B(  4-N , 16-C ) :   1.1071
B(  4-N , 26-H ) :   1.0469 B(  5-N ,  9-C ) :   0.3372 B(  5-N , 10-C ) :   0.1647
B(  5-N , 17-C ) :   1.0989 B(  5-N , 27-H ) :   1.0119 B(  6-N , 14-C ) :   1.0036
B(  6-N , 16-C ) :   1.0303 B(  6-N , 28-H ) :   1.0202 B(  7-N , 11-C ) :   0.1202
B(  7-N , 15-C ) :   0.9191 B(  7-N , 17-C ) :   0.9897 B(  7-N , 29-H ) :   1.0791
B(  8-C , 10-C ) :   0.3372 B(  8-C , 11-C ) :   0.1315 B(  8-C , 12-C ) :   0.2990
B(  8-C , 14-C ) :   0.7032 B(  8-C , 16-C ) :   0.1359 B(  8-C , 20-H ) :  -0.1179
B(  9-C , 10-C ) :   0.2600 B(  9-C , 11-C ) :  -0.2268 B(  9-C , 13-C ) :   0.3565
B(  9-C , 15-C ) :   0.8479 B(  9-C , 19-H ) :  -0.1108 B(  9-C , 25-H ) :  -0.1099
B( 10-C , 11-C ) :   0.5790 B( 10-C , 16-C ) :  -0.2934 B( 10-C , 18-H ) :   0.7245
B( 10-C , 19-H ) :  -0.1477 B( 11-C , 15-C ) :  -0.1329 B( 11-C , 17-C ) :  -0.1495
B( 11-C , 19-H ) :   1.0649 B( 12-C , 20-H ) :   0.9958 B( 12-C , 21-H ) :   0.9070
B( 12-C , 22-H ) :   0.8741 B( 13-C , 15-C ) :  -0.1212 B( 13-C , 23-H ) :   0.8583
B( 13-C , 24-H ) :   0.9664 B( 13-C , 25-H ) :   0.9617 B( 14-C , 16-C ) :  -0.1254

Dispersion correction           -0.057254877
FINAL SINGLE POINT ENERGY      -908.784050899773

DIPOLE MOMENT
-------------

Method             : TDA/CIS
Type of density    : Electron Density
Level              : Relaxed density
State              :   1
Multiplicity       :   3
Irrep              :   0
Energy             :     0.0000000000000000 Eh
Relativity type    :
Basis              : AO
                                X                 Y                 Z
Electronic contribution:     -2.768079099      -8.995459137      -7.214906629
Nuclear contribution   :      2.771034482      10.715423764       9.845019521
                        -----------------------------------------
Total Dipole Moment    :      0.002955383       1.719964627       2.630112892
                        -----------------------------------------
Magnitude (a.u.)       :      3.142575516
Magnitude (Debye)      :      7.987792162

Rotational constants in cm-1:             0.019697             0.013243             0.011615
Rotational constants in MHz :           590.504873           397.008930           348.220523

                             ****ORCA TERMINATED NORMALLY****
TOTAL RUN TIME: 0 days 0 hours 4 minutes 36 seconds 113 msec
