                         Program Version 6.0.0  -   RELEASE  -
|  1> ! Opt wB97M-D3BJ def2-TZVPPD
|  2> %pal nprocs 8 end %pal nprocs 64 end
|  3> %geom
|  4> Constraints
|  5>     {A 2 1 0 98.18181818181819 C }
|  6> end
|  7> MaxIter 500
|  8> end
|  9> *xyz 0 1
| 10> O   -0.0007 0.8141 0.0
| 11> C   0.7509 -0.4065 0.0
| 12> C   -0.7502 -0.4076 0.0
| 13> H   1.2625 -0.6786 0.9136
| 14> H   1.2625 -0.6787 -0.9136
| 15> H   -1.2614 -0.6806 -0.9136
| 16> H   -1.2614 -0.6805 0.9136
| 17> *
| 18>
| 19>                          ****END OF INPUT****
 Total Charge           Charge          ....    0
 Multiplicity           Mult            ....    1
 Number of Electrons    NEL             ....   24
Dispersion correction           -0.005768218
FINAL SINGLE POINT ENERGY      -153.753247305966
Dispersion correction             ... done (  0.1 sec)
Dispersion correction           -0.005694398
FINAL SINGLE POINT ENERGY      -153.787032303916
Dispersion correction             ... done (  0.1 sec)
Dispersion correction           -0.005652636
FINAL SINGLE POINT ENERGY      -153.797305537819
Dispersion correction             ... done (  0.1 sec)
FINAL SINGLE POINT ENERGY      -153.801569160278
FINAL SINGLE POINT ENERGY      -153.802596588534
FINAL SINGLE POINT ENERGY      -153.802841015514
FINAL SINGLE POINT ENERGY      -153.802974925419
FINAL SINGLE POINT ENERGY      -153.803060945805
FINAL SINGLE POINT ENERGY      -153.803120015955
FINAL SINGLE POINT ENERGY      -153.803170230088
FINAL SINGLE POINT ENERGY      -153.803198622144
FINAL SINGLE POINT ENERGY      -153.803209707005
Dispersion correction             ... done (  0.1 sec)
Dispersion correction           -0.005663106
FINAL SINGLE POINT ENERGY      -153.803213551498
Dispersion correction             ... done (  0.1 sec)
Dispersion correction           -0.005663438
FINAL SINGLE POINT ENERGY      -153.803214637909
Dispersion correction             ... done (  0.2 sec)
                    ***********************HURRAY********************

CARTESIAN COORDINATES (ANGSTROEM)
---------------------------------
  O      0.387661    1.039407   -0.002735
  C      0.620442   -0.278709   -0.000526
  C     -0.743213   -0.726978    0.000761
  H      1.173568   -0.630407    0.882870
  H      1.173394   -0.633461   -0.882781
  H     -1.305488   -0.746110   -0.922646
  H     -1.304163   -0.742142    0.925056

 Multiplicity           Mult            ....    1
 Number of Electrons    NEL             ....   24
 Basis Dimension        Dim             ....  182

ORBITAL ENERGIES
----------------

  NO   OCC          E(Eh)            E(eV)
   0   2.0000     -19.331280      -526.0309
   1   2.0000     -10.442814      -284.1634
   2   2.0000     -10.397102      -282.9195
   3   2.0000      -1.131311       -30.7845
   4   2.0000      -0.880161       -23.9504
   5   2.0000      -0.733677       -19.9644
   6   2.0000      -0.624812       -17.0020
   7   2.0000      -0.575031       -15.6474
   8   2.0000      -0.517879       -14.0922
   9   2.0000      -0.511107       -13.9079
  10   2.0000      -0.372231       -10.1289
  11   2.0000      -0.355711        -9.6794
  12   0.0000      -0.051441        -1.3998
  13   0.0000       0.037247         1.0135
  14   0.0000       0.061146         1.6639
  15   0.0000       0.076442         2.0801
  16   0.0000       0.098120         2.6700

MULLIKEN ATOMIC CHARGES
-----------------------
   0 O :   -0.506950
   1 C :   -0.101962
   2 C :   -0.258354
   3 H :    0.216097
   4 H :    0.216252
   5 H :    0.217423
   6 H :    0.217494
Sum of atomic charges:   -0.0000000

LOEWDIN ATOMIC CHARGES
----------------------
   0 O :   -0.016293
   1 C :   -0.394355
   2 C :    0.381140
   3 H :    0.022830
   4 H :    0.022830
   5 H :   -0.008073
   6 H :   -0.008080

  Mayer bond orders larger than 0.100000
B(  0-O ,  1-C ) :   0.7137 B(  0-O ,  2-C ) :   0.9106 B(  1-C ,  2-C ) :   0.7784
B(  1-C ,  3-H ) :   1.0430 B(  1-C ,  4-H ) :   1.0428 B(  2-C ,  5-H ) :   0.9666
B(  2-C ,  6-H ) :   0.9665

Dispersion correction           -0.005663817
FINAL SINGLE POINT ENERGY      -153.803214838717

DIPOLE MOMENT
-------------

Method             : SCF
Type of density    : Electron Density
Multiplicity       :   1
Irrep              :   0
Energy             :  -153.7975510220673243 Eh
Relativity type    :
Basis              : AO
                                X                 Y                 Z
Electronic contribution:      0.092883928       1.414900477      -0.003111192
Nuclear contribution   :     -0.622382265      -2.718492294       0.005590565
                        -----------------------------------------
Total Dipole Moment    :     -0.529498337      -1.303591818       0.002479373
                        -----------------------------------------
Magnitude (a.u.)       :      1.407027457
Magnitude (Debye)      :      3.576379575

Rotational constants in cm-1:             1.160113             0.444945             0.367795
Rotational constants in MHz :         34779.304087         13339.104232         11026.229136

                             ****ORCA TERMINATED NORMALLY****
TOTAL RUN TIME: 0 days 0 hours 3 minutes 30 seconds 767 msec
