                         Program Version 6.0.0  -   RELEASE  -
|  1> ! Engrad def2-TZVPPD wB97M-D3BJ
|  2> %pal nprocs 8 end%pal nprocs 64 end
|  3> %tddft
|  4>  Iroot 2 Nroots 3
|  5> sf true
|  6> end
|  7> *xyz 0 3
|  8> O   3.59802528 -0.83241285 -0.34475398
|  9> O   -1.21910857 1.33320336 -2.66156529
| 10> O   -0.46473399 -2.85599296 -0.50665121
| 11> O   -3.43445452 -0.62491297 0.84744064
| 12> N   0.04469243 -1.35104403 1.10505518
| 13> N   -1.75729276 0.7671198 1.2353298
| 14> N   1.42188771 -1.58698478 -0.74800497
| 15> N   -2.17239868 0.09957506 -0.96479527
| 16> C   1.88201425 0.04196343 0.97659086
| 17> C   -0.31538924 1.59583177 -0.52081579
| 18> C   0.52227048 -0.08279254 1.39346657
| 19> C   -0.46390592 1.20278432 0.89224611
| 20> C   2.8264412 1.08299375 1.52871031
| 21> C   0.61793007 2.59477324 -1.1251601
| 22> C   2.41627549 -0.80556298 -0.1311929
| 23> C   -1.20477221 0.92926511 -1.51756854
| 24> C   0.2285486 -1.97793923 -0.11629888
| 25> C   -2.50282423 0.00327175 0.43271617
| 26> H   0.50229036 -0.01261796 2.4710018
| 27> H   -0.18871414 1.98231878 1.58490256
| 28> H   3.88202225 0.9265378 1.24888354
| 29> H   2.59078917 2.00815999 1.01725023
| 30> H   2.69009902 1.07254113 2.59484322
| 31> H   0.70160588 2.42905375 -2.17255183
| 32> H   0.17942818 3.56073877 -0.96497484
| 33> H   1.62286812 2.59257528 -0.65931823
| 34> H   -0.79695639 -1.51141758 1.61160131
| 35> H   -1.86295414 0.54163197 2.21244875
| 36> H   1.72524066 -2.18837546 -1.44460821
| 37> H   -2.58514272 -0.73415068 -1.39257751
| 38> *
| 39>
| 40>                          ****END OF INPUT****

CARTESIAN COORDINATES (ANGSTROEM)
---------------------------------
  O      3.598025   -0.832413   -0.344754
  O     -1.219109    1.333203   -2.661565
  O     -0.464734   -2.855993   -0.506651
  O     -3.434455   -0.624913    0.847441
  N      0.044692   -1.351044    1.105055
  N     -1.757293    0.767120    1.235330
  N      1.421888   -1.586985   -0.748005
  N     -2.172399    0.099575   -0.964795
  C      1.882014    0.041963    0.976591
  C     -0.315389    1.595832   -0.520816
  C      0.522270   -0.082793    1.393467
  C     -0.463906    1.202784    0.892246
  C      2.826441    1.082994    1.528710
  C      0.617930    2.594773   -1.125160
  C      2.416275   -0.805563   -0.131193
  C     -1.204772    0.929265   -1.517569
  C      0.228549   -1.977939   -0.116299
  C     -2.502824    0.003272    0.432716
  H      0.502290   -0.012618    2.471002
  H     -0.188714    1.982319    1.584903
  H      3.882022    0.926538    1.248884
  H      2.590789    2.008160    1.017250
  H      2.690099    1.072541    2.594843
  H      0.701606    2.429054   -2.172552
  H      0.179428    3.560739   -0.964975
  H      1.622868    2.592575   -0.659318
  H     -0.796956   -1.511418    1.611601
  H     -1.862954    0.541632    2.212449
  H      1.725241   -2.188375   -1.444608
  H     -2.585143   -0.734151   -1.392578

 Total Charge           Charge          ....    0
 Multiplicity           Mult            ....    3
 Number of Electrons    NEL             ....  132
 Basis Dimension        Dim             ....  882

ORBITAL ENERGIES
----------------
                 SPIN UP ORBITALS
  NO   OCC          E(Eh)            E(eV)
   0   1.0000     -19.341083      -526.2976
   1   1.0000     -19.333267      -526.0849
   2   1.0000     -19.333176      -526.0825
   3   1.0000     -19.325546      -525.8748
   4   1.0000     -14.565393      -396.3445
   5   1.0000     -14.565091      -396.3363
   6   1.0000     -14.561645      -396.2425
   7   1.0000     -14.561319      -396.2336
   8   1.0000     -10.514109      -286.1035
   9   1.0000     -10.506017      -285.8833
  10   1.0000     -10.485568      -285.3268
  11   1.0000     -10.482393      -285.2404
  12   1.0000     -10.443417      -284.1798
  13   1.0000     -10.435477      -283.9638
  14   1.0000     -10.416223      -283.4398
  15   1.0000     -10.408135      -283.2198
  16   1.0000     -10.371563      -282.2246
  17   1.0000     -10.366240      -282.0797
  18   1.0000      -1.236621       -33.6502
  19   1.0000      -1.227874       -33.4121
  20   1.0000      -1.211202       -32.9585
  21   1.0000      -1.199876       -32.6503
  22   1.0000      -1.137839       -30.9622
  23   1.0000      -1.113908       -30.3110
  24   1.0000      -1.074364       -29.2349
  25   1.0000      -1.061083       -28.8735
  26   1.0000      -0.975208       -26.5368
  27   1.0000      -0.950502       -25.8645
  28   1.0000      -0.883354       -24.0373
  29   1.0000      -0.846902       -23.0454
  30   1.0000      -0.824757       -22.4428
  31   1.0000      -0.806839       -21.9552
  32   1.0000      -0.789850       -21.4929
  33   1.0000      -0.782348       -21.2888
  34   1.0000      -0.701125       -19.0786
  35   1.0000      -0.694233       -18.8910
  36   1.0000      -0.690385       -18.7863
  37   1.0000      -0.677125       -18.4255
  38   1.0000      -0.660204       -17.9651
  39   1.0000      -0.652313       -17.7503
  40   1.0000      -0.623837       -16.9755
  41   1.0000      -0.605489       -16.4762
  42   1.0000      -0.596192       -16.2232
  43   1.0000      -0.591537       -16.0965
  44   1.0000      -0.584422       -15.9029
  45   1.0000      -0.574105       -15.6222
  46   1.0000      -0.570307       -15.5188
  47   1.0000      -0.568247       -15.4628
  48   1.0000      -0.560103       -15.2412
  49   1.0000      -0.558949       -15.2098
  50   1.0000      -0.555061       -15.1040
  51   1.0000      -0.537442       -14.6245
  52   1.0000      -0.532729       -14.4963
  53   1.0000      -0.523185       -14.2366
  54   1.0000      -0.520469       -14.1627
  55   1.0000      -0.504570       -13.7300
  56   1.0000      -0.489822       -13.3287
  57   1.0000      -0.433504       -11.7962
  58   1.0000      -0.422294       -11.4912
  59   1.0000      -0.417889       -11.3713
  60   1.0000      -0.410999       -11.1839
  61   1.0000      -0.406074       -11.0498
  62   1.0000      -0.401523       -10.9260
  63   1.0000      -0.393195       -10.6994
  64   1.0000      -0.390509       -10.6263
  65   1.0000      -0.340791        -9.2734
  66   1.0000      -0.310214        -8.4414
  67   0.0000       0.005887         0.1602
  68   0.0000       0.028828         0.7845
  69   0.0000       0.033687         0.9167
  70   0.0000       0.036874         1.0034
  71   0.0000       0.054072         1.4714

                 SPIN DOWN ORBITALS
  NO   OCC          E(Eh)            E(eV)
   0   1.0000     -19.337099      -526.1892
   1   1.0000     -19.332998      -526.0776
   2   1.0000     -19.329314      -525.9774
   3   1.0000     -19.325432      -525.8718
   4   1.0000     -14.564905      -396.3312
   5   1.0000     -14.564539      -396.3213
   6   1.0000     -14.561067      -396.2268
   7   1.0000     -14.561039      -396.2260
   8   1.0000     -10.514149      -286.1045
   9   1.0000     -10.506067      -285.8846
  10   1.0000     -10.486514      -285.3525
  11   1.0000     -10.483460      -285.2694
  12   1.0000     -10.442684      -284.1599
  13   1.0000     -10.434625      -283.9406
  14   1.0000     -10.404987      -283.1341
  15   1.0000     -10.396848      -282.9126
  16   1.0000     -10.372103      -282.2393
  17   1.0000     -10.366709      -282.0925
  18   1.0000      -1.235725       -33.6258
  19   1.0000      -1.227087       -33.3907
  20   1.0000      -1.205787       -32.8111
  21   1.0000      -1.194345       -32.4998
  22   1.0000      -1.135471       -30.8977
  23   1.0000      -1.111878       -30.2557
  24   1.0000      -1.072755       -29.1911
  25   1.0000      -1.059368       -28.8269
  26   1.0000      -0.961292       -26.1581
  27   1.0000      -0.933585       -25.4041
  28   1.0000      -0.878263       -23.8988
  29   1.0000      -0.843134       -22.9428
  30   1.0000      -0.817112       -22.2348
  31   1.0000      -0.801547       -21.8112
  32   1.0000      -0.787649       -21.4330
  33   1.0000      -0.780728       -21.2447
  34   1.0000      -0.695861       -18.9353
  35   1.0000      -0.687997       -18.7213
  36   1.0000      -0.683368       -18.5954
  37   1.0000      -0.669799       -18.2262
  38   1.0000      -0.650311       -17.6959
  39   1.0000      -0.648928       -17.6582
  40   1.0000      -0.619253       -16.8507
  41   1.0000      -0.599363       -16.3095
  42   1.0000      -0.591189       -16.0871
  43   1.0000      -0.587663       -15.9911
  44   1.0000      -0.575531       -15.6610
  45   1.0000      -0.570571       -15.5260
  46   1.0000      -0.565956       -15.4004
  47   1.0000      -0.560473       -15.2512
  48   1.0000      -0.554419       -15.0865
  49   1.0000      -0.550514       -14.9802
  50   1.0000      -0.543881       -14.7997
  51   1.0000      -0.526636       -14.3305
  52   1.0000      -0.524337       -14.2679
  53   1.0000      -0.514099       -13.9893
  54   1.0000      -0.511577       -13.9207
  55   1.0000      -0.500755       -13.6262
  56   1.0000      -0.485264       -13.2047
  57   1.0000      -0.429960       -11.6998
  58   1.0000      -0.418071       -11.3763
  59   1.0000      -0.410213       -11.1625
  60   1.0000      -0.404104       -10.9962
  61   1.0000      -0.395031       -10.7493
  62   1.0000      -0.393203       -10.6996
  63   1.0000      -0.386761       -10.5243
  64   1.0000      -0.374791       -10.1986
  65   0.0000      -0.058989        -1.6052
  66   0.0000      -0.041001        -1.1157
  67   0.0000       0.005466         0.1487
  68   0.0000       0.028570         0.7774
  69   0.0000       0.033671         0.9162

----------------------------------------------------------------------------------------------------
          SPIN FLIP ABSORPTION SPECTRUM VIA TRANSITION ELECTRIC DIPOLE MOMENTS
----------------------------------------------------------------------------------------------------
     Transition      Energy     Energy  Wavelength fosc(D2)      D2        DX        DY        DZ
                      (eV)      (cm-1)    (nm)                 (au**2)    (au)      (au)      (au)
----------------------------------------------------------------------------------------------------
  1-3A  ->  2-3A    0.122355     986.9  10133.1   0.000065724   0.02193   0.12699  -0.06234   0.04374
  1-3A  ->  3-1A    2.341783   18887.8   529.4   0.076784611   1.33835   0.72003  -0.60655   0.67231

Dispersion correction             ... done (  0.1 sec)

MULLIKEN ATOMIC CHARGES AND SPIN DENSITIES
------------------------------------------
   0 O :   -0.623721   -0.018187
   1 O :   -0.626610    0.015780
   2 O :   -0.603005    0.000332
   3 O :   -0.611015   -0.000163
   4 N :   -0.197777   -0.002611
   5 N :   -0.333982    0.000194
   6 N :    0.089732   -0.006230
   7 N :   -0.008833    0.001164
   8 C :    0.285238    0.392222
   9 C :    0.098488    0.399554
  10 C :    0.030609   -0.309532
  11 C :    0.476529   -0.255606
  12 C :   -1.198936   -0.010167
  13 C :   -1.310224   -0.010270
  14 C :    0.100219   -0.171502
  15 C :    0.413813   -0.099235
  16 C :    0.345715    0.011485
  17 C :    0.327504    0.009339
  18 H :    0.710047    0.003881
  19 H :    0.431919   -0.004805
  20 H :    0.293792   -0.003412
  21 H :    0.302051    0.013293
  22 H :    0.379695    0.011152
  23 H :    0.306682   -0.001953
  24 H :    0.328356    0.014323
  25 H :    0.282128    0.014416
  26 H :    0.099693    0.000359
  27 H :    0.106700    0.001058
  28 H :    0.018068    0.004012
  29 H :    0.087125    0.001110
Sum of atomic charges       :    0.0000000

LOEWDIN ATOMIC CHARGES AND SPIN DENSITIES
-----------------------------------------
   0 O :    0.100116   -0.015908
   1 O :    0.088136    0.013911
   2 O :    0.128995    0.000195
   3 O :    0.106933   -0.000191
   4 N :    0.286381    0.000387
   5 N :    0.248662   -0.001701
   6 N :    0.358553   -0.005556
   7 N :    0.332009    0.000738
   8 C :   -0.018206   -0.042974
   9 C :    0.011127    0.067590
  10 C :   -0.148178   -0.005538
  11 C :   -0.074431   -0.000310
  12 C :    0.210746   -0.006713
  13 C :    0.208624    0.006596
  14 C :   -0.380604   -0.013023
  15 C :   -0.397478    0.004531
  16 C :   -0.467020   -0.000047
  17 C :   -0.504491   -0.000489
  18 H :    0.047932   -0.001935
  19 H :    0.047149   -0.000153
  20 H :    0.010924   -0.000253
  21 H :   -0.027776   -0.001936
  22 H :   -0.009814   -0.000580
  23 H :   -0.022803    0.000285
  24 H :   -0.000283    0.002953
  25 H :   -0.003738    0.000799
  26 H :   -0.045016    0.000018
  27 H :   -0.016710   -0.000229
  28 H :   -0.065416   -0.000483
  29 H :   -0.004323    0.000015

  Mayer bond orders larger than 0.100000
B(  0-O , 14-C ) :   1.4825 B(  1-O ,  9-C ) :   0.1167 B(  1-O , 15-C ) :   1.3156
B(  2-O , 16-C ) :   1.5940 B(  3-O , 17-C ) :   1.5796 B(  4-N ,  8-C ) :   0.2778
B(  4-N , 10-C ) :   0.1900 B(  4-N , 16-C ) :   0.9632 B(  4-N , 26-H ) :   1.0450
B(  5-N ,  9-C ) :   0.1941 B(  5-N , 10-C ) :   0.1159 B(  5-N , 17-C ) :   1.1442
B(  5-N , 27-H ) :   1.0609 B(  6-N , 10-C ) :   0.1142 B(  6-N , 14-C ) :   1.0250
B(  6-N , 16-C ) :   0.9349 B(  6-N , 28-H ) :   1.0910 B(  7-N , 11-C ) :   0.1294
B(  7-N , 15-C ) :   0.8438 B(  7-N , 17-C ) :   0.8755 B(  7-N , 29-H ) :   1.0596
B(  8-C ,  9-C ) :   0.1276 B(  8-C , 10-C ) :   0.6117 B(  8-C , 11-C ) :   0.3058
B(  8-C , 12-C ) :   0.4924 B(  8-C , 14-C ) :   0.7182 B(  8-C , 16-C ) :   0.1214
B(  8-C , 18-H ) :  -0.2013 B(  9-C , 10-C ) :   0.1612 B(  9-C , 11-C ) :   0.1374
B(  9-C , 13-C ) :   0.5952 B(  9-C , 15-C ) :   0.8541 B(  9-C , 19-H ) :  -0.1541
B(  9-C , 23-H ) :  -0.1022 B( 10-C , 11-C ) :   0.4515 B( 10-C , 16-C ) :  -0.1677
B( 10-C , 18-H ) :   0.6822 B( 11-C , 13-C ) :  -0.1420 B( 11-C , 17-C ) :  -0.2171
B( 11-C , 19-H ) :   0.9376 B( 12-C , 20-H ) :   1.0157 B( 12-C , 21-H ) :   0.8316
B( 12-C , 22-H ) :   0.9647 B( 13-C , 23-H ) :   1.0227 B( 13-C , 24-H ) :   0.9000
B( 13-C , 25-H ) :   0.9324 B( 15-C , 17-C ) :  -0.1174

Dispersion correction           -0.058848606
FINAL SINGLE POINT ENERGY      -908.762889871937

DIPOLE MOMENT
-------------

Method             : TDA/CIS
Type of density    : Electron Density
Level              : Relaxed density
State              :   2
Multiplicity       :   3
Irrep              :   0
Energy             :     0.0000000000000000 Eh
Relativity type    :
Basis              : AO
                                X                 Y                 Z
Electronic contribution:     -7.109066400      -9.044368463      -4.048935953
Nuclear contribution   :      7.999121195      10.440907295       5.959849727
                        -----------------------------------------
Total Dipole Moment    :      0.890054795       1.396538832       1.910913774
                        -----------------------------------------
Magnitude (a.u.)       :      2.528657687
Magnitude (Debye)      :      6.427337051

Rotational constants in cm-1:             0.020323             0.013359             0.011723
Rotational constants in MHz :           609.281846           400.502469           351.437452

                             ****ORCA TERMINATED NORMALLY****
TOTAL RUN TIME: 0 days 0 hours 4 minutes 43 seconds 536 msec
