                         Program Version 6.0.0  -   RELEASE  -
|  1> ! opt def2-TZVPPD wB97M-D3BJ
|  2> %pal nprocs 8 end%pal nprocs 32 end
|  3> %geom Constraints
|  4> {B 9 8 3.6 C}
|  5> {A 8 9 11 88.85714285714286 C}
|  6>  end
|  7>  end
|  8> *xyz 0 1
|  9> O   2.98579685529314 0.88758230159078 -0.86184571092411
| 10> O   -0.03983205397054 0.68929041702508 -2.10362336723772
| 11> O   0.93431434349854 -3.13274393337945 -0.68767288184107
| 12> O   -3.75829998830163 -0.84727300865116 -0.0472717177755
| 13> N   0.21184538946282 -1.54604804365365 0.7617588924445
| 14> N   -2.13631993928911 0.03188773433438 1.27350571071531
| 15> N   2.02598672506387 -1.14318467211666 -0.64531219127023
| 16> N   -1.91814233924584 0.03137116037665 -1.04498946748291
| 17> C   1.18097737274226 0.71693507080484 0.70173889017321
| 18> C   -0.20686880480777 1.27024627933494 0.21345042231937
| 19> C   0.41441080275909 -0.34173258966541 1.52336266615173
| 20> C   -0.82922175114212 0.58960593673968 1.44434972027296
| 21> C   1.92822011286806 1.69488653817281 1.5963734975385
| 22> C   -0.37809776891576 2.77134929626422 0.04819649358288
| 23> C   2.1403947470937 0.1972384729179 -0.35038567829864
| 24> C   -0.67361678962426 0.6214190571346 -1.0793014500539
| 25> C   1.04142578622994 -2.02697492875068 -0.21027082435993
| 26> C   -2.68467002550422 -0.30396816036989 0.07167054343891
| 27> H   0.80817443950001 -0.54572267081061 2.51895215321335
| 28> H   -0.83785272399001 1.27240685039143 2.28901317073582
| 29> H   2.31167340578204 2.52284411740894 1.00913016264629
| 30> H   1.28982602448342 2.08257620823614 2.38710022492991
| 31> H   2.77390820759972 1.19140411795486 2.06045858523949
| 32> H   -1.41857211141493 3.00964947214868 -0.16882755561625
| 33> H   -0.09065531563179 3.29799318042223 0.95389844358819
| 34> H   0.23426221611057 3.12492645074476 -0.77764887675592
| 35> H   -0.46772570547622 -2.21560145172536 1.0787081584806
| 36> H   -2.71769301149571 -0.17090724573546 2.06627440900372
| 37> H   2.60065167263658 -1.49057255715425 -1.3966820077142
| 38> H   -2.27169977231386 -0.32388339999036 -1.91951041514436
| 39> *
| 40>
| 41>                          ****END OF INPUT****
 Total Charge           Charge          ....    0
 Multiplicity           Mult            ....    1
 Number of Electrons    NEL             ....  132
Dispersion correction           -0.050861706
FINAL SINGLE POINT ENERGY      -908.523715192818
Dispersion correction             ... done (  0.0 sec)
Dispersion correction           -0.051179773
FINAL SINGLE POINT ENERGY      -908.588399432619
Dispersion correction             ... done (  0.0 sec)
Dispersion correction           -0.051623459
FINAL SINGLE POINT ENERGY      -908.645333700294
Dispersion correction             ... done (  0.0 sec)
FINAL SINGLE POINT ENERGY      -908.720172491564
FINAL SINGLE POINT ENERGY      -908.796943271013
FINAL SINGLE POINT ENERGY      -908.844902089481
FINAL SINGLE POINT ENERGY      -908.869653323923
FINAL SINGLE POINT ENERGY      -908.883927836341
FINAL SINGLE POINT ENERGY      -908.900010518682
FINAL SINGLE POINT ENERGY      -908.914567792105
FINAL SINGLE POINT ENERGY      -908.933876694871
FINAL SINGLE POINT ENERGY      -908.934170702916
FINAL SINGLE POINT ENERGY      -908.934402625221
FINAL SINGLE POINT ENERGY      -908.934576816364
FINAL SINGLE POINT ENERGY      -908.934727118045
FINAL SINGLE POINT ENERGY      -908.934816653893
FINAL SINGLE POINT ENERGY      -908.934858855144
Dispersion correction             ... done (  0.0 sec)
Dispersion correction           -0.057408750
FINAL SINGLE POINT ENERGY      -908.934877121345
Dispersion correction             ... done (  0.0 sec)
Dispersion correction           -0.057408618
FINAL SINGLE POINT ENERGY      -908.934882879570
Dispersion correction             ... done (  0.0 sec)
                    ***********************HURRAY********************

CARTESIAN COORDINATES (ANGSTROEM)
---------------------------------
  O      2.635040    1.164013   -0.610796
  O     -0.542664    0.841032   -2.183617
  O      0.528583   -2.748709   -1.527138
  O     -2.453015   -1.674362    1.081100
  N      0.718364   -2.102989    0.646871
  N     -2.236543    0.569142    1.407879
  N      1.718908   -0.868511   -1.023266
  N     -1.579005   -0.377134   -0.581540
  C      1.672784    0.005753    1.219552
  C     -1.046619    1.935464   -0.137306
  C      1.020107   -1.114619    1.554230
  C     -1.699189    1.779035    1.018839
  C      1.991675    1.104757    2.180497
  C     -0.387420    3.205355   -0.569167
  C      2.066770    0.184209   -0.178323
  C     -1.016145    0.805463   -1.069977
  C      0.960311   -1.971969   -0.703140
  C     -2.117403   -0.584019    0.666686
  H      0.684073   -1.305143    2.562434
  H     -1.805323    2.580820    1.733673
  H      1.516346    2.032653    1.865095
  H      1.648388    0.855219    3.182017
  H      3.062722    1.294179    2.212139
  H     -0.807500    3.556969   -1.509221
  H     -0.506954    3.979829    0.185073
  H      0.674906    3.034044   -0.737306
  H      0.065956   -2.828264    0.892543
  H     -2.646545    0.455132    2.316855
  H      1.844874   -0.702898   -2.010372
  H     -1.512882   -1.189453   -1.179713

 Multiplicity           Mult            ....    1
 Number of Electrons    NEL             ....  132
 Basis Dimension        Dim             ....  882

ORBITAL ENERGIES
----------------

  NO   OCC          E(Eh)            E(eV)
   0   2.0000     -19.328990      -525.9686
   1   2.0000     -19.323351      -525.8151
   2   2.0000     -19.318910      -525.6943
   3   2.0000     -19.318369      -525.6795
   4   2.0000     -14.585140      -396.8818
   5   2.0000     -14.573925      -396.5767
   6   2.0000     -14.570479      -396.4829
   7   2.0000     -14.561753      -396.2454
   8   2.0000     -10.515274      -286.1351
   9   2.0000     -10.505227      -285.8618
  10   2.0000     -10.478950      -285.1467
  11   2.0000     -10.473316      -284.9934
  12   2.0000     -10.432099      -283.8718
  13   2.0000     -10.427693      -283.7519
  14   2.0000     -10.380531      -282.4686
  15   2.0000     -10.377202      -282.3780
  16   2.0000     -10.358004      -281.8556
  17   2.0000     -10.350940      -281.6634
  18   2.0000      -1.227892       -33.4126
  19   2.0000      -1.218476       -33.1564
  20   2.0000      -1.194332       -32.4994
  21   2.0000      -1.187444       -32.3120
  22   2.0000      -1.123343       -30.5677
  23   2.0000      -1.115241       -30.3472
  24   2.0000      -1.070406       -29.1272
  25   2.0000      -1.062483       -28.9116
  26   2.0000      -0.956838       -26.0369
  27   2.0000      -0.952922       -25.9303
  28   2.0000      -0.846819       -23.0431
  29   2.0000      -0.845173       -22.9983
  30   2.0000      -0.810088       -22.0436
  31   2.0000      -0.805409       -21.9163
  32   2.0000      -0.794677       -21.6243
  33   2.0000      -0.786019       -21.3887
  34   2.0000      -0.695539       -18.9266
  35   2.0000      -0.692128       -18.8338
  36   2.0000      -0.689232       -18.7550
  37   2.0000      -0.685481       -18.6529
  38   2.0000      -0.643655       -17.5147
  39   2.0000      -0.634143       -17.2559
  40   2.0000      -0.631912       -17.1952
  41   2.0000      -0.598377       -16.2827
  42   2.0000      -0.597200       -16.2506
  43   2.0000      -0.590397       -16.0655
  44   2.0000      -0.568561       -15.4713
  45   2.0000      -0.560182       -15.2433
  46   2.0000      -0.557733       -15.1767
  47   2.0000      -0.550922       -14.9914
  48   2.0000      -0.546906       -14.8821
  49   2.0000      -0.543145       -14.7797
  50   2.0000      -0.519098       -14.1254
  51   2.0000      -0.516368       -14.0511
  52   2.0000      -0.515127       -14.0173
  53   2.0000      -0.512214       -13.9380
  54   2.0000      -0.501546       -13.6478
  55   2.0000      -0.498264       -13.5585
  56   2.0000      -0.479871       -13.0579
  57   2.0000      -0.470616       -12.8061
  58   2.0000      -0.420829       -11.4513
  59   2.0000      -0.412040       -11.2122
  60   2.0000      -0.404736       -11.0134
  61   2.0000      -0.394827       -10.7438
  62   2.0000      -0.387221       -10.5368
  63   2.0000      -0.381625       -10.3845
  64   2.0000      -0.348315        -9.4781
  65   2.0000      -0.341760        -9.2998
  66   0.0000       0.011044         0.3005
  67   0.0000       0.018004         0.4899
  68   0.0000       0.025617         0.6971
  69   0.0000       0.034915         0.9501
  70   0.0000       0.040824         1.1109

MULLIKEN ATOMIC CHARGES
-----------------------
   0 O :   -0.671373
   1 O :   -0.654790
   2 O :   -0.642739
   3 O :   -0.666382
   4 N :   -0.042086
   5 N :   -0.025939
   6 N :    0.026166
   7 N :    0.029306
   8 C :    0.706518
   9 C :    0.496749
  10 C :    0.075757
  11 C :    0.066793
  12 C :   -1.378981
  13 C :   -1.402357
  14 C :    0.431521
  15 C :    0.627556
  16 C :    0.332421
  17 C :    0.440747
  18 H :    0.138545
  19 H :    0.132420
  20 H :    0.215575
  21 H :    0.339916
  22 H :    0.330595
  23 H :    0.349728
  24 H :    0.333107
  25 H :    0.219250
  26 H :    0.069259
  27 H :    0.021002
  28 H :    0.044014
  29 H :    0.057705
Sum of atomic charges:    0.0000000

LOEWDIN ATOMIC CHARGES
----------------------
   0 O :    0.091633
   1 O :    0.101911
   2 O :    0.082789
   3 O :    0.072437
   4 N :    0.277191
   5 N :    0.279671
   6 N :    0.341602
   7 N :    0.343610
   8 C :   -0.135481
   9 C :   -0.134877
  10 C :    0.051580
  11 C :    0.058288
  12 C :    0.175991
  13 C :    0.181586
  14 C :   -0.399804
  15 C :   -0.390789
  16 C :   -0.490121
  17 C :   -0.484086
  18 H :    0.039487
  19 H :    0.035898
  20 H :   -0.010673
  21 H :   -0.007557
  22 H :    0.000720
  23 H :    0.000931
  24 H :   -0.006427
  25 H :   -0.010539
  26 H :   -0.022312
  27 H :   -0.022401
  28 H :   -0.004377
  29 H :   -0.015878

  Mayer bond orders larger than 0.100000
B(  0-O , 14-C ) :   1.4750 B(  1-O , 15-C ) :   1.4336 B(  2-O , 16-C ) :   1.5795
B(  3-O , 17-C ) :   1.5396 B(  4-N , 10-C ) :   0.8947 B(  4-N , 16-C ) :   0.9913
B(  4-N , 26-H ) :   1.1088 B(  5-N , 11-C ) :   0.9696 B(  5-N , 17-C ) :   1.0464
B(  5-N , 27-H ) :   1.1355 B(  6-N , 14-C ) :   0.9829 B(  6-N , 16-C ) :   0.9180
B(  6-N , 28-H ) :   1.0956 B(  7-N , 15-C ) :   0.9883 B(  7-N , 17-C ) :   0.9549
B(  7-N , 29-H ) :   1.1059 B(  8-C , 10-C ) :   1.1712 B(  8-C , 12-C ) :   0.3657
B(  8-C , 14-C ) :   0.7893 B(  9-C , 11-C ) :   1.2504 B(  9-C , 13-C ) :   0.3925
B(  9-C , 15-C ) :   0.8585 B(  9-C , 25-H ) :  -0.1131 B( 10-C , 18-H ) :   1.1096
B( 11-C , 13-C ) :  -0.1724 B( 11-C , 19-H ) :   1.0869 B( 12-C , 20-H ) :   1.0256
B( 12-C , 21-H ) :   0.9783 B( 12-C , 22-H ) :   0.9454 B( 13-C , 23-H ) :   0.9197
B( 13-C , 24-H ) :   0.9937 B( 13-C , 25-H ) :   1.0267

Dispersion correction           -0.057407756
FINAL SINGLE POINT ENERGY      -908.934884169532

DIPOLE MOMENT
-------------

Method             : SCF
Type of density    : Electron Density
Multiplicity       :   1
Irrep              :   0
Energy             :  -908.8774764137643842 Eh
Relativity type    :
Basis              : AO
                                X                 Y                 Z
Electronic contribution:     -2.638648976     -10.107129972      -5.847430381
Nuclear contribution   :      1.942235135      11.052629868       8.345811565
                        -----------------------------------------
Total Dipole Moment    :     -0.696413841       0.945499896       2.498381185
                        -----------------------------------------
Magnitude (a.u.)       :      2.760592479
Magnitude (Debye)      :      7.016868442

Rotational constants in cm-1:             0.017188             0.015573             0.012800
Rotational constants in MHz :           515.279038           466.868117           383.740790

                             ****ORCA TERMINATED NORMALLY****
TOTAL RUN TIME: 0 days 1 hours 18 minutes 58 seconds 374 msec
