                         Program Version 6.0.0  -   RELEASE  -
|  1> ! Engrad def2-TZVPPD wB97M-D3BJ
|  2> %pal nprocs 8 end%pal nprocs 64 end
|  3> %tddft Nroots 2 Iroot 1
|  4> sf true
|  5> end
|  6> *xyz 0 3
|  7> O   2.14877727 -0.48620194 -1.44618484
|  8> O   0.39677669 2.68378291 -1.37738144
|  9> O   0.1997558 -3.83406331 0.76351787
| 10> O   -2.23082226 -0.99367962 -1.528452
| 11> N   0.75429042 -1.9727703 1.91230459
| 12> N   -1.24546103 -0.3685047 0.42860088
| 13> N   1.05423946 -2.09580327 -0.39192791
| 14> N   -1.01600611 0.96319336 -1.55024079
| 15> C   1.28854519 0.16243658 0.7521889
| 16> C   -1.2381998 2.6677593 0.29932104
| 17> C   0.80695817 -0.55286058 1.99510758
| 18> C   -0.16137514 0.26178285 1.15161371
| 19> C   2.26764727 1.35663429 0.81131608
| 20> C   -1.17932031 3.98339741 0.89600604
| 21> C   1.49328194 -0.78062764 -0.48682522
| 22> C   -0.57236409 2.12162217 -0.87647594
| 23> C   0.63990703 -2.7179276 0.79302426
| 24> C   -1.59818202 -0.17348611 -0.97161763
| 25> H   1.22247787 -0.16362992 2.98008793
| 26> H   -0.44871941 1.2312495 1.59520981
| 27> H   2.61824324 1.57709168 -0.18297358
| 28> H   1.65067311 2.15849276 1.02329791
| 29> H   2.99219587 1.28019742 1.60831684
| 30> H   -2.08799132 4.59657872 0.65156255
| 31> H   -1.08138994 3.95371735 2.00616452
| 32> H   -0.45101434 4.60764942 0.49570516
| 33> H   0.54620232 -2.45312255 2.76535448
| 34> H   -1.50101874 -1.34851592 0.71459474
| 35> H   1.13677424 -2.74127167 -1.13870847
| 36> H   -0.47950204 0.86614931 -2.39404847
| 37> *
| 38>
| 39>                          ****END OF INPUT****

CARTESIAN COORDINATES (ANGSTROEM)
---------------------------------
  O      2.148777   -0.486202   -1.446185
  O      0.396777    2.683783   -1.377381
  O      0.199756   -3.834063    0.763518
  O     -2.230822   -0.993680   -1.528452
  N      0.754290   -1.972770    1.912305
  N     -1.245461   -0.368505    0.428601
  N      1.054239   -2.095803   -0.391928
  N     -1.016006    0.963193   -1.550241
  C      1.288545    0.162437    0.752189
  C     -1.238200    2.667759    0.299321
  C      0.806958   -0.552861    1.995108
  C     -0.161375    0.261783    1.151614
  C      2.267647    1.356634    0.811316
  C     -1.179320    3.983397    0.896006
  C      1.493282   -0.780628   -0.486825
  C     -0.572364    2.121622   -0.876476
  C      0.639907   -2.717928    0.793024
  C     -1.598182   -0.173486   -0.971618
  H      1.222478   -0.163630    2.980088
  H     -0.448719    1.231250    1.595210
  H      2.618243    1.577092   -0.182974
  H      1.650673    2.158493    1.023298
  H      2.992196    1.280197    1.608317
  H     -2.087991    4.596579    0.651563
  H     -1.081390    3.953717    2.006165
  H     -0.451014    4.607649    0.495705
  H      0.546202   -2.453123    2.765354
  H     -1.501019   -1.348516    0.714595
  H      1.136774   -2.741272   -1.138708
  H     -0.479502    0.866149   -2.394048

 Total Charge           Charge          ....    0
 Multiplicity           Mult            ....    3
 Number of Electrons    NEL             ....  132
 Basis Dimension        Dim             ....  882

ORBITAL ENERGIES
----------------
                 SPIN UP ORBITALS
  NO   OCC          E(Eh)            E(eV)
   0   1.0000     -19.340864      -526.2917
   1   1.0000     -19.331746      -526.0436
   2   1.0000     -19.330888      -526.0202
   3   1.0000     -19.317635      -525.6596
   4   1.0000     -14.563143      -396.2833
   5   1.0000     -14.557446      -396.1282
   6   1.0000     -14.557262      -396.1232
   7   1.0000     -14.552113      -395.9831
   8   1.0000     -10.508709      -285.9565
   9   1.0000     -10.501620      -285.7636
  10   1.0000     -10.491603      -285.4910
  11   1.0000     -10.487156      -285.3700
  12   1.0000     -10.445230      -284.2291
  13   1.0000     -10.429762      -283.8083
  14   1.0000     -10.426974      -283.7324
  15   1.0000     -10.410532      -283.2850
  16   1.0000     -10.381999      -282.5086
  17   1.0000     -10.351677      -281.6835
  18   1.0000      -1.228346       -33.4250
  19   1.0000      -1.223930       -33.3048
  20   1.0000      -1.205869       -32.8134
  21   1.0000      -1.202684       -32.7267
  22   1.0000      -1.122507       -30.5450
  23   1.0000      -1.081820       -29.4378
  24   1.0000      -1.061863       -28.8948
  25   1.0000      -1.047811       -28.5124
  26   1.0000      -0.993378       -27.0312
  27   1.0000      -0.945391       -25.7254
  28   1.0000      -0.868065       -23.6213
  29   1.0000      -0.831141       -22.6165
  30   1.0000      -0.808251       -21.9936
  31   1.0000      -0.799319       -21.7506
  32   1.0000      -0.773767       -21.0553
  33   1.0000      -0.763875       -20.7861
  34   1.0000      -0.710694       -19.3390
  35   1.0000      -0.695006       -18.9121
  36   1.0000      -0.685279       -18.6474
  37   1.0000      -0.656240       -17.8572
  38   1.0000      -0.635770       -17.3002
  39   1.0000      -0.625229       -17.0133
  40   1.0000      -0.615701       -16.7541
  41   1.0000      -0.601235       -16.3604
  42   1.0000      -0.596814       -16.2401
  43   1.0000      -0.587305       -15.9814
  44   1.0000      -0.581461       -15.8224
  45   1.0000      -0.570290       -15.5184
  46   1.0000      -0.563681       -15.3385
  47   1.0000      -0.558098       -15.1866
  48   1.0000      -0.552842       -15.0436
  49   1.0000      -0.548567       -14.9273
  50   1.0000      -0.544830       -14.8256
  51   1.0000      -0.540757       -14.7148
  52   1.0000      -0.527629       -14.3575
  53   1.0000      -0.523519       -14.2457
  54   1.0000      -0.495797       -13.4913
  55   1.0000      -0.478395       -13.0178
  56   1.0000      -0.451390       -12.2830
  57   1.0000      -0.444099       -12.0846
  58   1.0000      -0.414199       -11.2709
  59   1.0000      -0.410002       -11.1567
  60   1.0000      -0.405852       -11.0438
  61   1.0000      -0.399950       -10.8832
  62   1.0000      -0.389568       -10.6007
  63   1.0000      -0.371524       -10.1097
  64   1.0000      -0.370892       -10.0925
  65   1.0000      -0.361360        -9.8331
  66   1.0000      -0.339263        -9.2318
  67   0.0000       0.012742         0.3467
  68   0.0000       0.028001         0.7620
  69   0.0000       0.037273         1.0142
  70   0.0000       0.040522         1.1026
  71   0.0000       0.046327         1.2606

                 SPIN DOWN ORBITALS
  NO   OCC          E(Eh)            E(eV)
   0   1.0000     -19.334206      -526.1105
   1   1.0000     -19.331644      -526.0408
   2   1.0000     -19.330882      -526.0201
   3   1.0000     -19.317598      -525.6586
   4   1.0000     -14.563067      -396.2812
   5   1.0000     -14.557320      -396.1248
   6   1.0000     -14.557257      -396.1231
   7   1.0000     -14.552077      -395.9821
   8   1.0000     -10.508721      -285.9568
   9   1.0000     -10.501618      -285.7636
  10   1.0000     -10.492053      -285.5033
  11   1.0000     -10.487147      -285.3698
  12   1.0000     -10.445005      -284.2230
  13   1.0000     -10.428825      -283.7828
  14   1.0000     -10.410598      -283.2868
  15   1.0000     -10.401776      -283.0467
  16   1.0000     -10.382333      -282.5176
  17   1.0000     -10.351624      -281.6820
  18   1.0000      -1.227677       -33.4068
  19   1.0000      -1.223701       -33.2986
  20   1.0000      -1.202815       -32.7303
  21   1.0000      -1.196136       -32.5485
  22   1.0000      -1.122137       -30.5349
  23   1.0000      -1.079963       -29.3873
  24   1.0000      -1.061670       -28.8895
  25   1.0000      -1.046805       -28.4850
  26   1.0000      -0.992967       -27.0200
  27   1.0000      -0.915561       -24.9137
  28   1.0000      -0.867769       -23.6132
  29   1.0000      -0.814648       -22.1677
  30   1.0000      -0.807343       -21.9689
  31   1.0000      -0.796387       -21.6708
  32   1.0000      -0.771045       -20.9812
  33   1.0000      -0.762085       -20.7374
  34   1.0000      -0.707823       -19.2609
  35   1.0000      -0.694776       -18.9058
  36   1.0000      -0.676440       -18.4069
  37   1.0000      -0.651034       -17.7155
  38   1.0000      -0.631309       -17.1788
  39   1.0000      -0.622264       -16.9327
  40   1.0000      -0.599228       -16.3058
  41   1.0000      -0.597175       -16.2500
  42   1.0000      -0.592227       -16.1153
  43   1.0000      -0.579635       -15.7727
  44   1.0000      -0.570728       -15.5303
  45   1.0000      -0.567975       -15.4554
  46   1.0000      -0.558194       -15.1892
  47   1.0000      -0.553272       -15.0553
  48   1.0000      -0.548427       -14.9235
  49   1.0000      -0.546375       -14.8676
  50   1.0000      -0.538041       -14.6408
  51   1.0000      -0.528268       -14.3749
  52   1.0000      -0.524031       -14.2596
  53   1.0000      -0.513084       -13.9617
  54   1.0000      -0.495455       -13.4820
  55   1.0000      -0.477013       -12.9802
  56   1.0000      -0.449759       -12.2386
  57   1.0000      -0.429161       -11.6781
  58   1.0000      -0.413108       -11.2412
  59   1.0000      -0.402822       -10.9613
  60   1.0000      -0.399659       -10.8753
  61   1.0000      -0.386109       -10.5066
  62   1.0000      -0.384940       -10.4748
  63   1.0000      -0.369492       -10.0544
  64   1.0000      -0.363071        -9.8797
  65   0.0000      -0.043844        -1.1930
  66   0.0000      -0.031060        -0.8452
  67   0.0000       0.013514         0.3677
  68   0.0000       0.028884         0.7860
  69   0.0000       0.038057         1.0356

----------------------------------------------------------------------------------------------------
          SPIN FLIP ABSORPTION SPECTRUM VIA TRANSITION ELECTRIC DIPOLE MOMENTS
----------------------------------------------------------------------------------------------------
     Transition      Energy     Energy  Wavelength fosc(D2)      D2        DX        DY        DZ
                      (eV)      (cm-1)    (nm)                 (au**2)    (au)      (au)      (au)
----------------------------------------------------------------------------------------------------
  1-3A  ->  2-3A    0.154207    1243.8  8040.1   0.000613888   0.16249  -0.18599  -0.12729   0.33420

Dispersion correction             ... done (  0.1 sec)

MULLIKEN ATOMIC CHARGES AND SPIN DENSITIES
------------------------------------------
   0 O :   -0.632362   -0.001161
   1 O :   -0.622127   -0.064431
   2 O :   -0.647101   -0.000918
   3 O :   -0.547826   -0.003582
   4 N :   -0.099522   -0.002131
   5 N :   -0.179873   -0.001079
   6 N :    0.086671    0.000065
   7 N :   -0.086275    0.013018
   8 C :    1.630424    0.036413
   9 C :    0.172494    0.167401
  10 C :   -0.499110   -0.027212
  11 C :   -0.658540   -0.066363
  12 C :   -1.413600    0.005698
  13 C :   -1.078137    0.075168
  14 C :   -0.014354   -0.008922
  15 C :    0.629395   -0.158284
  16 C :    0.420581   -0.001671
  17 C :    0.449725   -0.030714
  18 H :    0.264531   -0.001025
  19 H :    0.497338    0.068967
  20 H :    0.316600    0.000053
  21 H :    0.362450   -0.000865
  22 H :    0.347868   -0.000236
  23 H :    0.315351   -0.030353
  24 H :    0.290390    0.008159
  25 H :    0.320795    0.019043
  26 H :    0.031881    0.000655
  27 H :    0.210271   -0.000916
  28 H :    0.016344    0.000061
  29 H :    0.115720    0.005163
Sum of atomic charges       :   -0.0000000

LOEWDIN ATOMIC CHARGES AND SPIN DENSITIES
-----------------------------------------
   0 O :    0.108001    0.000071
   1 O :    0.080904   -0.053403
   2 O :    0.096903   -0.000950
   3 O :    0.134357   -0.003213
   4 N :    0.275178   -0.002550
   5 N :    0.256498    0.001542
   6 N :    0.343768    0.000069
   7 N :    0.317885   -0.000382
   8 C :   -0.172386   -0.000053
   9 C :    0.188781    0.119528
  10 C :   -0.041218   -0.006340
  11 C :   -0.119261   -0.023304
  12 C :    0.251008   -0.001133
  13 C :    0.115678    0.016592
  14 C :   -0.335920   -0.000041
  15 C :   -0.464408   -0.024045
  16 C :   -0.509969   -0.000509
  17 C :   -0.460091    0.001464
  18 H :    0.093711   -0.000244
  19 H :   -0.004685   -0.018402
  20 H :   -0.009658   -0.000460
  21 H :   -0.065710   -0.000158
  22 H :    0.000672   -0.000050
  23 H :    0.042972   -0.007638
  24 H :    0.017184   -0.015474
  25 H :   -0.050025    0.018882
  26 H :   -0.031213   -0.000159
  27 H :   -0.005577    0.000184
  28 H :   -0.028655    0.000003
  29 H :   -0.024722    0.000173

  Mayer bond orders larger than 0.100000
B(  0-O ,  8-C ) :  -0.1059 B(  0-O , 14-C ) :   1.5524 B(  1-O , 15-C ) :   1.4329
B(  2-O , 16-C ) :   1.5773 B(  3-O , 17-C ) :   1.6669 B(  4-N , 10-C ) :   0.5991
B(  4-N , 16-C ) :   1.0856 B(  4-N , 26-H ) :   1.1319 B(  5-N , 11-C ) :   0.7587
B(  5-N , 15-C ) :   0.1173 B(  5-N , 17-C ) :   0.9069 B(  5-N , 27-H ) :   0.8678
B(  6-N ,  8-C ) :   0.1041 B(  6-N , 11-C ) :  -0.1174 B(  6-N , 14-C ) :   0.9804
B(  6-N , 16-C ) :   0.9524 B(  6-N , 28-H ) :   1.1121 B(  7-N ,  9-C ) :   0.1806
B(  7-N , 15-C ) :   0.6906 B(  7-N , 17-C ) :   0.8961 B(  7-N , 29-H ) :   1.0188
B(  8-C , 10-C ) :   0.5792 B(  8-C , 11-C ) :  -0.1173 B(  8-C , 12-C ) :   0.3902
B(  8-C , 14-C ) :   0.3005 B(  8-C , 20-H ) :  -0.1002 B(  9-C , 11-C ) :  -0.1956
B(  9-C , 13-C ) :   0.6784 B(  9-C , 15-C ) :   0.6596 B(  9-C , 25-H ) :  -0.1002
B( 10-C , 11-C ) :   0.6424 B( 10-C , 14-C ) :   0.1468 B( 10-C , 18-H ) :   0.9864
B( 11-C , 12-C ) :   0.1609 B( 11-C , 14-C ) :  -0.1544 B( 11-C , 15-C ) :   0.2347
B( 11-C , 19-H ) :   0.9237 B( 12-C , 20-H ) :   1.0220 B( 12-C , 21-H ) :   0.7754
B( 12-C , 22-H ) :   0.9305 B( 13-C , 15-C ) :   0.1041 B( 13-C , 23-H ) :   0.8861
B( 13-C , 24-H ) :   0.9413 B( 13-C , 25-H ) :   0.9562

Dispersion correction           -0.057009690
FINAL SINGLE POINT ENERGY      -908.665968743890

DIPOLE MOMENT
-------------

Method             : TDA/CIS
Type of density    : Electron Density
Level              : Relaxed density
State              :   1
Multiplicity       :   3
Irrep              :   0
Energy             :     0.0000000000000000 Eh
Relativity type    :
Basis              : AO
                                X                 Y                 Z
Electronic contribution:     -2.581751176     -10.845296783      -6.813580690
Nuclear contribution   :      2.652857323      12.715204111       8.962666679
                        -----------------------------------------
Total Dipole Moment    :      0.071106147       1.869907328       2.149085989
                        -----------------------------------------
Magnitude (a.u.)       :      2.849592969
Magnitude (Debye)      :      7.243089709

Rotational constants in cm-1:             0.023000             0.012083             0.011011
Rotational constants in MHz :           689.508802           362.231030           330.105993

                             ****ORCA TERMINATED NORMALLY****
TOTAL RUN TIME: 0 days 0 hours 4 minutes 29 seconds 641 msec
