                         Program Version 6.0.0  -   RELEASE  -
|  1> ! Engrad def2-TZVPPD wB97M-D3BJ
|  2> %pal nprocs 8 end%pal nprocs 32 end
|  3>  %tddft nroots 2 Iroot 1
|  4> sf true
|  5> end
|  6> *xyz 0 3
|  7> O   3.2706349199314 0.28739327842153 -0.91845623293981
|  8> O   -0.77182174819616 1.63070941404687 -2.32443886286458
|  9> O   0.39905053012959 -3.07478569659432 -0.22258236060785
| 10> O   -2.95348629445348 -1.85095087949326 -0.50171672688536
| 11> N   0.37512874885826 -1.37589955860295 1.28235062579491
| 12> N   -2.16123175408029 -0.25659201300911 0.9145406246129
| 13> N   1.53117412648701 -1.16872977287768 -0.73511676885589
| 14> N   -1.53207141123712 -0.26367997573594 -1.31560559636725
| 15> C   1.85963703244629 0.49823040781323 0.95065435398954
| 16> C   -0.98488486450089 1.64076603534922 0.03233655033838
| 17> C   0.4006461271868 0.02313573107643 1.54450564293091
| 18> C   -1.16917160479251 0.72949034889137 1.19420089622741
| 19> C   2.59066810851588 1.55202363942498 1.65449310556403
| 20> C   -0.74135895122648 3.07595577615291 0.2045076586646
| 21> C   2.2953095166553 -0.08154599787453 -0.28215657897882
| 22> C   -1.07143796022111 1.04916005050964 -1.30082125913131
| 23> C   0.73914453720313 -1.9539279268674 0.07585230241474
| 24> C   -2.26987327684201 -0.87838795015866 -0.30345764071848
| 25> H   0.47259880461239 0.15845259732089 2.62500161981936
| 26> H   -1.44467694773316 1.28398601184941 2.08646281174341
| 27> H   3.58695770392059 1.67526716466817 1.24095480301261
| 28> H   2.06179634349111 2.51721408330499 1.56839020316475
| 29> H   2.65042603025107 1.34508027464621 2.72754707762199
| 30> H   -1.60072522439381 3.55163620494301 0.68950578832129
| 31> H   0.10935086033861 3.24684294433314 0.87849449459874
| 32> H   -0.54815877900339 3.55262109194524 -0.75035390496693
| 33> H   -0.22374024138693 -1.98088973131623 1.8187696886194
| 34> H   -2.66755776331672 -0.70053022981204 1.65903724325286
| 35> H   1.87354974095968 -1.62355567729441 -1.56563584908793
| 36> H   -1.62327630960305 -0.69348964506073 -2.22266370928766
| 37> *
| 38>
| 39>                          ****END OF INPUT****

CARTESIAN COORDINATES (ANGSTROEM)
---------------------------------
  O      3.270635    0.287393   -0.918456
  O     -0.771822    1.630709   -2.324439
  O      0.399051   -3.074786   -0.222582
  O     -2.953486   -1.850951   -0.501717
  N      0.375129   -1.375900    1.282351
  N     -2.161232   -0.256592    0.914541
  N      1.531174   -1.168730   -0.735117
  N     -1.532071   -0.263680   -1.315606
  C      1.859637    0.498230    0.950654
  C     -0.984885    1.640766    0.032337
  C      0.400646    0.023136    1.544506
  C     -1.169172    0.729490    1.194201
  C      2.590668    1.552024    1.654493
  C     -0.741359    3.075956    0.204508
  C      2.295310   -0.081546   -0.282157
  C     -1.071438    1.049160   -1.300821
  C      0.739145   -1.953928    0.075852
  C     -2.269873   -0.878388   -0.303458
  H      0.472599    0.158453    2.625002
  H     -1.444677    1.283986    2.086463
  H      3.586958    1.675267    1.240955
  H      2.061796    2.517214    1.568390
  H      2.650426    1.345080    2.727547
  H     -1.600725    3.551636    0.689506
  H      0.109351    3.246843    0.878494
  H     -0.548159    3.552621   -0.750354
  H     -0.223740   -1.980890    1.818770
  H     -2.667558   -0.700530    1.659037
  H      1.873550   -1.623556   -1.565636
  H     -1.623276   -0.693490   -2.222664

 Total Charge           Charge          ....    0
 Multiplicity           Mult            ....    3
 Number of Electrons    NEL             ....  132
 Basis Dimension        Dim             ....  882

ORBITAL ENERGIES
----------------
                 SPIN UP ORBITALS
  NO   OCC          E(Eh)            E(eV)
   0   1.0000     -19.336086      -526.1617
   1   1.0000     -19.329906      -525.9935
   2   1.0000     -19.318374      -525.6797
   3   1.0000     -19.315061      -525.5895
   4   1.0000     -14.565042      -396.3349
   5   1.0000     -14.558163      -396.1477
   6   1.0000     -14.557801      -396.1379
   7   1.0000     -14.556052      -396.0903
   8   1.0000     -10.503213      -285.8070
   9   1.0000     -10.499242      -285.6989
  10   1.0000     -10.479993      -285.1751
  11   1.0000     -10.476348      -285.0759
  12   1.0000     -10.451914      -284.4111
  13   1.0000     -10.448243      -284.3111
  14   1.0000     -10.429430      -283.7992
  15   1.0000     -10.409847      -283.2664
  16   1.0000     -10.376763      -282.3661
  17   1.0000     -10.371731      -282.2291
  18   1.0000      -1.219420       -33.1821
  19   1.0000      -1.214875       -33.0584
  20   1.0000      -1.195022       -32.5182
  21   1.0000      -1.194094       -32.4930
  22   1.0000      -1.115036       -30.3417
  23   1.0000      -1.096336       -29.8328
  24   1.0000      -1.063929       -28.9510
  25   1.0000      -1.054329       -28.6898
  26   1.0000      -0.969243       -26.3744
  27   1.0000      -0.953076       -25.9345
  28   1.0000      -0.875830       -23.8326
  29   1.0000      -0.839073       -22.8323
  30   1.0000      -0.827713       -22.5232
  31   1.0000      -0.805040       -21.9062
  32   1.0000      -0.784106       -21.3366
  33   1.0000      -0.773393       -21.0451
  34   1.0000      -0.696876       -18.9630
  35   1.0000      -0.691312       -18.8116
  36   1.0000      -0.681845       -18.5539
  37   1.0000      -0.657331       -17.8869
  38   1.0000      -0.646642       -17.5960
  39   1.0000      -0.644399       -17.5350
  40   1.0000      -0.616980       -16.7889
  41   1.0000      -0.602044       -16.3825
  42   1.0000      -0.591790       -16.1034
  43   1.0000      -0.585299       -15.9268
  44   1.0000      -0.578480       -15.7412
  45   1.0000      -0.568067       -15.4579
  46   1.0000      -0.561706       -15.2848
  47   1.0000      -0.558387       -15.1945
  48   1.0000      -0.554926       -15.1003
  49   1.0000      -0.551437       -15.0054
  50   1.0000      -0.544318       -14.8117
  51   1.0000      -0.539767       -14.6878
  52   1.0000      -0.535767       -14.5789
  53   1.0000      -0.523996       -14.2587
  54   1.0000      -0.515960       -14.0400
  55   1.0000      -0.504584       -13.7304
  56   1.0000      -0.484840       -13.1932
  57   1.0000      -0.421859       -11.4794
  58   1.0000      -0.417134       -11.3508
  59   1.0000      -0.410358       -11.1664
  60   1.0000      -0.406579       -11.0636
  61   1.0000      -0.394626       -10.7383
  62   1.0000      -0.391579       -10.6554
  63   1.0000      -0.388026       -10.5587
  64   1.0000      -0.378718       -10.3055
  65   1.0000      -0.339436        -9.2365
  66   1.0000      -0.321189        -8.7400
  67   0.0000       0.006491         0.1766
  68   0.0000       0.028294         0.7699
  69   0.0000       0.032004         0.8709
  70   0.0000       0.039509         1.0751
  71   0.0000       0.055913         1.5215

                 SPIN DOWN ORBITALS
  NO   OCC          E(Eh)            E(eV)
   0   1.0000     -19.330876      -526.0199
   1   1.0000     -19.325557      -525.8751
   2   1.0000     -19.318204      -525.6751
   3   1.0000     -19.314744      -525.5809
   4   1.0000     -14.564626      -396.3236
   5   1.0000     -14.557768      -396.1370
   6   1.0000     -14.557510      -396.1300
   7   1.0000     -14.555441      -396.0737
   8   1.0000     -10.503247      -285.8079
   9   1.0000     -10.499270      -285.6997
  10   1.0000     -10.481097      -285.2052
  11   1.0000     -10.477301      -285.1018
  12   1.0000     -10.451143      -284.3901
  13   1.0000     -10.448486      -284.3178
  14   1.0000     -10.418014      -283.4886
  15   1.0000     -10.398644      -282.9615
  16   1.0000     -10.377329      -282.3815
  17   1.0000     -10.372325      -282.2453
  18   1.0000      -1.217874       -33.1400
  19   1.0000      -1.212637       -32.9975
  20   1.0000      -1.189493       -32.3678
  21   1.0000      -1.188544       -32.3419
  22   1.0000      -1.112892       -30.2833
  23   1.0000      -1.093945       -29.7678
  24   1.0000      -1.062198       -28.9039
  25   1.0000      -1.052804       -28.6483
  26   1.0000      -0.954606       -25.9761
  27   1.0000      -0.936401       -25.4808
  28   1.0000      -0.872277       -23.7359
  29   1.0000      -0.833635       -22.6844
  30   1.0000      -0.819118       -22.2893
  31   1.0000      -0.799715       -21.7613
  32   1.0000      -0.782909       -21.3040
  33   1.0000      -0.771816       -21.0022
  34   1.0000      -0.690991       -18.8028
  35   1.0000      -0.685140       -18.6436
  36   1.0000      -0.677084       -18.4244
  37   1.0000      -0.651452       -17.7269
  38   1.0000      -0.641685       -17.4611
  39   1.0000      -0.635194       -17.2845
  40   1.0000      -0.614893       -16.7321
  41   1.0000      -0.597024       -16.2458
  42   1.0000      -0.583974       -15.8907
  43   1.0000      -0.575874       -15.6703
  44   1.0000      -0.566451       -15.4139
  45   1.0000      -0.563422       -15.3315
  46   1.0000      -0.557539       -15.1714
  47   1.0000      -0.554674       -15.0934
  48   1.0000      -0.546502       -14.8711
  49   1.0000      -0.540316       -14.7027
  50   1.0000      -0.538320       -14.6484
  51   1.0000      -0.533137       -14.5074
  52   1.0000      -0.529450       -14.4071
  53   1.0000      -0.512764       -13.9530
  54   1.0000      -0.503773       -13.7084
  55   1.0000      -0.499948       -13.6043
  56   1.0000      -0.478657       -13.0249
  57   1.0000      -0.416721       -11.3396
  58   1.0000      -0.413114       -11.2414
  59   1.0000      -0.403160       -10.9705
  60   1.0000      -0.393845       -10.7171
  61   1.0000      -0.386182       -10.5086
  62   1.0000      -0.383813       -10.4441
  63   1.0000      -0.380378       -10.3506
  64   1.0000      -0.365370        -9.9422
  65   0.0000      -0.060697        -1.6516
  66   0.0000      -0.047076        -1.2810
  67   0.0000       0.006077         0.1654
  68   0.0000       0.028049         0.7632
  69   0.0000       0.031678         0.8620

----------------------------------------------------------------------------------------------------
          SPIN FLIP ABSORPTION SPECTRUM VIA TRANSITION ELECTRIC DIPOLE MOMENTS
----------------------------------------------------------------------------------------------------
     Transition      Energy     Energy  Wavelength fosc(D2)      D2        DX        DY        DZ
                      (eV)      (cm-1)    (nm)                 (au**2)    (au)      (au)      (au)
----------------------------------------------------------------------------------------------------
  1-3A  ->  2-3A    0.049876     402.3  24858.4   0.000000114   0.00009   0.00929  -0.00106  -0.00234

Dispersion correction             ... done (  0.1 sec)

MULLIKEN ATOMIC CHARGES AND SPIN DENSITIES
------------------------------------------
   0 O :   -0.658525    0.188045
   1 O :   -0.695527   -0.159263
   2 O :   -0.645227    0.006832
   3 O :   -0.642472   -0.001203
   4 N :   -0.275390    0.006158
   5 N :   -0.262316   -0.011523
   6 N :    0.081915    0.007028
   7 N :    0.067755   -0.016924
   8 C :    0.071396    0.393433
   9 C :    1.125849    0.350039
  10 C :    0.308069    0.009516
  11 C :   -0.059218   -0.391141
  12 C :   -1.268514    0.008631
  13 C :   -1.171291   -0.046742
  14 C :    0.518577    0.169153
  15 C :   -0.217935   -0.593437
  16 C :    0.341298   -0.015364
  17 C :    0.379583    0.027880
  18 H :    0.542470    0.024683
  19 H :    0.549808   -0.008949
  20 H :    0.322318    0.008635
  21 H :    0.195568    0.024000
  22 H :    0.290891    0.017243
  23 H :    0.335110   -0.003807
  24 H :    0.276319    0.016155
  25 H :    0.284356   -0.015884
  26 H :    0.074658    0.000651
  27 H :    0.050072    0.000657
  28 H :    0.045246   -0.000329
  29 H :    0.035157    0.005829
Sum of atomic charges       :   -0.0000000

LOEWDIN ATOMIC CHARGES AND SPIN DENSITIES
-----------------------------------------
   0 O :    0.101280    0.166952
   1 O :    0.079197   -0.143940
   2 O :    0.096584    0.006561
   3 O :    0.099927   -0.001001
   4 N :    0.241825    0.000111
   5 N :    0.264776   -0.002005
   6 N :    0.322250    0.008715
   7 N :    0.326842   -0.018261
   8 C :    0.011337    0.508704
   9 C :   -0.028069   -0.465651
  10 C :    0.000961   -0.027020
  11 C :   -0.070287   -0.032543
  12 C :    0.172558    0.082778
  13 C :    0.186169   -0.076492
  14 C :   -0.401257    0.085974
  15 C :   -0.422873   -0.087534
  16 C :   -0.492259   -0.001143
  17 C :   -0.487886   -0.000433
  18 H :    0.022143   -0.004898
  19 H :    0.042087   -0.001457
  20 H :   -0.000973   -0.000550
  21 H :   -0.001359    0.026935
  22 H :    0.005677    0.016972
  23 H :    0.014727   -0.022738
  24 H :   -0.007509   -0.018488
  25 H :    0.000662    0.001384
  26 H :   -0.028869    0.000141
  27 H :   -0.027800   -0.000212
  28 H :   -0.011493    0.000672
  29 H :   -0.008369   -0.001532

  Mayer bond orders larger than 0.100000
B(  0-O , 14-C ) :   1.3602 B(  1-O , 15-C ) :   1.3815 B(  2-O , 16-C ) :   1.5098
B(  3-O , 17-C ) :   1.5388 B(  4-N ,  5-N ) :   0.1243 B(  4-N ,  8-C ) :   0.2620
B(  4-N , 10-C ) :   0.3041 B(  4-N , 16-C ) :   1.0398 B(  4-N , 26-H ) :   1.0740
B(  5-N ,  9-C ) :   0.2602 B(  5-N , 11-C ) :   0.2262 B(  5-N , 17-C ) :   1.1302
B(  5-N , 27-H ) :   1.0912 B(  6-N ,  8-C ) :  -0.1123 B(  6-N , 14-C ) :   1.0931
B(  6-N , 16-C ) :   0.9878 B(  6-N , 28-H ) :   1.0696 B(  7-N , 11-C ) :   0.1320
B(  7-N , 15-C ) :   0.9897 B(  7-N , 17-C ) :   0.9422 B(  7-N , 29-H ) :   1.0968
B(  8-C , 10-C ) :  -0.2398 B(  8-C , 12-C ) :   0.6338 B(  8-C , 14-C ) :   0.7429
B(  8-C , 16-C ) :   0.1132 B(  8-C , 18-H ) :  -0.1678 B(  8-C , 20-H ) :  -0.1154
B(  9-C , 11-C ) :   0.3077 B(  9-C , 13-C ) :   0.5971 B(  9-C , 15-C ) :   0.2058
B(  9-C , 25-H ) :  -0.1013 B( 10-C , 11-C ) :   0.7402 B( 10-C , 16-C ) :  -0.1125
B( 10-C , 18-H ) :   0.8121 B( 11-C , 15-C ) :   0.1585 B( 11-C , 17-C ) :  -0.1987
B( 11-C , 19-H ) :   0.7177 B( 12-C , 14-C ) :  -0.1118 B( 12-C , 20-H ) :   0.9909
B( 12-C , 21-H ) :   0.9663 B( 12-C , 22-H ) :   0.9589 B( 13-C , 23-H ) :   0.9492
B( 13-C , 24-H ) :   0.7772 B( 13-C , 25-H ) :   1.0318 B( 15-C , 17-C ) :  -0.1177

Dispersion correction           -0.057118253
FINAL SINGLE POINT ENERGY      -908.779135572937

DIPOLE MOMENT
-------------

Method             : TDA/CIS
Type of density    : Electron Density
Level              : Relaxed density
State              :   1
Multiplicity       :   3
Irrep              :   0
Energy             :     0.0000000000000000 Eh
Relativity type    :
Basis              : AO
                                X                 Y                 Z
Electronic contribution:     -2.743836447     -10.381986893      -7.330394538
Nuclear contribution   :      2.627380241      11.989721424      10.270937397
                        -----------------------------------------
Total Dipole Moment    :     -0.116456206       1.607734531       2.940542860
                        -----------------------------------------
Magnitude (a.u.)       :      3.353381082
Magnitude (Debye)      :      8.523617327

Rotational constants in cm-1:             0.018609             0.014870             0.011848
Rotational constants in MHz :           557.896171           445.794199           355.203672

                             ****ORCA TERMINATED NORMALLY****
TOTAL RUN TIME: 0 days 0 hours 5 minutes 36 seconds 574 msec
