                         Program Version 6.0.0  -   RELEASE  -
|  1> ! Engrad def2-TZVPPD wB97M-D3BJ
|  2> %pal nprocs 8 end%pal nprocs 64 end
|  3> %tddft Nroots 2 Iroot 2
|  4> sf true
|  5> end
|  6> *xyz 0 3
|  7> O   2.93340927 0.4439273 -1.01108504
|  8> O   -0.31416208 1.41349787 -2.34523429
|  9> O   0.17590087 -3.08175297 -0.3345311
| 10> O   -3.08148447 -1.56259146 -0.34546029
| 11> N   0.22541925 -1.50676686 1.18867061
| 12> N   -2.02311823 -0.07431212 1.0481474
| 13> N   1.58473688 -1.31307487 -0.64855429
| 14> N   -1.41041203 -0.23083424 -1.23346234
| 15> C   1.65425219 0.43507892 0.99304947
| 16> C   -0.72046241 1.61156715 -0.01163169
| 17> C   0.39584936 -0.1714031 1.58085145
| 18> C   -0.89350108 0.78853917 1.19401119
| 19> C   2.22645272 1.64084316 1.60129874
| 20> C   -0.56390233 3.0591306 0.08950043
| 21> C   2.11930271 -0.06925308 -0.27855279
| 22> C   -0.77353881 0.98062818 -1.32400175
| 23> C   0.65110269 -2.0278823 0.0366938
| 24> C   -2.22926868 -0.69403568 -0.19646857
| 25> H   0.55093308 -0.04624064 2.70197399
| 26> H   -1.03176846 1.49941757 2.04070354
| 27> H   3.1925708 1.77588737 1.29178766
| 28> H   1.66161189 2.48700373 1.30529296
| 29> H   2.16472172 1.55890934 2.68429579
| 30> H   -1.46342459 3.63536953 -0.22166129
| 31> H   -0.28367659 3.2563069 1.09970119
| 32> H   0.20514653 3.43033194 -0.49544195
| 33> H   -0.54901749 -1.98669028 1.6139969
| 34> H   -2.87998721 -0.00482921 1.60866244
| 35> H   1.88632255 -1.73578774 -1.55299065
| 36> H   -1.28084513 -0.89821466 -2.03176806
| 37> *
| 38>
| 39>                          ****END OF INPUT****

CARTESIAN COORDINATES (ANGSTROEM)
---------------------------------
  O      2.933409    0.443927   -1.011085
  O     -0.314162    1.413498   -2.345234
  O      0.175901   -3.081753   -0.334531
  O     -3.081484   -1.562591   -0.345460
  N      0.225419   -1.506767    1.188671
  N     -2.023118   -0.074312    1.048147
  N      1.584737   -1.313075   -0.648554
  N     -1.410412   -0.230834   -1.233462
  C      1.654252    0.435079    0.993049
  C     -0.720462    1.611567   -0.011632
  C      0.395849   -0.171403    1.580851
  C     -0.893501    0.788539    1.194011
  C      2.226453    1.640843    1.601299
  C     -0.563902    3.059131    0.089500
  C      2.119303   -0.069253   -0.278553
  C     -0.773539    0.980628   -1.324002
  C      0.651103   -2.027882    0.036694
  C     -2.229269   -0.694036   -0.196469
  H      0.550933   -0.046241    2.701974
  H     -1.031768    1.499418    2.040704
  H      3.192571    1.775887    1.291788
  H      1.661612    2.487004    1.305293
  H      2.164722    1.558909    2.684296
  H     -1.463425    3.635370   -0.221661
  H     -0.283677    3.256307    1.099701
  H      0.205147    3.430332   -0.495442
  H     -0.549017   -1.986690    1.613997
  H     -2.879987   -0.004829    1.608662
  H      1.886323   -1.735788   -1.552991
  H     -1.280845   -0.898215   -2.031768

 Total Charge           Charge          ....    0
 Multiplicity           Mult            ....    3
 Number of Electrons    NEL             ....  132
 Basis Dimension        Dim             ....  882

ORBITAL ENERGIES
----------------
                 SPIN UP ORBITALS
  NO   OCC          E(Eh)            E(eV)
   0   1.0000     -19.334470      -526.1177
   1   1.0000     -19.332204      -526.0560
   2   1.0000     -19.324561      -525.8480
   3   1.0000     -19.305069      -525.3176
   4   1.0000     -14.565916      -396.3587
   5   1.0000     -14.564299      -396.3147
   6   1.0000     -14.561074      -396.2270
   7   1.0000     -14.551904      -395.9774
   8   1.0000     -10.511542      -286.0336
   9   1.0000     -10.492409      -285.5130
  10   1.0000     -10.478849      -285.1440
  11   1.0000     -10.477122      -285.0970
  12   1.0000     -10.444007      -284.1959
  13   1.0000     -10.443598      -284.1848
  14   1.0000     -10.416365      -283.4437
  15   1.0000     -10.406361      -283.1715
  16   1.0000     -10.366514      -282.0872
  17   1.0000     -10.366135      -282.0769
  18   1.0000      -1.221985       -33.2519
  19   1.0000      -1.216012       -33.0894
  20   1.0000      -1.198317       -32.6079
  21   1.0000      -1.195056       -32.5191
  22   1.0000      -1.119315       -30.4581
  23   1.0000      -1.097655       -29.8687
  24   1.0000      -1.067652       -29.0523
  25   1.0000      -1.055291       -28.7159
  26   1.0000      -0.984892       -26.8003
  27   1.0000      -0.958360       -26.0783
  28   1.0000      -0.885732       -24.1020
  29   1.0000      -0.843720       -22.9588
  30   1.0000      -0.833230       -22.6733
  31   1.0000      -0.801908       -21.8210
  32   1.0000      -0.785787       -21.3823
  33   1.0000      -0.781000       -21.2521
  34   1.0000      -0.701787       -19.0966
  35   1.0000      -0.697675       -18.9847
  36   1.0000      -0.688090       -18.7239
  37   1.0000      -0.671307       -18.2672
  38   1.0000      -0.664944       -18.0940
  39   1.0000      -0.639385       -17.3986
  40   1.0000      -0.624801       -17.0017
  41   1.0000      -0.602803       -16.4031
  42   1.0000      -0.589552       -16.0425
  43   1.0000      -0.586281       -15.9535
  44   1.0000      -0.579641       -15.7728
  45   1.0000      -0.574818       -15.6416
  46   1.0000      -0.563819       -15.3423
  47   1.0000      -0.558960       -15.2101
  48   1.0000      -0.556256       -15.1365
  49   1.0000      -0.550217       -14.9722
  50   1.0000      -0.546574       -14.8730
  51   1.0000      -0.539497       -14.6805
  52   1.0000      -0.531720       -14.4688
  53   1.0000      -0.527034       -14.3413
  54   1.0000      -0.513282       -13.9671
  55   1.0000      -0.512813       -13.9543
  56   1.0000      -0.495997       -13.4968
  57   1.0000      -0.418420       -11.3858
  58   1.0000      -0.415112       -11.2958
  59   1.0000      -0.408472       -11.1151
  60   1.0000      -0.403825       -10.9886
  61   1.0000      -0.396897       -10.8001
  62   1.0000      -0.392540       -10.6816
  63   1.0000      -0.387144       -10.5347
  64   1.0000      -0.381317       -10.3762
  65   1.0000      -0.337440        -9.1822
  66   1.0000      -0.325890        -8.8679
  67   0.0000       0.006701         0.1823
  68   0.0000       0.029526         0.8034
  69   0.0000       0.031323         0.8524
  70   0.0000       0.038159         1.0384
  71   0.0000       0.052913         1.4398

                 SPIN DOWN ORBITALS
  NO   OCC          E(Eh)            E(eV)
   0   1.0000     -19.330948      -526.0218
   1   1.0000     -19.327788      -525.9358
   2   1.0000     -19.324245      -525.8395
   3   1.0000     -19.304935      -525.3140
   4   1.0000     -14.565555      -396.3489
   5   1.0000     -14.563290      -396.2873
   6   1.0000     -14.560558      -396.2129
   7   1.0000     -14.551604      -395.9693
   8   1.0000     -10.511570      -286.0344
   9   1.0000     -10.492443      -285.5139
  10   1.0000     -10.479818      -285.1703
  11   1.0000     -10.478030      -285.1217
  12   1.0000     -10.443778      -284.1896
  13   1.0000     -10.443029      -284.1693
  14   1.0000     -10.405057      -283.1360
  15   1.0000     -10.394820      -282.8574
  16   1.0000     -10.367084      -282.1027
  17   1.0000     -10.366642      -282.0907
  18   1.0000      -1.219512       -33.1846
  19   1.0000      -1.212842       -33.0031
  20   1.0000      -1.194607       -32.5069
  21   1.0000      -1.191358       -32.4185
  22   1.0000      -1.116538       -30.3825
  23   1.0000      -1.095235       -29.8029
  24   1.0000      -1.065789       -29.0016
  25   1.0000      -1.053550       -28.6686
  26   1.0000      -0.970496       -26.4085
  27   1.0000      -0.942168       -25.6377
  28   1.0000      -0.881687       -23.9919
  29   1.0000      -0.837664       -22.7940
  30   1.0000      -0.824115       -22.4253
  31   1.0000      -0.797087       -21.6898
  32   1.0000      -0.783643       -21.3240
  33   1.0000      -0.779121       -21.2009
  34   1.0000      -0.697228       -18.9725
  35   1.0000      -0.690769       -18.7968
  36   1.0000      -0.682831       -18.5808
  37   1.0000      -0.663922       -18.0662
  38   1.0000      -0.655966       -17.8497
  39   1.0000      -0.634278       -17.2596
  40   1.0000      -0.616163       -16.7666
  41   1.0000      -0.598962       -16.2986
  42   1.0000      -0.581324       -15.8186
  43   1.0000      -0.577982       -15.7277
  44   1.0000      -0.571312       -15.5462
  45   1.0000      -0.566078       -15.4038
  46   1.0000      -0.559288       -15.2190
  47   1.0000      -0.553771       -15.0689
  48   1.0000      -0.549842       -14.9620
  49   1.0000      -0.545021       -14.8308
  50   1.0000      -0.537227       -14.6187
  51   1.0000      -0.533532       -14.5181
  52   1.0000      -0.526934       -14.3386
  53   1.0000      -0.517686       -14.0869
  54   1.0000      -0.508433       -13.8352
  55   1.0000      -0.503823       -13.7097
  56   1.0000      -0.488630       -13.2963
  57   1.0000      -0.414386       -11.2760
  58   1.0000      -0.408770       -11.1232
  59   1.0000      -0.398817       -10.8524
  60   1.0000      -0.394640       -10.7387
  61   1.0000      -0.387774       -10.5519
  62   1.0000      -0.383773       -10.4430
  63   1.0000      -0.381544       -10.3823
  64   1.0000      -0.373196       -10.1552
  65   0.0000      -0.063498        -1.7279
  66   0.0000      -0.042753        -1.1634
  67   0.0000       0.006357         0.1730
  68   0.0000       0.029393         0.7998
  69   0.0000       0.031227         0.8497

----------------------------------------------------------------------------------------------------
          SPIN FLIP ABSORPTION SPECTRUM VIA TRANSITION ELECTRIC DIPOLE MOMENTS
----------------------------------------------------------------------------------------------------
     Transition      Energy     Energy  Wavelength fosc(D2)      D2        DX        DY        DZ
                      (eV)      (cm-1)    (nm)                 (au**2)    (au)      (au)      (au)
----------------------------------------------------------------------------------------------------
  1-3A  ->  2-3A    0.075955     612.6  16323.4   0.000000298   0.00016   0.00269   0.00462  -0.01148

Dispersion correction             ... done (  0.1 sec)

MULLIKEN ATOMIC CHARGES AND SPIN DENSITIES
------------------------------------------
   0 O :   -0.680766    0.026151
   1 O :   -0.651516   -0.025532
   2 O :   -0.675044    0.000386
   3 O :   -0.640387   -0.000974
   4 N :   -0.271872    0.001463
   5 N :   -0.307520    0.000610
   6 N :   -0.005266    0.000133
   7 N :   -0.030696   -0.001234
   8 C :    0.600427    0.404538
   9 C :    1.053572    0.364455
  10 C :    0.084942   -0.145399
  11 C :    0.219893   -0.247993
  12 C :   -1.394411    0.007079
  13 C :   -1.616970    0.024013
  14 C :    0.202156   -0.205246
  15 C :   -0.062993   -0.278897
  16 C :    0.452788    0.017756
  17 C :    0.307322    0.016172
  18 H :    0.518540    0.008263
  19 H :    0.472990   -0.000913
  20 H :    0.387253    0.000479
  21 H :    0.242074    0.020259
  22 H :    0.352429    0.006823
  23 H :    0.327989   -0.006474
  24 H :    0.366043    0.005251
  25 H :    0.354976    0.002747
  26 H :    0.091589    0.001093
  27 H :    0.114063   -0.001336
  28 H :    0.080805    0.002417
  29 H :    0.107589    0.003911
Sum of atomic charges       :    0.0000000

LOEWDIN ATOMIC CHARGES AND SPIN DENSITIES
-----------------------------------------
   0 O :    0.105709    0.022516
   1 O :    0.123675   -0.023066
   2 O :    0.082713    0.000776
   3 O :    0.083497   -0.000540
   4 N :    0.263940   -0.001874
   5 N :    0.252209   -0.002950
   6 N :    0.318135    0.000682
   7 N :    0.306232   -0.004218
   8 C :   -0.007287    0.096669
   9 C :   -0.037157   -0.071990
  10 C :   -0.090504    0.000368
  11 C :   -0.111964   -0.005990
  12 C :    0.228388    0.012523
  13 C :    0.192499   -0.013683
  14 C :   -0.409918    0.010552
  15 C :   -0.445420   -0.017207
  16 C :   -0.538378   -0.000462
  17 C :   -0.443930   -0.000434
  18 H :    0.075878   -0.000260
  19 H :    0.066387   -0.000120
  20 H :   -0.037238    0.000317
  21 H :   -0.027872    0.004070
  22 H :    0.016161    0.001447
  23 H :    0.044560   -0.004472
  24 H :   -0.030275    0.000009
  25 H :   -0.029424   -0.001899
  26 H :   -0.017636   -0.000100
  27 H :   -0.006148   -0.000302
  28 H :    0.034427    0.000001
  29 H :    0.038742   -0.000364

  Mayer bond orders larger than 0.100000
B(  0-O , 14-C ) :   1.3223 B(  1-O , 15-C ) :   1.4873 B(  2-O , 16-C ) :   1.5067
B(  3-O , 17-C ) :   1.5742 B(  4-N ,  5-N ) :   0.1158 B(  4-N ,  8-C ) :   0.1542
B(  4-N , 10-C ) :   0.4009 B(  4-N , 11-C ) :  -0.1032 B(  4-N , 16-C ) :   1.0513
B(  4-N , 26-H ) :   1.1044 B(  5-N ,  9-C ) :   0.1255 B(  5-N , 10-C ) :   0.1916
B(  5-N , 11-C ) :   0.2874 B(  5-N , 17-C ) :   1.1316 B(  5-N , 27-H ) :   1.0315
B(  6-N , 10-C ) :   0.1195 B(  6-N , 14-C ) :   1.0035 B(  6-N , 16-C ) :   0.9477
B(  6-N , 28-H ) :   1.0784 B(  7-N ,  9-C ) :  -0.1601 B(  7-N , 11-C ) :   0.1406
B(  7-N , 15-C ) :   0.9834 B(  7-N , 17-C ) :   0.9743 B(  7-N , 29-H ) :   1.0585
B(  8-C ,  9-C ) :   0.1540 B(  8-C , 10-C ) :   0.2831 B(  8-C , 12-C ) :   0.4155
B(  8-C , 14-C ) :   0.7945 B(  8-C , 18-H ) :  -0.1752 B(  8-C , 20-H ) :  -0.1039
B(  9-C , 11-C ) :   0.2901 B(  9-C , 13-C ) :   0.2381 B(  9-C , 15-C ) :   0.3977
B(  9-C , 17-C ) :   0.1019 B(  9-C , 24-H ) :  -0.1220 B(  9-C , 25-H ) :  -0.1262
B( 10-C , 11-C ) :   0.6913 B( 10-C , 16-C ) :  -0.1115 B( 10-C , 18-H ) :   0.8552
B( 11-C , 13-C ) :  -0.1253 B( 11-C , 17-C ) :  -0.2621 B( 11-C , 19-H ) :   0.8863
B( 12-C , 20-H ) :   0.9528 B( 12-C , 21-H ) :   0.8284 B( 12-C , 22-H ) :   1.0461
B( 13-C , 23-H ) :   0.8162 B( 13-C , 24-H ) :   0.9750 B( 13-C , 25-H ) :   0.9984

Dispersion correction           -0.061073037
FINAL SINGLE POINT ENERGY      -908.771391876494

DIPOLE MOMENT
-------------

Method             : TDA/CIS
Type of density    : Electron Density
Level              : Relaxed density
State              :   2
Multiplicity       :   3
Irrep              :   0
Energy             :     0.0000000000000000 Eh
Relativity type    :
Basis              : AO
                                X                 Y                 Z
Electronic contribution:     -2.316059622     -10.620400750      -6.938100622
Nuclear contribution   :      2.147096425      12.497034452       9.600708424
                        -----------------------------------------
Total Dipole Moment    :     -0.168963197       1.876633702       2.662607802
                        -----------------------------------------
Magnitude (a.u.)       :      3.261868011
Magnitude (Debye)      :      8.291009587

Rotational constants in cm-1:             0.019175             0.016292             0.013119
Rotational constants in MHz :           574.863918           488.425806           393.299464

                             ****ORCA TERMINATED NORMALLY****
TOTAL RUN TIME: 0 days 0 hours 4 minutes 35 seconds 160 msec
