                         Program Version 6.0.0  -   RELEASE  -
|  1> ! Engrad def2-TZVPPD wB97M-D3BJ
|  2> %pal nprocs 8 end%pal nprocs 64 end
|  3> %tddft
|  4>  Iroot 2 Nroots 3
|  5> sf true
|  6> end
|  7> *xyz 0 3
|  8> O   2.97352304 -0.82685177 -2.09419701
|  9> O   -2.26658934 1.23337565 -1.6713791
| 10> O   -1.24765761 -2.3027301 -1.1927833
| 11> O   -2.76154776 0.70650907 2.78530757
| 12> N   0.19767813 -1.76453335 0.53623462
| 13> N   -0.59736191 0.98421523 2.0891819
| 14> N   0.86750696 -1.47225754 -1.64184164
| 15> N   -2.46675995 0.91654535 0.58407622
| 16> C   2.26913866 -0.62776343 0.15024501
| 17> C   -0.29317433 1.27809745 -0.25714267
| 18> C   1.03633011 -0.6592305 0.97062997
| 19> C   0.34151793 0.84539205 1.01223176
| 20> C   3.49584631 0.05194544 0.68242324
| 21> C   0.46407967 1.7391084 -1.4837556
| 22> C   2.10071486 -0.99176639 -1.25820877
| 23> C   -1.75838983 1.12797713 -0.59882829
| 24> C   -0.152361 -1.88083925 -0.8079372
| 25> C   -1.980915 0.87584124 1.91255451
| 26> H   1.34292885 -0.87606212 1.97619554
| 27> H   1.31731394 1.39584643 1.32007983
| 28> H   3.57785675 1.05456156 0.41118708
| 29> H   3.49869382 0.01628149 1.73718952
| 30> H   4.44190583 -0.33810331 0.36855281
| 31> H   0.20632957 1.19271588 -2.35591296
| 32> H   0.1461729 2.76951108 -1.65537077
| 33> H   1.53635099 1.57845006 -1.36037721
| 34> H   -0.57313263 -2.01834901 1.15571079
| 35> H   -0.27334905 0.87650168 3.01475521
| 36> H   0.76289896 -1.52328544 -2.64042285
| 37> H   -3.4463484 0.886043 0.49155793
| 38> *
| 39>
| 40>                          ****END OF INPUT****

CARTESIAN COORDINATES (ANGSTROEM)
---------------------------------
  O      2.973523   -0.826852   -2.094197
  O     -2.266589    1.233376   -1.671379
  O     -1.247658   -2.302730   -1.192783
  O     -2.761548    0.706509    2.785308
  N      0.197678   -1.764533    0.536235
  N     -0.597362    0.984215    2.089182
  N      0.867507   -1.472258   -1.641842
  N     -2.466760    0.916545    0.584076
  C      2.269139   -0.627763    0.150245
  C     -0.293174    1.278097   -0.257143
  C      1.036330   -0.659231    0.970630
  C      0.341518    0.845392    1.012232
  C      3.495846    0.051945    0.682423
  C      0.464080    1.739108   -1.483756
  C      2.100715   -0.991766   -1.258209
  C     -1.758390    1.127977   -0.598828
  C     -0.152361   -1.880839   -0.807937
  C     -1.980915    0.875841    1.912555
  H      1.342929   -0.876062    1.976196
  H      1.317314    1.395846    1.320080
  H      3.577857    1.054562    0.411187
  H      3.498694    0.016281    1.737190
  H      4.441906   -0.338103    0.368553
  H      0.206330    1.192716   -2.355913
  H      0.146173    2.769511   -1.655371
  H      1.536351    1.578450   -1.360377
  H     -0.573133   -2.018349    1.155711
  H     -0.273349    0.876502    3.014755
  H      0.762899   -1.523285   -2.640423
  H     -3.446348    0.886043    0.491558

 Total Charge           Charge          ....    0
 Multiplicity           Mult            ....    3
 Number of Electrons    NEL             ....  132
 Basis Dimension        Dim             ....  882

ORBITAL ENERGIES
----------------
                 SPIN UP ORBITALS
  NO   OCC          E(Eh)            E(eV)
   0   1.0000     -19.337658      -526.2044
   1   1.0000     -19.335564      -526.1475
   2   1.0000     -19.326890      -525.9114
   3   1.0000     -19.324878      -525.8567
   4   1.0000     -14.568912      -396.4402
   5   1.0000     -14.565126      -396.3372
   6   1.0000     -14.559643      -396.1880
   7   1.0000     -14.556317      -396.0975
   8   1.0000     -10.511692      -286.0377
   9   1.0000     -10.510873      -286.0154
  10   1.0000     -10.484880      -285.3081
  11   1.0000     -10.481808      -285.2245
  12   1.0000     -10.457891      -284.5737
  13   1.0000     -10.442914      -284.1661
  14   1.0000     -10.423379      -283.6346
  15   1.0000     -10.416142      -283.4376
  16   1.0000     -10.372793      -282.2580
  17   1.0000     -10.362632      -281.9816
  18   1.0000      -1.230958       -33.4961
  19   1.0000      -1.218425       -33.1550
  20   1.0000      -1.209513       -32.9125
  21   1.0000      -1.192594       -32.4521
  22   1.0000      -1.115875       -30.3645
  23   1.0000      -1.101685       -29.9784
  24   1.0000      -1.066398       -29.0182
  25   1.0000      -1.058863       -28.8131
  26   1.0000      -0.977468       -26.5983
  27   1.0000      -0.949294       -25.8316
  28   1.0000      -0.881959       -23.9993
  29   1.0000      -0.850408       -23.1408
  30   1.0000      -0.820587       -22.3293
  31   1.0000      -0.800384       -21.7796
  32   1.0000      -0.790344       -21.5064
  33   1.0000      -0.786880       -21.4121
  34   1.0000      -0.699321       -19.0295
  35   1.0000      -0.690904       -18.8005
  36   1.0000      -0.683926       -18.6106
  37   1.0000      -0.679608       -18.4931
  38   1.0000      -0.652711       -17.7612
  39   1.0000      -0.636301       -17.3146
  40   1.0000      -0.623863       -16.9762
  41   1.0000      -0.604372       -16.4458
  42   1.0000      -0.599573       -16.3152
  43   1.0000      -0.590972       -16.0812
  44   1.0000      -0.577207       -15.7066
  45   1.0000      -0.571549       -15.5526
  46   1.0000      -0.566127       -15.4051
  47   1.0000      -0.563555       -15.3351
  48   1.0000      -0.562174       -15.2975
  49   1.0000      -0.556855       -15.1528
  50   1.0000      -0.552088       -15.0231
  51   1.0000      -0.541713       -14.7408
  52   1.0000      -0.526804       -14.3351
  53   1.0000      -0.520566       -14.1653
  54   1.0000      -0.512838       -13.9550
  55   1.0000      -0.509719       -13.8702
  56   1.0000      -0.497396       -13.5348
  57   1.0000      -0.432325       -11.7642
  58   1.0000      -0.421253       -11.4629
  59   1.0000      -0.411384       -11.1943
  60   1.0000      -0.408024       -11.1029
  61   1.0000      -0.406360       -11.0576
  62   1.0000      -0.395733       -10.7684
  63   1.0000      -0.392145       -10.6708
  64   1.0000      -0.378393       -10.2966
  65   1.0000      -0.353663        -9.6236
  66   1.0000      -0.317801        -8.6478
  67   0.0000       0.008974         0.2442
  68   0.0000       0.030522         0.8305
  69   0.0000       0.034324         0.9340
  70   0.0000       0.035570         0.9679
  71   0.0000       0.053169         1.4468

                 SPIN DOWN ORBITALS
  NO   OCC          E(Eh)            E(eV)
   0   1.0000     -19.333326      -526.0866
   1   1.0000     -19.333215      -526.0835
   2   1.0000     -19.326694      -525.9061
   3   1.0000     -19.324593      -525.8489
   4   1.0000     -14.568434      -396.4272
   5   1.0000     -14.564808      -396.3286
   6   1.0000     -14.559551      -396.1855
   7   1.0000     -14.555516      -396.0757
   8   1.0000     -10.511743      -286.0391
   9   1.0000     -10.510952      -286.0175
  10   1.0000     -10.485890      -285.3356
  11   1.0000     -10.482626      -285.2467
  12   1.0000     -10.457601      -284.5658
  13   1.0000     -10.442134      -284.1449
  14   1.0000     -10.411915      -283.3226
  15   1.0000     -10.404297      -283.1153
  16   1.0000     -10.373332      -282.2727
  17   1.0000     -10.363080      -281.9937
  18   1.0000      -1.230125       -33.4734
  19   1.0000      -1.214995       -33.0617
  20   1.0000      -1.206260       -32.8240
  21   1.0000      -1.189322       -32.3631
  22   1.0000      -1.113240       -30.2928
  23   1.0000      -1.099545       -29.9201
  24   1.0000      -1.064523       -28.9671
  25   1.0000      -1.057374       -28.7726
  26   1.0000      -0.964012       -26.2321
  27   1.0000      -0.932295       -25.3690
  28   1.0000      -0.877234       -23.8707
  29   1.0000      -0.843980       -22.9659
  30   1.0000      -0.812518       -22.1097
  31   1.0000      -0.795770       -21.6540
  32   1.0000      -0.788232       -21.4489
  33   1.0000      -0.785563       -21.3763
  34   1.0000      -0.692351       -18.8398
  35   1.0000      -0.685916       -18.6647
  36   1.0000      -0.678933       -18.4747
  37   1.0000      -0.672455       -18.2984
  38   1.0000      -0.638979       -17.3875
  39   1.0000      -0.632795       -17.2192
  40   1.0000      -0.619675       -16.8622
  41   1.0000      -0.598581       -16.2882
  42   1.0000      -0.593613       -16.1530
  43   1.0000      -0.586796       -15.9675
  44   1.0000      -0.570463       -15.5231
  45   1.0000      -0.565983       -15.4012
  46   1.0000      -0.562462       -15.3054
  47   1.0000      -0.554691       -15.0939
  48   1.0000      -0.553412       -15.0591
  49   1.0000      -0.549067       -14.9409
  50   1.0000      -0.544994       -14.8300
  51   1.0000      -0.535291       -14.5660
  52   1.0000      -0.521062       -14.1788
  53   1.0000      -0.513374       -13.9696
  54   1.0000      -0.503215       -13.6932
  55   1.0000      -0.502307       -13.6685
  56   1.0000      -0.493383       -13.4256
  57   1.0000      -0.428265       -11.6537
  58   1.0000      -0.418987       -11.4012
  59   1.0000      -0.405894       -11.0449
  60   1.0000      -0.396835       -10.7984
  61   1.0000      -0.394895       -10.7456
  62   1.0000      -0.390144       -10.6163
  63   1.0000      -0.387654       -10.5486
  64   1.0000      -0.367636       -10.0039
  65   0.0000      -0.069162        -1.8820
  66   0.0000      -0.040784        -1.1098
  67   0.0000       0.008510         0.2316
  68   0.0000       0.030208         0.8220
  69   0.0000       0.034111         0.9282

----------------------------------------------------------------------------------------------------
          SPIN FLIP ABSORPTION SPECTRUM VIA TRANSITION ELECTRIC DIPOLE MOMENTS
----------------------------------------------------------------------------------------------------
     Transition      Energy     Energy  Wavelength fosc(D2)      D2        DX        DY        DZ
                      (eV)      (cm-1)    (nm)                 (au**2)    (au)      (au)      (au)
----------------------------------------------------------------------------------------------------
  1-3A  ->  2-3A    0.201884    1628.3  6141.4   0.000097927   0.01980  -0.10984   0.06730   0.05662
  1-3A  ->  3-3A    2.291305   18480.6   541.1   0.020905079   0.37240   0.53772  -0.21743  -0.18969

Dispersion correction             ... done (  0.1 sec)

MULLIKEN ATOMIC CHARGES AND SPIN DENSITIES
------------------------------------------
   0 O :   -0.678206   -0.001450
   1 O :   -0.627316   -0.002423
   2 O :   -0.647366   -0.000191
   3 O :   -0.601775    0.000125
   4 N :   -0.288785   -0.006288
   5 N :   -0.163737    0.002457
   6 N :    0.064730   -0.006218
   7 N :   -0.008255   -0.003728
   8 C :    0.533629    0.277392
   9 C :    0.143473    0.427193
  10 C :    0.280375   -0.116975
  11 C :    0.293755   -0.297676
  12 C :   -1.508874   -0.019956
  13 C :   -1.513432   -0.020843
  14 C :    0.123898   -0.138755
  15 C :    0.478404   -0.130575
  16 C :    0.332201    0.009167
  17 C :    0.430134    0.011278
  18 H :    0.587856   -0.003654
  19 H :    0.556002   -0.010051
  20 H :    0.309237    0.009391
  21 H :    0.387600    0.004431
  22 H :    0.348841   -0.001103
  23 H :    0.322639    0.005619
  24 H :    0.440807    0.010740
  25 H :    0.252788   -0.000604
  26 H :    0.105053   -0.000704
  27 H :    0.031459    0.001119
  28 H :    0.029660    0.000183
  29 H :   -0.014796    0.002099
Sum of atomic charges       :   -0.0000000

LOEWDIN ATOMIC CHARGES AND SPIN DENSITIES
-----------------------------------------
   0 O :    0.087905   -0.001649
   1 O :    0.123094   -0.001163
   2 O :    0.074580   -0.000171
   3 O :    0.114315    0.000036
   4 N :    0.270543   -0.000553
   5 N :    0.280168   -0.000363
   6 N :    0.325971   -0.002909
   7 N :    0.336296   -0.001513
   8 C :   -0.005535    0.006557
   9 C :    0.019725    0.013947
  10 C :   -0.107379   -0.001604
  11 C :   -0.105620   -0.000443
  12 C :    0.215129   -0.000411
  13 C :    0.196186   -0.000508
  14 C :   -0.424602   -0.005645
  15 C :   -0.420046   -0.002698
  16 C :   -0.450989   -0.000305
  17 C :   -0.463019   -0.000198
  18 H :    0.032935   -0.000627
  19 H :    0.088273    0.000055
  20 H :   -0.028767    0.000257
  21 H :   -0.021850    0.000043
  22 H :    0.002728   -0.000049
  23 H :   -0.021089    0.000475
  24 H :    0.016575    0.000108
  25 H :   -0.010335   -0.000218
  26 H :   -0.018562   -0.000024
  27 H :   -0.055932   -0.000038
  28 H :   -0.005911   -0.000262
  29 H :   -0.044786   -0.000127

  Mayer bond orders larger than 0.100000
B(  0-O ,  8-C ) :  -0.1444 B(  0-O , 14-C ) :   1.4592 B(  1-O , 15-C ) :   1.4574
B(  2-O , 16-C ) :   1.5146 B(  3-O , 17-C ) :   1.6226 B(  4-N ,  8-C ) :   0.3817
B(  4-N , 16-C ) :   1.0788 B(  4-N , 18-H ) :  -0.1001 B(  4-N , 26-H ) :   0.9698
B(  5-N ,  9-C ) :   0.1299 B(  5-N , 10-C ) :   0.1233 B(  5-N , 11-C ) :   0.2443
B(  5-N , 17-C ) :   1.0851 B(  5-N , 27-H ) :   1.1479 B(  6-N ,  8-C ) :  -0.1693
B(  6-N , 10-C ) :   0.1381 B(  6-N , 14-C ) :   1.0580 B(  6-N , 16-C ) :   0.8965
B(  6-N , 28-H ) :   1.1252 B(  7-N , 15-C ) :   0.9967 B(  7-N , 17-C ) :   0.9660
B(  7-N , 29-H ) :   1.1536 B(  8-C , 10-C ) :   0.3569 B(  8-C , 11-C ) :   0.3017
B(  8-C , 12-C ) :   0.3547 B(  8-C , 14-C ) :   0.7479 B(  8-C , 16-C ) :   0.1037
B(  8-C , 18-H ) :  -0.1677 B(  8-C , 21-H ) :  -0.1400 B(  9-C , 10-C ) :   0.2591
B(  9-C , 11-C ) :   0.5810 B(  9-C , 13-C ) :   0.3524 B(  9-C , 15-C ) :   0.6274
B(  9-C , 19-H ) :  -0.1994 B(  9-C , 25-H ) :  -0.1095 B( 10-C , 11-C ) :   0.3484
B( 10-C , 14-C ) :  -0.1112 B( 10-C , 18-H ) :   0.8054 B( 11-C , 12-C ) :   0.1474
B( 11-C , 13-C ) :  -0.1572 B( 11-C , 17-C ) :  -0.1786 B( 11-C , 18-H ) :  -0.1120
B( 11-C , 19-H ) :   0.7800 B( 12-C , 20-H ) :   0.8557 B( 12-C , 21-H ) :   0.9862
B( 12-C , 22-H ) :   0.9354 B( 13-C , 23-H ) :   0.9764 B( 13-C , 24-H ) :   0.8124
B( 13-C , 25-H ) :   1.0437

Dispersion correction           -0.058256073
FINAL SINGLE POINT ENERGY      -908.775640695474

DIPOLE MOMENT
-------------

Method             : TDA/CIS
Type of density    : Electron Density
Level              : Relaxed density
State              :   2
Multiplicity       :   3
Irrep              :   0
Energy             :     0.0000000000000000 Eh
Relativity type    :
Basis              : AO
                                X                 Y                 Z
Electronic contribution:     -9.882808916      -4.438031325      -0.957089635
Nuclear contribution   :     11.786274977       5.199268461       2.577579606
                        -----------------------------------------
Total Dipole Moment    :      1.903466062       0.761237136       1.620489971
                        -----------------------------------------
Magnitude (a.u.)       :      2.613169105
Magnitude (Debye)      :      6.642148005

Rotational constants in cm-1:             0.022303             0.012104             0.010978
Rotational constants in MHz :           668.635458           362.864956           329.115643

                             ****ORCA TERMINATED NORMALLY****
TOTAL RUN TIME: 0 days 0 hours 4 minutes 49 seconds 294 msec
