                         Program Version 6.0.0  -   RELEASE  -
|  1> ! Engrad def2-TZVPPD wB97M-D3BJ
|  2> %pal nprocs 8 end%pal nprocs 64 end
|  3> %tddft Nroots 2 Iroot 1
|  4> sf true
|  5> end
|  6> *xyz 0 3
|  7> O   2.89417169 1.09189908 -0.73355101
|  8> O   -0.39852787 0.84968917 -2.01966987
|  9> O   0.50552956 -2.74739449 -1.4566771
| 10> O   -2.62412741 -1.75750875 0.94930574
| 11> N   0.69248975 -2.02028894 0.69092721
| 12> N   -2.48795879 0.50972345 1.33201851
| 13> N   1.79514018 -0.91618139 -1.0386938
| 14> N   -1.62427553 -0.39992332 -0.59321672
| 15> C   1.72331861 0.10432004 1.06379152
| 16> C   -1.12618821 1.91005543 -0.03189987
| 17> C   0.99010733 -0.99443738 1.54866751
| 18> C   -1.84915819 1.69464359 1.08226206
| 19> C   2.14593583 1.16767833 1.97463821
| 20> C   -0.35781325 3.14170283 -0.34718629
| 21> C   2.21382447 0.16911634 -0.29933105
| 22> C   -0.94286649 0.76962164 -0.94736471
| 23> C   0.9760577 -1.97068693 -0.66746749
| 24> C   -2.26203629 -0.66371067 0.59709271
| 25> H   0.68612881 -1.10165493 2.53059787
| 26> H   -2.06527049 2.41869617 1.83907302
| 27> H   1.67790024 2.1249866 1.61770432
| 28> H   1.90011927 1.00547871 3.01737384
| 29> H   3.2190856 1.35203881 1.84784441
| 30> H   -0.66643408 3.50620909 -1.33775077
| 31> H   -0.49800625 3.89512431 0.42223261
| 32> H   0.70369807 2.94926627 -0.41618765
| 33> H   -0.03210555 -2.71644759 0.88500736
| 34> H   -2.94376941 0.33914137 2.21533349
| 35> H   1.99162433 -0.86469717 -2.03630618
| 36> H   -1.38798025 -1.23542939 -1.12971261
| 37> *
| 38>
| 39>                          ****END OF INPUT****

CARTESIAN COORDINATES (ANGSTROEM)
---------------------------------
  O      2.894172    1.091899   -0.733551
  O     -0.398528    0.849689   -2.019670
  O      0.505530   -2.747394   -1.456677
  O     -2.624127   -1.757509    0.949306
  N      0.692490   -2.020289    0.690927
  N     -2.487959    0.509723    1.332019
  N      1.795140   -0.916181   -1.038694
  N     -1.624276   -0.399923   -0.593217
  C      1.723319    0.104320    1.063792
  C     -1.126188    1.910055   -0.031900
  C      0.990107   -0.994437    1.548668
  C     -1.849158    1.694644    1.082262
  C      2.145936    1.167678    1.974638
  C     -0.357813    3.141703   -0.347186
  C      2.213824    0.169116   -0.299331
  C     -0.942866    0.769622   -0.947365
  C      0.976058   -1.970687   -0.667467
  C     -2.262036   -0.663711    0.597093
  H      0.686129   -1.101655    2.530598
  H     -2.065270    2.418696    1.839073
  H      1.677900    2.124987    1.617704
  H      1.900119    1.005479    3.017374
  H      3.219086    1.352039    1.847844
  H     -0.666434    3.506209   -1.337751
  H     -0.498006    3.895124    0.422233
  H      0.703698    2.949266   -0.416188
  H     -0.032106   -2.716448    0.885007
  H     -2.943769    0.339141    2.215333
  H      1.991624   -0.864697   -2.036306
  H     -1.387980   -1.235429   -1.129713

 Total Charge           Charge          ....    0
 Multiplicity           Mult            ....    3
 Number of Electrons    NEL             ....  132
 Basis Dimension        Dim             ....  882

ORBITAL ENERGIES
----------------
                 SPIN UP ORBITALS
  NO   OCC          E(Eh)            E(eV)
   0   1.0000     -19.337409      -526.1977
   1   1.0000     -19.333855      -526.1009
   2   1.0000     -19.322453      -525.7907
   3   1.0000     -19.319712      -525.7161
   4   1.0000     -14.588889      -396.9838
   5   1.0000     -14.581015      -396.7696
   6   1.0000     -14.568666      -396.4336
   7   1.0000     -14.552189      -395.9852
   8   1.0000     -10.515422      -286.1392
   9   1.0000     -10.513458      -286.0857
  10   1.0000     -10.477511      -285.1076
  11   1.0000     -10.460177      -284.6359
  12   1.0000     -10.431650      -283.8596
  13   1.0000     -10.404570      -283.1227
  14   1.0000     -10.399522      -282.9854
  15   1.0000     -10.380650      -282.4718
  16   1.0000     -10.366300      -282.0814
  17   1.0000     -10.352658      -281.7101
  18   1.0000      -1.232354       -33.5341
  19   1.0000      -1.228106       -33.4185
  20   1.0000      -1.197240       -32.5786
  21   1.0000      -1.183300       -32.1992
  22   1.0000      -1.123342       -30.5677
  23   1.0000      -1.122108       -30.5341
  24   1.0000      -1.068452       -29.0741
  25   1.0000      -1.063093       -28.9282
  26   1.0000      -0.966556       -26.3013
  27   1.0000      -0.953280       -25.9401
  28   1.0000      -0.853333       -23.2204
  29   1.0000      -0.848110       -23.0783
  30   1.0000      -0.811144       -22.0723
  31   1.0000      -0.806877       -21.9562
  32   1.0000      -0.791087       -21.5266
  33   1.0000      -0.788024       -21.4432
  34   1.0000      -0.693239       -18.8640
  35   1.0000      -0.691634       -18.8203
  36   1.0000      -0.687726       -18.7140
  37   1.0000      -0.686229       -18.6732
  38   1.0000      -0.644768       -17.5450
  39   1.0000      -0.633468       -17.2375
  40   1.0000      -0.631099       -17.1731
  41   1.0000      -0.603138       -16.4122
  42   1.0000      -0.597133       -16.2488
  43   1.0000      -0.596400       -16.2289
  44   1.0000      -0.573533       -15.6066
  45   1.0000      -0.571095       -15.5403
  46   1.0000      -0.567817       -15.4511
  47   1.0000      -0.554289       -15.0830
  48   1.0000      -0.552516       -15.0347
  49   1.0000      -0.545319       -14.8389
  50   1.0000      -0.527739       -14.3605
  51   1.0000      -0.527014       -14.3408
  52   1.0000      -0.518273       -14.1029
  53   1.0000      -0.512432       -13.9440
  54   1.0000      -0.505370       -13.7518
  55   1.0000      -0.498621       -13.5682
  56   1.0000      -0.488650       -13.2968
  57   1.0000      -0.481118       -13.0919
  58   1.0000      -0.426308       -11.6004
  59   1.0000      -0.423172       -11.5151
  60   1.0000      -0.409373       -11.1396
  61   1.0000      -0.400355       -10.8942
  62   1.0000      -0.387610       -10.5474
  63   1.0000      -0.386473       -10.5165
  64   1.0000      -0.378483       -10.2990
  65   1.0000      -0.343725        -9.3532
  66   1.0000      -0.220095        -5.9891
  67   0.0000       0.012520         0.3407
  68   0.0000       0.022577         0.6144
  69   0.0000       0.033114         0.9011
  70   0.0000       0.037415         1.0181
  71   0.0000       0.045056         1.2260

                 SPIN DOWN ORBITALS
  NO   OCC          E(Eh)            E(eV)
   0   1.0000     -19.335514      -526.1461
   1   1.0000     -19.333839      -526.1005
   2   1.0000     -19.322476      -525.7913
   3   1.0000     -19.314127      -525.5641
   4   1.0000     -14.584334      -396.8599
   5   1.0000     -14.580865      -396.7655
   6   1.0000     -14.568679      -396.4339
   7   1.0000     -14.551142      -395.9567
   8   1.0000     -10.515425      -286.1393
   9   1.0000     -10.513738      -286.0934
  10   1.0000     -10.477497      -285.1072
  11   1.0000     -10.460155      -284.6353
  12   1.0000     -10.431496      -283.8554
  13   1.0000     -10.394776      -282.8562
  14   1.0000     -10.388970      -282.6983
  15   1.0000     -10.380661      -282.4721
  16   1.0000     -10.366767      -282.0941
  17   1.0000     -10.352646      -281.7098
  18   1.0000      -1.230321       -33.4787
  19   1.0000      -1.226284       -33.3689
  20   1.0000      -1.197217       -32.5779
  21   1.0000      -1.174983       -31.9729
  22   1.0000      -1.123108       -30.5613
  23   1.0000      -1.111763       -30.2526
  24   1.0000      -1.068273       -29.0692
  25   1.0000      -1.057512       -28.7764
  26   1.0000      -0.953677       -25.9509
  27   1.0000      -0.943808       -25.6823
  28   1.0000      -0.848011       -23.0755
  29   1.0000      -0.839873       -22.8541
  30   1.0000      -0.806824       -21.9548
  31   1.0000      -0.798736       -21.7347
  32   1.0000      -0.790407       -21.5081
  33   1.0000      -0.783643       -21.3240
  34   1.0000      -0.692551       -18.8453
  35   1.0000      -0.686764       -18.6878
  36   1.0000      -0.680039       -18.5048
  37   1.0000      -0.679196       -18.4819
  38   1.0000      -0.641641       -17.4599
  39   1.0000      -0.627133       -17.0652
  40   1.0000      -0.623332       -16.9617
  41   1.0000      -0.597013       -16.2456
  42   1.0000      -0.593762       -16.1571
  43   1.0000      -0.589470       -16.0403
  44   1.0000      -0.570846       -15.5335
  45   1.0000      -0.565634       -15.3917
  46   1.0000      -0.557260       -15.1638
  47   1.0000      -0.551777       -15.0146
  48   1.0000      -0.547077       -14.8867
  49   1.0000      -0.533675       -14.5220
  50   1.0000      -0.521618       -14.1940
  51   1.0000      -0.518984       -14.1223
  52   1.0000      -0.515168       -14.0184
  53   1.0000      -0.502315       -13.6687
  54   1.0000      -0.498795       -13.5729
  55   1.0000      -0.495640       -13.4871
  56   1.0000      -0.480170       -13.0661
  57   1.0000      -0.447534       -12.1780
  58   1.0000      -0.424376       -11.5479
  59   1.0000      -0.419708       -11.4208
  60   1.0000      -0.404224       -10.9995
  61   1.0000      -0.388912       -10.5828
  62   1.0000      -0.379639       -10.3305
  63   1.0000      -0.378813       -10.3080
  64   1.0000      -0.343705        -9.3527
  65   0.0000      -0.095727        -2.6049
  66   0.0000       0.011158         0.3036
  67   0.0000       0.022543         0.6134
  68   0.0000       0.029931         0.8145
  69   0.0000       0.036451         0.9919

----------------------------------------------------------------------------------------------------
          SPIN FLIP ABSORPTION SPECTRUM VIA TRANSITION ELECTRIC DIPOLE MOMENTS
----------------------------------------------------------------------------------------------------
     Transition      Energy     Energy  Wavelength fosc(D2)      D2        DX        DY        DZ
                      (eV)      (cm-1)    (nm)                 (au**2)    (au)      (au)      (au)
----------------------------------------------------------------------------------------------------
  1-3A  ->  2-3A    3.643004   29382.8   340.3   0.000874898   0.00980   0.04466   0.03739  -0.08006

Dispersion correction             ... done (  0.1 sec)

MULLIKEN ATOMIC CHARGES AND SPIN DENSITIES
------------------------------------------
   0 O :   -0.690085    0.030848
   1 O :   -0.644108    0.000946
   2 O :   -0.615345    0.006225
   3 O :   -0.634244    0.000564
   4 N :   -0.050361    0.040528
   5 N :   -0.076979    0.006172
   6 N :    0.022064   -0.002228
   7 N :   -0.017867   -0.003380
   8 C :    1.098209    0.460065
   9 C :    0.473367    0.005909
  10 C :   -0.313426   -0.404492
  11 C :    0.026494   -0.016880
  12 C :   -1.337931   -0.009529
  13 C :   -1.341303    0.011945
  14 C :    0.290069   -0.218285
  15 C :    0.648910    0.002443
  16 C :    0.338011    0.019986
  17 C :    0.373046   -0.005643
  18 H :    0.245192    0.045604
  19 H :    0.157608   -0.003449
  20 H :    0.205185    0.020868
  21 H :    0.346484    0.013552
  22 H :    0.300681   -0.001141
  23 H :    0.347675    0.000274
  24 H :    0.334908    0.000272
  25 H :    0.201909   -0.004071
  26 H :    0.113553    0.001039
  27 H :    0.048853   -0.000079
  28 H :    0.030736    0.003721
  29 H :    0.118696   -0.001783
Sum of atomic charges       :    0.0000000

LOEWDIN ATOMIC CHARGES AND SPIN DENSITIES
-----------------------------------------
   0 O :    0.076046    0.025671
   1 O :    0.107808    0.000684
   2 O :    0.095995    0.004799
   3 O :    0.085841   -0.000020
   4 N :    0.272074    0.019825
   5 N :    0.270314    0.000266
   6 N :    0.332667   -0.000801
   7 N :    0.337079   -0.000520
   8 C :   -0.131302   -0.027133
   9 C :   -0.129673   -0.000828
  10 C :    0.109555   -0.026759
  11 C :    0.052847   -0.001490
  12 C :    0.147631   -0.003017
  13 C :    0.173063    0.000122
  14 C :   -0.427633    0.009010
  15 C :   -0.396913    0.000162
  16 C :   -0.481252    0.000083
  17 C :   -0.476430   -0.000391
  18 H :   -0.002697   -0.002250
  19 H :    0.027941   -0.000040
  20 H :    0.011154    0.000088
  21 H :   -0.007529    0.000392
  22 H :    0.006274    0.000162
  23 H :    0.011708   -0.000001
  24 H :   -0.004926    0.000018
  25 H :   -0.020825    0.000085
  26 H :   -0.004576    0.001778
  27 H :   -0.022850    0.000018
  28 H :    0.007800    0.000123
  29 H :   -0.019192   -0.000038

  Mayer bond orders larger than 0.100000
B(  0-O , 14-C ) :   1.4076 B(  1-O , 15-C ) :   1.4653 B(  2-O , 16-C ) :   1.6103
B(  3-O , 17-C ) :   1.5607 B(  4-N , 10-C ) :   0.9510 B(  4-N , 16-C ) :   0.9526
B(  4-N , 26-H ) :   1.0713 B(  5-N , 11-C ) :   0.9523 B(  5-N , 17-C ) :   1.0233
B(  5-N , 27-H ) :   1.1049 B(  6-N , 14-C ) :   0.9630 B(  6-N , 16-C ) :   0.9328
B(  6-N , 28-H ) :   1.1135 B(  7-N , 15-C ) :   0.9073 B(  7-N , 17-C ) :   0.9834
B(  7-N , 29-H ) :   1.0471 B(  8-C , 10-C ) :   1.0931 B(  8-C , 12-C ) :   0.3242
B(  8-C , 14-C ) :   0.7145 B(  8-C , 20-H ) :  -0.1156 B(  9-C , 11-C ) :   1.2806
B(  9-C , 13-C ) :   0.3672 B(  9-C , 15-C ) :   0.8803 B(  9-C , 25-H ) :  -0.1031
B( 10-C , 16-C ) :  -0.1240 B( 10-C , 18-H ) :   1.0600 B( 11-C , 15-C ) :  -0.1192
B( 11-C , 19-H ) :   1.0380 B( 12-C , 14-C ) :  -0.1201 B( 12-C , 20-H ) :   1.0839
B( 12-C , 21-H ) :   0.9476 B( 12-C , 22-H ) :   0.9301 B( 13-C , 23-H ) :   0.9558
B( 13-C , 24-H ) :   0.9760 B( 13-C , 25-H ) :   1.0062

Dispersion correction           -0.057458272
FINAL SINGLE POINT ENERGY      -908.906923015896

DIPOLE MOMENT
-------------

Method             : TDA/CIS
Type of density    : Electron Density
Level              : Relaxed density
State              :   1
Multiplicity       :   3
Irrep              :   0
Energy             :     0.0000000000000000 Eh
Relativity type    :
Basis              : AO
                                X                 Y                 Z
Electronic contribution:     -3.047978353     -10.481200278      -5.835954071
Nuclear contribution   :      2.240498883      11.115144829       8.349668836
                        -----------------------------------------
Total Dipole Moment    :     -0.807479471       0.633944551       2.513714765
                        -----------------------------------------
Magnitude (a.u.)       :      2.715266232
Magnitude (Debye)      :      6.901658277

Rotational constants in cm-1:             0.017875             0.015243             0.012016
Rotational constants in MHz :           535.866953           456.964468           360.239788

                             ****ORCA TERMINATED NORMALLY****
TOTAL RUN TIME: 0 days 0 hours 4 minutes 54 seconds 551 msec
