                         Program Version 6.0.0  -   RELEASE  -
|  1> ! Opt wB97M-D3BJ def2-TZVPPD
|  2> %pal nprocs 8 end %pal nprocs 64 end
|  3> %geom
|  4> Constraints
|  5>     {A 2 1 0 110.33898305084745 C }
|  6> end
|  7> MaxIter 200
|  8> end
|  9> *xyz 0 1
| 10> O   1.2481429939850306 0.937939037269003 0.0
| 11> C   0.7509 -0.4065 0.0
| 12> C   -0.7502 -0.4076 0.0
| 13> H   1.2625 -0.6786 0.9136
| 14> H   1.2625 -0.6787 -0.9136
| 15> H   -1.2614 -0.6806 -0.9136
| 16> H   -1.2614 -0.6805 0.9136
| 17> *
| 18>
| 19>                          ****END OF INPUT****
 Total Charge           Charge          ....    0
 Multiplicity           Mult            ....    1
 Number of Electrons    NEL             ....   24
Dispersion correction           -0.005444341
FINAL SINGLE POINT ENERGY      -153.721626498168
Dispersion correction             ... done (  0.1 sec)
Dispersion correction           -0.005511345
FINAL SINGLE POINT ENERGY      -153.743423266587
Dispersion correction             ... done (  0.1 sec)
Dispersion correction           -0.005568405
FINAL SINGLE POINT ENERGY      -153.756057961282
Dispersion correction             ... done (  0.1 sec)
FINAL SINGLE POINT ENERGY      -153.766336115391
FINAL SINGLE POINT ENERGY      -153.769900201778
FINAL SINGLE POINT ENERGY      -153.770207273919
FINAL SINGLE POINT ENERGY      -153.770272110837
FINAL SINGLE POINT ENERGY      -153.770709830779
FINAL SINGLE POINT ENERGY      -153.771020514801
FINAL SINGLE POINT ENERGY      -153.772266795796
FINAL SINGLE POINT ENERGY      -153.920118368975
FINAL SINGLE POINT ENERGY      -153.921158269201
FINAL SINGLE POINT ENERGY      -153.921375810336
FINAL SINGLE POINT ENERGY      -153.921813021127
FINAL SINGLE POINT ENERGY      -153.921852675716
FINAL SINGLE POINT ENERGY      -153.921903168422
FINAL SINGLE POINT ENERGY      -153.921911653607
Dispersion correction             ... done (  0.1 sec)
Dispersion correction           -0.005569370
FINAL SINGLE POINT ENERGY      -153.921914949023
Dispersion correction             ... done (  0.1 sec)
Dispersion correction           -0.005569481
FINAL SINGLE POINT ENERGY      -153.921915211936
Dispersion correction             ... done (  0.1 sec)
                    ***********************HURRAY********************

CARTESIAN COORDINATES (ANGSTROEM)
---------------------------------
  O      1.204895    0.794871    0.673790
  C      0.935627   -0.362346    0.448756
  C     -0.376425   -0.461063   -0.317512
  H      1.560661   -1.217105    0.741382
  H     -0.197686   -0.065333   -1.315517
  H     -0.784142   -1.467426   -0.412573
  H     -1.091888    0.183841    0.181674

 Multiplicity           Mult            ....    1
 Number of Electrons    NEL             ....   24
 Basis Dimension        Dim             ....  182

ORBITAL ENERGIES
----------------

  NO   OCC          E(Eh)            E(eV)
   0   2.0000     -19.336089      -526.1617
   1   2.0000     -10.445142      -284.2268
   2   2.0000     -10.350775      -281.6589
   3   2.0000      -1.186537       -32.2873
   4   2.0000      -0.866499       -23.5786
   5   2.0000      -0.711944       -19.3730
   6   2.0000      -0.597429       -16.2569
   7   2.0000      -0.558089       -15.1864
   8   2.0000      -0.543713       -14.7952
   9   2.0000      -0.505005       -13.7419
  10   2.0000      -0.467173       -12.7124
  11   2.0000      -0.366079        -9.9615
  12   0.0000       0.039378         1.0715
  13   0.0000       0.041863         1.1391
  14   0.0000       0.058832         1.6009
  15   0.0000       0.083108         2.2615
  16   0.0000       0.087794         2.3890

MULLIKEN ATOMIC CHARGES
-----------------------
   0 O :   -0.467200
   1 C :    0.217428
   2 C :   -0.658321
   3 H :    0.240222
   4 H :    0.206782
   5 H :    0.240353
   6 H :    0.220735
Sum of atomic charges:   -0.0000000

LOEWDIN ATOMIC CHARGES
----------------------
   0 O :    0.045271
   1 C :   -0.180195
   2 C :    0.159243
   3 H :    0.021323
   4 H :   -0.010706
   5 H :   -0.023145
   6 H :   -0.011791

  Mayer bond orders larger than 0.100000
B(  0-O ,  1-C ) :   1.7904 B(  1-C ,  2-C ) :   0.8272 B(  1-C ,  3-H ) :   0.9688
B(  2-C ,  4-H ) :   0.9616 B(  2-C ,  5-H ) :   0.9956 B(  2-C ,  6-H ) :   0.9610

Dispersion correction           -0.005569272
FINAL SINGLE POINT ENERGY      -153.921915376998

DIPOLE MOMENT
-------------

Method             : SCF
Type of density    : Electron Density
Multiplicity       :   1
Irrep              :   0
Energy             :  -153.9163461047336057 Eh
Relativity type    :
Basis              : AO
                                X                 Y                 Z
Electronic contribution:      2.287823030       1.502682575       1.456416085
Nuclear contribution   :     -2.642316902      -2.416205656      -1.732637726
                        -----------------------------------------
Total Dipole Moment    :     -0.354493872      -0.913523081      -0.276221641
                        -----------------------------------------
Magnitude (a.u.)       :      1.018080900
Magnitude (Debye)      :      2.587755996

Rotational constants in cm-1:             1.566527             0.381956             0.325586
Rotational constants in MHz :         46963.288257         11450.739589          9760.811923

                             ****ORCA TERMINATED NORMALLY****
TOTAL RUN TIME: 0 days 0 hours 10 minutes 30 seconds 209 msec
