                         Program Version 6.0.0  -   RELEASE  -
|  1> ! Engrad def2-TZVPPD wB97M-D3BJ
|  2> %pal nprocs 8 end%pal nprocs 64 end
|  3> %tddft
|  4>  Iroot 1 Nroots 3
|  5> sf true
|  6> end
|  7> *xyz 0 3
|  8> O   1.00691475 0.7437298 0.7820868
|  9> C   0.32366997 -0.36758866 0.3876355
| 10> C   -0.14531974 -0.24574502 -1.02077687
| 11> H   -0.68236769 -0.52991846 0.88834138
| 12> H   1.13634778 -1.2392356 0.39956162
| 13> H   -1.22990399 -0.2041234 -1.29252153
| 14> H   0.43305322 0.3524566 -1.73450159
| 15> *
| 16>
| 17>                          ****END OF INPUT****

CARTESIAN COORDINATES (ANGSTROEM)
---------------------------------
  O      1.006915    0.743730    0.782087
  C      0.323670   -0.367589    0.387636
  C     -0.145320   -0.245745   -1.020777
  H     -0.682368   -0.529918    0.888341
  H      1.136348   -1.239236    0.399562
  H     -1.229904   -0.204123   -1.292522
  H      0.433053    0.352457   -1.734502

 Total Charge           Charge          ....    0
 Multiplicity           Mult            ....    3
 Number of Electrons    NEL             ....   24
 Basis Dimension        Dim             ....  182

ORBITAL ENERGIES
----------------
                 SPIN UP ORBITALS
  NO   OCC          E(Eh)            E(eV)
   0   1.0000     -19.393747      -527.7307
   1   1.0000     -10.427154      -283.7373
   2   1.0000     -10.375730      -282.3380
   3   1.0000      -1.175217       -31.9793
   4   1.0000      -0.876770       -23.8581
   5   1.0000      -0.721961       -19.6456
   6   1.0000      -0.617676       -16.8078
   7   1.0000      -0.583189       -15.8694
   8   1.0000      -0.562261       -15.2999
   9   1.0000      -0.495392       -13.4803
  10   1.0000      -0.442351       -12.0370
  11   1.0000      -0.414577       -11.2812
  12   1.0000      -0.331409        -9.0181
  13   0.0000       0.041750         1.1361
  14   0.0000       0.061484         1.6731
  15   0.0000       0.075602         2.0572
  16   0.0000       0.085845         2.3360
  17   0.0000       0.111734         3.0404

                 SPIN DOWN ORBITALS
  NO   OCC          E(Eh)            E(eV)
   0   1.0000     -19.369828      -527.0798
   1   1.0000     -10.428555      -283.7754
   2   1.0000     -10.361489      -281.9505
   3   1.0000      -1.121399       -30.5148
   4   1.0000      -0.842756       -22.9325
   5   1.0000      -0.695212       -18.9177
   6   1.0000      -0.594396       -16.1743
   7   1.0000      -0.538809       -14.6617
   8   1.0000      -0.525565       -14.3014
   9   1.0000      -0.478231       -13.0133
  10   1.0000      -0.383955       -10.4480
  11   0.0000      -0.061967        -1.6862
  12   0.0000      -0.005547        -0.1509
  13   0.0000       0.041877         1.1395
  14   0.0000       0.062414         1.6984
  15   0.0000       0.075697         2.0598

----------------------------------------------------------------------------------------------------
          SPIN FLIP ABSORPTION SPECTRUM VIA TRANSITION ELECTRIC DIPOLE MOMENTS
----------------------------------------------------------------------------------------------------
     Transition      Energy     Energy  Wavelength fosc(D2)      D2        DX        DY        DZ
                      (eV)      (cm-1)    (nm)                 (au**2)    (au)      (au)      (au)
----------------------------------------------------------------------------------------------------
  1-3A  ->  2-3A    0.406403    3277.9  3050.8   0.000166849   0.01676  -0.11962  -0.04792  -0.01236
  1-3A  ->  3-3A    1.204047    9711.3  1029.7   0.009373119   0.31775  -0.26083  -0.08464  -0.49249

Dispersion correction             ... done (  0.1 sec)

MULLIKEN ATOMIC CHARGES AND SPIN DENSITIES
------------------------------------------
   0 O :   -0.458847   -0.313907
   1 C :   -0.027988   -0.060993
   2 C :   -0.405051    0.381522
   3 H :    0.210683   -0.069463
   4 H :    0.243520    0.004967
   5 H :    0.194240    0.032278
   6 H :    0.243441    0.025597
Sum of atomic charges       :    0.0000000

LOEWDIN ATOMIC CHARGES AND SPIN DENSITIES
-----------------------------------------
   0 O :   -0.051577   -0.317772
   1 C :   -0.336059   -0.026550
   2 C :    0.315099    0.339037
   3 H :    0.047962   -0.049087
   4 H :    0.073047   -0.012390
   5 H :   -0.014745    0.034432
   6 H :   -0.033728    0.032329

  Mayer bond orders larger than 0.100000
B(  0-O ,  1-C ) :   0.9768 B(  0-O ,  2-C ) :   0.3814 B(  1-C ,  2-C ) :   0.7539
B(  1-C ,  3-H ) :   0.9449 B(  1-C ,  4-H ) :   0.9920 B(  2-C ,  5-H ) :   0.9983
B(  2-C ,  6-H ) :   0.9624

Dispersion correction           -0.005529853
FINAL SINGLE POINT ENERGY      -153.749265552213

DIPOLE MOMENT
-------------

Method             : TDA/CIS
Type of density    : Electron Density
Level              : Relaxed density
State              :   1
Multiplicity       :   3
Irrep              :   0
Energy             :     0.0000000000000000 Eh
Relativity type    :
Basis              : AO
                                X                 Y                 Z
Electronic contribution:      1.047128568       1.010935673       1.132578589
Nuclear contribution   :     -1.838151636      -1.757492810      -1.889848997
                        -----------------------------------------
Total Dipole Moment    :     -0.791023068      -0.746557137      -0.757270409
                        -----------------------------------------
Magnitude (a.u.)       :      1.325339023
Magnitude (Debye)      :      3.368744077

Rotational constants in cm-1:             1.350497             0.359111             0.314682
Rotational constants in MHz :         40486.872794         10765.864574          9433.918253

                             ****ORCA TERMINATED NORMALLY****
TOTAL RUN TIME: 0 days 0 hours 0 minutes 26 seconds 976 msec
