                         Program Version 6.0.0  -   RELEASE  -
|  1> ! Engrad def2-TZVPPD wB97M-D3BJ
|  2> %pal nprocs 8 end%pal nprocs 64 end
|  3> %tddft
|  4>  Iroot 1 Nroots 3
|  5> sf true
|  6> end
|  7> *xyz 0 3
|  8> O   1.33579805 0.36595165 0.66944436
|  9> C   0.62330262 -0.05065831 -0.41557877
| 10> C   -0.87747673 -0.1854292 -0.07478912
| 11> H   0.89544307 -1.05103365 -0.61793369
| 12> H   0.8054634 0.62640985 -1.25212658
| 13> H   -1.59648481 0.28511526 -0.83981323
| 14> H   -1.11457492 -0.27065916 0.97486646
| 15> *
| 16>
| 17>                          ****END OF INPUT****

CARTESIAN COORDINATES (ANGSTROEM)
---------------------------------
  O      1.335798    0.365952    0.669444
  C      0.623303   -0.050658   -0.415579
  C     -0.877477   -0.185429   -0.074789
  H      0.895443   -1.051034   -0.617934
  H      0.805463    0.626410   -1.252127
  H     -1.596485    0.285115   -0.839813
  H     -1.114575   -0.270659    0.974866

 Total Charge           Charge          ....    0
 Multiplicity           Mult            ....    3
 Number of Electrons    NEL             ....   24
 Basis Dimension        Dim             ....  182

ORBITAL ENERGIES
----------------
                 SPIN UP ORBITALS
  NO   OCC          E(Eh)            E(eV)
   0   1.0000     -19.386426      -527.5315
   1   1.0000     -10.409414      -283.2546
   2   1.0000     -10.383211      -282.5415
   3   1.0000      -1.169594       -31.8263
   4   1.0000      -0.869116       -23.6498
   5   1.0000      -0.735912       -20.0252
   6   1.0000      -0.617616       -16.8062
   7   1.0000      -0.583765       -15.8851
   8   1.0000      -0.551305       -15.0018
   9   1.0000      -0.515350       -14.0234
  10   1.0000      -0.437560       -11.9066
  11   1.0000      -0.413841       -11.2612
  12   1.0000      -0.330642        -8.9972
  13   0.0000       0.042236         1.1493
  14   0.0000       0.061638         1.6772
  15   0.0000       0.078992         2.1495
  16   0.0000       0.086910         2.3649
  17   0.0000       0.111468         3.0332

                 SPIN DOWN ORBITALS
  NO   OCC          E(Eh)            E(eV)
   0   1.0000     -19.363185      -526.8990
   1   1.0000     -10.410427      -283.2821
   2   1.0000     -10.368373      -282.1378
   3   1.0000      -1.117466       -30.4078
   4   1.0000      -0.834830       -22.7169
   5   1.0000      -0.707350       -19.2480
   6   1.0000      -0.595077       -16.1929
   7   1.0000      -0.547105       -14.8875
   8   1.0000      -0.512202       -13.9377
   9   1.0000      -0.495785       -13.4910
  10   1.0000      -0.382718       -10.4143
  11   0.0000      -0.055106        -1.4995
  12   0.0000      -0.001510        -0.0411
  13   0.0000       0.042329         1.1518
  14   0.0000       0.062673         1.7054
  15   0.0000       0.079642         2.1672

----------------------------------------------------------------------------------------------------
          SPIN FLIP ABSORPTION SPECTRUM VIA TRANSITION ELECTRIC DIPOLE MOMENTS
----------------------------------------------------------------------------------------------------
     Transition      Energy     Energy  Wavelength fosc(D2)      D2        DX        DY        DZ
                      (eV)      (cm-1)    (nm)                 (au**2)    (au)      (au)      (au)
----------------------------------------------------------------------------------------------------
  1-3A  ->  2-3A    0.268570    2166.2  4616.5   0.000016253   0.00247  -0.00073  -0.03344   0.03676
  1-3A  ->  3-3A    1.079865    8709.7  1148.1   0.000623723   0.02358  -0.01926   0.08795   0.12438

Dispersion correction             ... done (  0.1 sec)

MULLIKEN ATOMIC CHARGES AND SPIN DENSITIES
------------------------------------------
   0 O :   -0.451330   -0.598958
   1 C :   -0.053928   -0.035063
   2 C :   -0.482153    0.635037
   3 H :    0.250207    0.018980
   4 H :    0.250144   -0.086125
   5 H :    0.216318    0.032280
   6 H :    0.270742    0.033848
Sum of atomic charges       :   -0.0000000

LOEWDIN ATOMIC CHARGES AND SPIN DENSITIES
-----------------------------------------
   0 O :   -0.037501   -0.585200
   1 C :   -0.262450   -0.018570
   2 C :    0.335757    0.543503
   3 H :   -0.019885    0.000788
   4 H :    0.039909   -0.052914
   5 H :   -0.001807    0.053302
   6 H :   -0.054023    0.059091

  Mayer bond orders larger than 0.100000
B(  0-O ,  1-C ) :   1.0185 B(  0-O ,  2-C ) :   0.2649 B(  1-C ,  2-C ) :   0.7532
B(  1-C ,  3-H ) :   0.9949 B(  1-C ,  4-H ) :   0.9050 B(  2-C ,  5-H ) :   0.9880
B(  2-C ,  6-H ) :   0.9528

Dispersion correction           -0.005530175
FINAL SINGLE POINT ENERGY      -153.751818834612

DIPOLE MOMENT
-------------

Method             : TDA/CIS
Type of density    : Electron Density
Level              : Relaxed density
State              :   1
Multiplicity       :   3
Irrep              :   0
Energy             :     0.0000000000000000 Eh
Relativity type    :
Basis              : AO
                                X                 Y                 Z
Electronic contribution:      1.481233049       0.359213021       1.068154901
Nuclear contribution   :     -2.407501603      -0.602247334      -1.880543410
                        -----------------------------------------
Total Dipole Moment    :     -0.926268554      -0.243034313      -0.812388509
                        -----------------------------------------
Magnitude (a.u.)       :      1.255792260
Magnitude (Debye)      :      3.191970255

Rotational constants in cm-1:             1.379287             0.352847             0.303398
Rotational constants in MHz :         41349.980478         10578.100185          9095.636363

                             ****ORCA TERMINATED NORMALLY****
TOTAL RUN TIME: 0 days 0 hours 0 minutes 27 seconds 233 msec
