                         Program Version 6.0.0  -   RELEASE  -
|  1> ! Engrad def2-TZVPPD wB97M-D3BJ
|  2> %pal nprocs 8 end%pal nprocs 32 end
|  3>  %tddft nroots 2 Iroot 1
|  4> sf true
|  5> end
|  6> *xyz 0 3
|  7> O   2.50046410662839 1.32957901346925 -0.16291263016785
|  8> O   -1.02713729457436 0.83578801647107 -2.5567063850874
|  9> O   0.46176812674059 -2.49170709417592 -1.54502689082874
| 10> O   -2.55082560483471 -1.53641593362747 1.01025801322679
| 11> N   0.54485530996055 -2.04164230714591 0.68508546411711
| 12> N   -1.76398673836207 0.57165315229607 1.34630842418392
| 13> N   1.53786897082516 -0.61245384879548 -0.82302651519099
| 14> N   -1.84607831614699 -0.2989642440189 -0.77657174561403
| 15> C   1.49198352437431 -0.01600327033637 1.51098881808887
| 16> C   -0.8684834610375 1.8843369534906 -0.43243668900439
| 17> C   0.84577281584219 -1.17150728612587 1.70571489104555
| 18> C   -1.11876013227 1.69057517056626 0.86651632589005
| 19> C   1.84094113623187 0.94276292479606 2.60241782536726
| 20> C   -0.17777982313808 3.08877568477607 -0.98257311634634
| 21> C   1.90074494460908 0.32136530541366 0.14647416837349
| 22> C   -1.23768753473428 0.81600437703269 -1.36503150584888
| 23> C   0.82229172918369 -1.77708199508932 -0.63832635355223
| 24> C   -2.09832459715764 -0.50404349282209 0.5591139000684
| 25> H   0.5106187138453 -1.48540884462625 2.68292157327828
| 26> H   -0.85389952919096 2.42104581966105 1.61530709677233
| 27> H   1.46104014931227 1.93754595890118 2.37528540560468
| 28> H   1.43226299634814 0.61335865234723 3.55539271194974
| 29> H   2.92034600852289 1.04165606590182 2.70191751871824
| 30> H   -0.78001979587386 3.5489438842647 -1.76311288024293
| 31> H   0.00634644677646 3.81808515793289 -0.19746021071997
| 32> H   0.7774251889172 2.8101508303294 -1.42219658458414
| 33> H   -0.07786484176786 -2.81447339418334 0.84579743815709
| 34> H   -1.91263671697616 0.44634182847852 2.33051305157733
| 35> H   1.73684014055177 -0.37134099773603 -1.78214261042874
| 36> H   -2.02548592260539 -1.08192608744557 -1.38788850880255
| 37> *
| 38>
| 39>                          ****END OF INPUT****

CARTESIAN COORDINATES (ANGSTROEM)
---------------------------------
  O      2.500464    1.329579   -0.162913
  O     -1.027137    0.835788   -2.556706
  O      0.461768   -2.491707   -1.545027
  O     -2.550826   -1.536416    1.010258
  N      0.544855   -2.041642    0.685085
  N     -1.763987    0.571653    1.346308
  N      1.537869   -0.612454   -0.823027
  N     -1.846078   -0.298964   -0.776572
  C      1.491984   -0.016003    1.510989
  C     -0.868483    1.884337   -0.432437
  C      0.845773   -1.171507    1.705715
  C     -1.118760    1.690575    0.866516
  C      1.840941    0.942763    2.602418
  C     -0.177780    3.088776   -0.982573
  C      1.900745    0.321365    0.146474
  C     -1.237688    0.816004   -1.365032
  C      0.822292   -1.777082   -0.638326
  C     -2.098325   -0.504043    0.559114
  H      0.510619   -1.485409    2.682922
  H     -0.853900    2.421046    1.615307
  H      1.461040    1.937546    2.375285
  H      1.432263    0.613359    3.555393
  H      2.920346    1.041656    2.701918
  H     -0.780020    3.548944   -1.763113
  H      0.006346    3.818085   -0.197460
  H      0.777425    2.810151   -1.422197
  H     -0.077865   -2.814473    0.845797
  H     -1.912637    0.446342    2.330513
  H      1.736840   -0.371341   -1.782143
  H     -2.025486   -1.081926   -1.387889

 Total Charge           Charge          ....    0
 Multiplicity           Mult            ....    3
 Number of Electrons    NEL             ....  132
 Basis Dimension        Dim             ....  882

ORBITAL ENERGIES
----------------
                 SPIN UP ORBITALS
  NO   OCC          E(Eh)            E(eV)
   0   1.0000     -19.334203      -526.1104
   1   1.0000     -19.326435      -525.8990
   2   1.0000     -19.322321      -525.7871
   3   1.0000     -19.320367      -525.7339
   4   1.0000     -14.595838      -397.1729
   5   1.0000     -14.583485      -396.8368
   6   1.0000     -14.568644      -396.4330
   7   1.0000     -14.553880      -396.0312
   8   1.0000     -10.513044      -286.0745
   9   1.0000     -10.511858      -286.0422
  10   1.0000     -10.475956      -285.0653
  11   1.0000     -10.461591      -284.6744
  12   1.0000     -10.429765      -283.8083
  13   1.0000     -10.411450      -283.3100
  14   1.0000     -10.399386      -282.9817
  15   1.0000     -10.377381      -282.3829
  16   1.0000     -10.376400      -282.3562
  17   1.0000     -10.346901      -281.5535
  18   1.0000      -1.229541       -33.4575
  19   1.0000      -1.224244       -33.3134
  20   1.0000      -1.192934       -32.4614
  21   1.0000      -1.191173       -32.4135
  22   1.0000      -1.127797       -30.6889
  23   1.0000      -1.122103       -30.5340
  24   1.0000      -1.068396       -29.0725
  25   1.0000      -1.063485       -28.9389
  26   1.0000      -0.979267       -26.6472
  27   1.0000      -0.954251       -25.9665
  28   1.0000      -0.862411       -23.4674
  29   1.0000      -0.844277       -22.9740
  30   1.0000      -0.813450       -22.1351
  31   1.0000      -0.807807       -21.9816
  32   1.0000      -0.792926       -21.5766
  33   1.0000      -0.791690       -21.5430
  34   1.0000      -0.704776       -19.1779
  35   1.0000      -0.694967       -18.9110
  36   1.0000      -0.693587       -18.8735
  37   1.0000      -0.689270       -18.7560
  38   1.0000      -0.644922       -17.5492
  39   1.0000      -0.640183       -17.4203
  40   1.0000      -0.632453       -17.2099
  41   1.0000      -0.599511       -16.3135
  42   1.0000      -0.596436       -16.2299
  43   1.0000      -0.595324       -16.1996
  44   1.0000      -0.575882       -15.6705
  45   1.0000      -0.572286       -15.5727
  46   1.0000      -0.566191       -15.4068
  47   1.0000      -0.557526       -15.1711
  48   1.0000      -0.552721       -15.0403
  49   1.0000      -0.547077       -14.8867
  50   1.0000      -0.535701       -14.5772
  51   1.0000      -0.525176       -14.2908
  52   1.0000      -0.515742       -14.0340
  53   1.0000      -0.514665       -14.0047
  54   1.0000      -0.512540       -13.9469
  55   1.0000      -0.495631       -13.4868
  56   1.0000      -0.492416       -13.3993
  57   1.0000      -0.477747       -13.0002
  58   1.0000      -0.421954       -11.4819
  59   1.0000      -0.418162       -11.3788
  60   1.0000      -0.407732       -11.0950
  61   1.0000      -0.402103       -10.9418
  62   1.0000      -0.389847       -10.6083
  63   1.0000      -0.389712       -10.6046
  64   1.0000      -0.384430       -10.4609
  65   1.0000      -0.346741        -9.4353
  66   1.0000      -0.210821        -5.7367
  67   0.0000       0.012463         0.3391
  68   0.0000       0.022728         0.6185
  69   0.0000       0.032985         0.8976
  70   0.0000       0.038693         1.0529
  71   0.0000       0.040852         1.1116

                 SPIN DOWN ORBITALS
  NO   OCC          E(Eh)            E(eV)
   0   1.0000     -19.332168      -526.0550
   1   1.0000     -19.326387      -525.8977
   2   1.0000     -19.320131      -525.7275
   3   1.0000     -19.316387      -525.6256
   4   1.0000     -14.590608      -397.0306
   5   1.0000     -14.583323      -396.8324
   6   1.0000     -14.568661      -396.4334
   7   1.0000     -14.553034      -396.0082
   8   1.0000     -10.513047      -286.0746
   9   1.0000     -10.512249      -286.0528
  10   1.0000     -10.475968      -285.0656
  11   1.0000     -10.461225      -284.6644
  12   1.0000     -10.429852      -283.8107
  13   1.0000     -10.401849      -283.0487
  14   1.0000     -10.389164      -282.7035
  15   1.0000     -10.377162      -282.3769
  16   1.0000     -10.376888      -282.3695
  17   1.0000     -10.346880      -281.5529
  18   1.0000      -1.226750       -33.3816
  19   1.0000      -1.222441       -33.2643
  20   1.0000      -1.190956       -32.4076
  21   1.0000      -1.183965       -32.2173
  22   1.0000      -1.122027       -30.5319
  23   1.0000      -1.116603       -30.3843
  24   1.0000      -1.068263       -29.0689
  25   1.0000      -1.058043       -28.7908
  26   1.0000      -0.955848       -26.0099
  27   1.0000      -0.953468       -25.9452
  28   1.0000      -0.851312       -23.1654
  29   1.0000      -0.844095       -22.9690
  30   1.0000      -0.807703       -21.9787
  31   1.0000      -0.802020       -21.8241
  32   1.0000      -0.792518       -21.5655
  33   1.0000      -0.785273       -21.3684
  34   1.0000      -0.693999       -18.8847
  35   1.0000      -0.692717       -18.8498
  36   1.0000      -0.689545       -18.7635
  37   1.0000      -0.685970       -18.6662
  38   1.0000      -0.640377       -17.4255
  39   1.0000      -0.633191       -17.2300
  40   1.0000      -0.626389       -17.0449
  41   1.0000      -0.595247       -16.1975
  42   1.0000      -0.589664       -16.0456
  43   1.0000      -0.587211       -15.9788
  44   1.0000      -0.566643       -15.4191
  45   1.0000      -0.566315       -15.4102
  46   1.0000      -0.556062       -15.1312
  47   1.0000      -0.549933       -14.9644
  48   1.0000      -0.547496       -14.8981
  49   1.0000      -0.545266       -14.8374
  50   1.0000      -0.527242       -14.3470
  51   1.0000      -0.517014       -14.0687
  52   1.0000      -0.512349       -13.9417
  53   1.0000      -0.509802       -13.8724
  54   1.0000      -0.502188       -13.6652
  55   1.0000      -0.494004       -13.4425
  56   1.0000      -0.475845       -12.9484
  57   1.0000      -0.447788       -12.1849
  58   1.0000      -0.418623       -11.3913
  59   1.0000      -0.416820       -11.3423
  60   1.0000      -0.401608       -10.9283
  61   1.0000      -0.384437       -10.4611
  62   1.0000      -0.383682       -10.4405
  63   1.0000      -0.381689       -10.3863
  64   1.0000      -0.344882        -9.3847
  65   0.0000      -0.108755        -2.9594
  66   0.0000       0.010826         0.2946
  67   0.0000       0.020998         0.5714
  68   0.0000       0.032319         0.8794
  69   0.0000       0.037774         1.0279

----------------------------------------------------------------------------------------------------
          SPIN FLIP ABSORPTION SPECTRUM VIA TRANSITION ELECTRIC DIPOLE MOMENTS
----------------------------------------------------------------------------------------------------
     Transition      Energy     Energy  Wavelength fosc(D2)      D2        DX        DY        DZ
                      (eV)      (cm-1)    (nm)                 (au**2)    (au)      (au)      (au)
----------------------------------------------------------------------------------------------------
  1-3A  ->  2-3A    4.243940   34229.7   292.1   0.001869771   0.01798  -0.05690  -0.10165   0.06643

Dispersion correction             ... done (  0.0 sec)

MULLIKEN ATOMIC CHARGES AND SPIN DENSITIES
------------------------------------------
   0 O :   -0.684824    0.036015
   1 O :   -0.663198    0.000506
   2 O :   -0.639000    0.007526
   3 O :   -0.671480    0.000166
   4 N :    0.013871    0.063294
   5 N :    0.027514    0.003859
   6 N :    0.071058    0.004589
   7 N :    0.058407    0.000415
   8 C :    1.106703    0.658805
   9 C :    0.884990    0.047747
  10 C :   -0.261571   -0.488484
  11 C :   -0.222042   -0.060331
  12 C :   -1.405642   -0.011698
  13 C :   -1.341081    0.004717
  14 C :    0.226578   -0.350815
  15 C :    0.348601   -0.001472
  16 C :    0.367434    0.023767
  17 C :    0.366019    0.004380
  18 H :    0.155246    0.030951
  19 H :    0.216521   -0.006922
  20 H :    0.269231    0.012422
  21 H :    0.337575    0.008852
  22 H :    0.338845    0.004910
  23 H :    0.349109   -0.000454
  24 H :    0.326576    0.000333
  25 H :    0.239368   -0.000817
  26 H :    0.059054    0.001599
  27 H :    0.039593    0.002582
  28 H :    0.043846    0.003439
  29 H :    0.042697    0.000120
Sum of atomic charges       :   -0.0000000

LOEWDIN ATOMIC CHARGES AND SPIN DENSITIES
-----------------------------------------
   0 O :    0.079225    0.028499
   1 O :    0.101713    0.000525
   2 O :    0.094649    0.006508
   3 O :    0.069209    0.000379
   4 N :    0.291850    0.025835
   5 N :    0.279644   -0.001671
   6 N :    0.345726    0.000211
   7 N :    0.343144    0.000013
   8 C :   -0.148641   -0.035670
   9 C :   -0.133132    0.000270
  10 C :    0.052354   -0.032393
  11 C :    0.046118   -0.000700
  12 C :    0.172024   -0.003797
  13 C :    0.181852    0.000248
  14 C :   -0.411336    0.010978
  15 C :   -0.394531    0.000185
  16 C :   -0.478392    0.000608
  17 C :   -0.490918   -0.000330
  18 H :    0.040354   -0.001929
  19 H :    0.034832   -0.000004
  20 H :   -0.012941   -0.000306
  21 H :   -0.006223    0.000284
  22 H :    0.002889   -0.000398
  23 H :    0.000432    0.000051
  24 H :   -0.003448    0.000020
  25 H :   -0.010896    0.000127
  26 H :   -0.016707    0.002338
  27 H :   -0.020247   -0.000067
  28 H :   -0.002253    0.000184
  29 H :   -0.006350    0.000003

  Mayer bond orders larger than 0.100000
B(  0-O , 14-C ) :   1.4138 B(  1-O , 15-C ) :   1.5103 B(  2-O , 16-C ) :   1.5546
B(  3-O , 17-C ) :   1.5342 B(  4-N , 10-C ) :   0.8505 B(  4-N , 16-C ) :   0.9964
B(  4-N , 26-H ) :   1.1134 B(  5-N , 10-C ) :   0.1056 B(  5-N , 11-C ) :   0.9593
B(  5-N , 17-C ) :   1.0013 B(  5-N , 27-H ) :   1.1230 B(  6-N , 14-C ) :   0.9839
B(  6-N , 15-C ) :   0.1413 B(  6-N , 16-C ) :   0.9213 B(  6-N , 28-H ) :   1.1121
B(  7-N , 15-C ) :   0.9016 B(  7-N , 16-C ) :   0.1180 B(  7-N , 17-C ) :   0.9514
B(  7-N , 29-H ) :   1.1046 B(  8-C , 10-C ) :   1.0326 B(  8-C , 12-C ) :   0.3201
B(  8-C , 14-C ) :   0.6254 B(  8-C , 18-H ) :  -0.1023 B(  8-C , 21-H ) :  -0.1031
B(  9-C , 11-C ) :   1.2054 B(  9-C , 13-C ) :   0.3783 B(  9-C , 15-C ) :   0.6620
B( 10-C , 12-C ) :  -0.1253 B( 10-C , 14-C ) :   0.1339 B( 10-C , 16-C ) :  -0.1325
B( 10-C , 18-H ) :   1.1481 B( 11-C , 13-C ) :  -0.1084 B( 11-C , 15-C ) :  -0.1044
B( 11-C , 19-H ) :   1.0583 B( 12-C , 20-H ) :   0.9603 B( 12-C , 21-H ) :   0.9894
B( 12-C , 22-H ) :   0.9564 B( 13-C , 23-H ) :   0.9215 B( 13-C , 24-H ) :   1.0071
B( 13-C , 25-H ) :   0.9705

Dispersion correction           -0.058980726
FINAL SINGLE POINT ENERGY      -908.927191242326

DIPOLE MOMENT
-------------

Method             : TDA/CIS
Type of density    : Electron Density
Level              : Relaxed density
State              :   1
Multiplicity       :   3
Irrep              :   0
Energy             :     0.0000000000000000 Eh
Relativity type    :
Basis              : AO
                                X                 Y                 Z
Electronic contribution:     -3.672936431      -9.186100240      -5.910815555
Nuclear contribution   :      3.483450382       9.668148434       8.408545749
                        -----------------------------------------
Total Dipole Moment    :     -0.189486049       0.482048194       2.497730194
                        -----------------------------------------
Magnitude (a.u.)       :      2.550868783
Magnitude (Debye)      :      6.483793170

Rotational constants in cm-1:             0.016817             0.015948             0.013960
Rotational constants in MHz :           504.173689           478.121600           418.522359

                             ****ORCA TERMINATED NORMALLY****
TOTAL RUN TIME: 0 days 0 hours 28 minutes 8 seconds 309 msec
