                         Program Version 6.0.0  -   RELEASE  -
|  1> ! Engrad def2-TZVPPD wB97M-D3BJ
|  2> %pal nprocs 8 end%pal nprocs 64 end
|  3> %tddft
|  4>  Iroot 2 Nroots 3
|  5> sf true
|  6> end
|  7> *xyz 0 3
|  8> O   1.21929177 0.88011602 0.34379
|  9> C   0.17166518 -0.0299983 0.544875
| 10> C   -0.22093898 -0.70231766 -0.70745289
| 11> H   -0.64842388 0.5123177 1.0898823
| 12> H   0.36666953 -0.88804355 1.10704031
| 13> H   -1.13730108 -0.62951601 -1.24248001
| 14> H   0.4172134 -1.30051619 -1.29889855
| 15> *
| 16>
| 17>                          ****END OF INPUT****

CARTESIAN COORDINATES (ANGSTROEM)
---------------------------------
  O      1.219292    0.880116    0.343790
  C      0.171665   -0.029998    0.544875
  C     -0.220939   -0.702318   -0.707453
  H     -0.648424    0.512318    1.089882
  H      0.366670   -0.888044    1.107040
  H     -1.137301   -0.629516   -1.242480
  H      0.417213   -1.300516   -1.298899

 Total Charge           Charge          ....    0
 Multiplicity           Mult            ....    3
 Number of Electrons    NEL             ....   24
 Basis Dimension        Dim             ....  182

ORBITAL ENERGIES
----------------
                 SPIN UP ORBITALS
  NO   OCC          E(Eh)            E(eV)
   0   1.0000     -19.393743      -527.7306
   1   1.0000     -10.413022      -283.3527
   2   1.0000     -10.363155      -281.9958
   3   1.0000      -1.159720       -31.5576
   4   1.0000      -0.889305       -24.1992
   5   1.0000      -0.745692       -20.2913
   6   1.0000      -0.615021       -16.7356
   7   1.0000      -0.585286       -15.9264
   8   1.0000      -0.562615       -15.3095
   9   1.0000      -0.508920       -13.8484
  10   1.0000      -0.443277       -12.0622
  11   1.0000      -0.418827       -11.3969
  12   1.0000      -0.325092        -8.8462
  13   0.0000       0.040827         1.1110
  14   0.0000       0.060935         1.6581
  15   0.0000       0.078686         2.1412
  16   0.0000       0.088187         2.3997
  17   0.0000       0.113767         3.0958

                 SPIN DOWN ORBITALS
  NO   OCC          E(Eh)            E(eV)
   0   1.0000     -19.369044      -527.0585
   1   1.0000     -10.414197      -283.3847
   2   1.0000     -10.349598      -281.6269
   3   1.0000      -1.102586       -30.0029
   4   1.0000      -0.856050       -23.2943
   5   1.0000      -0.719479       -19.5780
   6   1.0000      -0.589776       -16.0486
   7   1.0000      -0.549084       -14.9413
   8   1.0000      -0.534877       -14.5547
   9   1.0000      -0.476606       -12.9691
  10   1.0000      -0.387534       -10.5453
  11   0.0000      -0.058117        -1.5814
  12   0.0000      -0.000379        -0.0103
  13   0.0000       0.039549         1.0762
  14   0.0000       0.061267         1.6672
  15   0.0000       0.078816         2.1447

----------------------------------------------------------------------------------------------------
          SPIN FLIP ABSORPTION SPECTRUM VIA TRANSITION ELECTRIC DIPOLE MOMENTS
----------------------------------------------------------------------------------------------------
     Transition      Energy     Energy  Wavelength fosc(D2)      D2        DX        DY        DZ
                      (eV)      (cm-1)    (nm)                 (au**2)    (au)      (au)      (au)
----------------------------------------------------------------------------------------------------
  1-3A  ->  2-3A    0.306323    2470.7  4047.5   0.000029163   0.00389  -0.04336   0.04474  -0.00197
  1-3A  ->  3-1A    1.126945    9089.4  1100.2   0.065164683   2.36022  -0.88222  -1.04063  -0.70640

Dispersion correction             ... done (  0.1 sec)

MULLIKEN ATOMIC CHARGES AND SPIN DENSITIES
------------------------------------------
   0 O :   -0.312687    0.814740
   1 C :   -0.112336    0.025353
   2 C :   -0.261441   -0.762716
   3 H :    0.209247    0.019729
   4 H :    0.174017   -0.013831
   5 H :    0.147660   -0.023273
   6 H :    0.155538   -0.060001
Sum of atomic charges       :   -0.0000000

LOEWDIN ATOMIC CHARGES AND SPIN DENSITIES
-----------------------------------------
   0 O :    0.056299    0.762161
   1 C :   -0.212835   -0.009044
   2 C :    0.300795   -0.604830
   3 H :    0.055055    0.021971
   4 H :   -0.024095    0.002180
   5 H :   -0.088523   -0.088445
   6 H :   -0.086696   -0.083993

  Mayer bond orders larger than 0.100000
B(  0-O ,  1-C ) :   0.9460 B(  1-C ,  2-C ) :   0.8708 B(  1-C ,  3-H ) :   0.9745
B(  1-C ,  4-H ) :   0.9332 B(  2-C ,  5-H ) :   1.0265 B(  2-C ,  6-H ) :   1.0251

Dispersion correction           -0.005497422
FINAL SINGLE POINT ENERGY      -153.736936905163

DIPOLE MOMENT
-------------

Method             : TDA/CIS
Type of density    : Electron Density
Level              : Relaxed density
State              :   2
Multiplicity       :   3
Irrep              :   0
Energy             :     0.0000000000000000 Eh
Relativity type    :
Basis              : AO
                                X                 Y                 Z
Electronic contribution:      1.956143185       1.926113624       0.786166563
Nuclear contribution   :     -2.453206583      -2.403415379      -0.591776944
                        -----------------------------------------
Total Dipole Moment    :     -0.497063398      -0.477301755       0.194389618
                        -----------------------------------------
Magnitude (a.u.)       :      0.716014183
Magnitude (Debye)      :      1.819963419

Rotational constants in cm-1:             1.410820             0.349046             0.305595
Rotational constants in MHz :         42295.333086         10464.122615          9161.505199

                             ****ORCA TERMINATED NORMALLY****
TOTAL RUN TIME: 0 days 0 hours 0 minutes 28 seconds 58 msec
