                         Program Version 6.0.0  -   RELEASE  -
|  1> ! Opt wB97M-D3BJ def2-TZVPPD
|  2> %pal nprocs 8 end %pal nprocs 64 end
|  3> %geom
|  4> Constraints
|  5>     {A 2 1 0 125.59322033898304 C }
|  6> end
|  7> MaxIter 200
|  8> end
|  9> *xyz 0 1
| 10> O   1.5843494217429424 0.7597456779754236 0.0
| 11> C   0.7509 -0.4065 0.0
| 12> C   -0.7502 -0.4076 0.0
| 13> H   1.2625 -0.6786 0.9136
| 14> H   1.2625 -0.6787 -0.9136
| 15> H   -1.2614 -0.6806 -0.9136
| 16> H   -1.2614 -0.6805 0.9136
| 17> *
| 18>
| 19>                          ****END OF INPUT****
 Total Charge           Charge          ....    0
 Multiplicity           Mult            ....    1
 Number of Electrons    NEL             ....   24
Dispersion correction           -0.005364546
FINAL SINGLE POINT ENERGY      -153.694214813677
Dispersion correction             ... done (  0.1 sec)
Dispersion correction           -0.005429952
FINAL SINGLE POINT ENERGY      -153.711003399632
Dispersion correction             ... done (  0.1 sec)
Dispersion correction           -0.005494201
FINAL SINGLE POINT ENERGY      -153.720629114261
Dispersion correction             ... done (  0.1 sec)
FINAL SINGLE POINT ENERGY      -153.728376224062
FINAL SINGLE POINT ENERGY      -153.741512834503
FINAL SINGLE POINT ENERGY      -153.767179765486
FINAL SINGLE POINT ENERGY      -153.804119822669
FINAL SINGLE POINT ENERGY      -153.833865076181
FINAL SINGLE POINT ENERGY      -153.856507213457
FINAL SINGLE POINT ENERGY      -153.883883860791
FINAL SINGLE POINT ENERGY      -153.931454574191
FINAL SINGLE POINT ENERGY      -153.931490328036
FINAL SINGLE POINT ENERGY      -153.931521188425
FINAL SINGLE POINT ENERGY      -153.931565783603
FINAL SINGLE POINT ENERGY      -153.931652306652
FINAL SINGLE POINT ENERGY      -153.931774896516
FINAL SINGLE POINT ENERGY      -153.931880664626
Dispersion correction             ... done (  0.1 sec)
Dispersion correction           -0.005534461
FINAL SINGLE POINT ENERGY      -153.931922629207
Dispersion correction             ... done (  0.1 sec)
Dispersion correction           -0.005533878
FINAL SINGLE POINT ENERGY      -153.931924253819
Dispersion correction             ... done (  0.1 sec)
                    ***********************HURRAY********************

CARTESIAN COORDINATES (ANGSTROEM)
---------------------------------
  O      1.340544    1.063219   -0.086485
  C      0.928088   -0.005853    0.274970
  C     -0.315405   -0.676046   -0.226240
  H      1.485243   -0.577644    1.043078
  H     -0.053745   -1.647743   -0.646356
  H     -0.813058   -0.065426   -0.973437
  H     -0.984418   -0.863261    0.614469

 Multiplicity           Mult            ....    1
 Number of Electrons    NEL             ....   24
 Basis Dimension        Dim             ....  182

ORBITAL ENERGIES
----------------

  NO   OCC          E(Eh)            E(eV)
   0   2.0000     -19.339415      -526.2522
   1   2.0000     -10.443007      -284.1687
   2   2.0000     -10.357562      -281.8436
   3   2.0000      -1.188282       -32.3348
   4   2.0000      -0.884641       -24.0723
   5   2.0000      -0.702364       -19.1123
   6   2.0000      -0.598171       -16.2770
   7   2.0000      -0.561071       -15.2675
   8   2.0000      -0.554300       -15.0833
   9   2.0000      -0.508418       -13.8348
  10   2.0000      -0.476332       -12.9617
  11   2.0000      -0.368382       -10.0242
  12   0.0000       0.037483         1.0200
  13   0.0000       0.054849         1.4925
  14   0.0000       0.059203         1.6110
  15   0.0000       0.083253         2.2654
  16   0.0000       0.086208         2.3458

MULLIKEN ATOMIC CHARGES
-----------------------
   0 O :   -0.475163
   1 C :    0.235265
   2 C :   -0.696353
   3 H :    0.240410
   4 H :    0.226948
   5 H :    0.242040
   6 H :    0.226853
Sum of atomic charges:   -0.0000000

LOEWDIN ATOMIC CHARGES
----------------------
   0 O :    0.068975
   1 C :   -0.230464
   2 C :    0.168906
   3 H :    0.023122
   4 H :   -0.010964
   5 H :   -0.008695
   6 H :   -0.010879

  Mayer bond orders larger than 0.100000
B(  0-O ,  1-C ) :   1.7701 B(  1-C ,  2-C ) :   0.7569 B(  1-C ,  3-H ) :   0.9866
B(  2-C ,  4-H ) :   0.9930 B(  2-C ,  5-H ) :   0.9569 B(  2-C ,  6-H ) :   0.9929

Dispersion correction           -0.005533850
FINAL SINGLE POINT ENERGY      -153.931924357407

DIPOLE MOMENT
-------------

Method             : SCF
Type of density    : Electron Density
Multiplicity       :   1
Irrep              :   0
Energy             :  -153.9263905073431147 Eh
Relativity type    :
Basis              : AO
                                X                 Y                 Z
Electronic contribution:      2.221583195       2.446046975       0.116774414
Nuclear contribution   :     -2.755545979      -3.425768167       0.099164989
                        -----------------------------------------
Total Dipole Moment    :     -0.533962785      -0.979721192       0.215939404
                        -----------------------------------------
Magnitude (a.u.)       :      1.136485678
Magnitude (Debye)      :      2.888717023

Rotational constants in cm-1:             1.944019             0.338197             0.304172
Rotational constants in MHz :         58280.236791         10138.882095          9118.849265

                             ****ORCA TERMINATED NORMALLY****
TOTAL RUN TIME: 0 days 0 hours 6 minutes 36 seconds 535 msec
