                         Program Version 6.0.0  -   RELEASE  -
|  1> ! Engrad def2-TZVPPD wB97M-D3BJ
|  2> %pal nprocs 8 end%pal nprocs 64 end
|  3> %tddft Nroots 2 Iroot 2
|  4> sf true
|  5> end
|  6> *xyz 0 3
|  7> O   3.27219929 0.28496953 -0.91831515
|  8> O   -0.77124338 1.63096625 -2.32466978
|  9> O   0.39948712 -3.07290238 -0.22204893
| 10> O   -2.95527346 -1.85005052 -0.50185953
| 11> N   0.37546952 -1.37734776 1.28188431
| 12> N   -2.15925608 -0.25844815 0.91323374
| 13> N   1.53130166 -1.16779343 -0.73422628
| 14> N   -1.53359776 -0.26441608 -1.31346906
| 15> C   1.85362236 0.49958567 0.95249745
| 16> C   -0.98664867 1.63821862 0.02997069
| 17> C   0.40600222 0.02399152 1.54554319
| 18> C   -1.16459714 0.72836836 1.1915129
| 19> C   2.5908166 1.55446555 1.65478193
| 20> C   -0.74439595 3.07825241 0.20758745
| 21> C   2.29628325 -0.0818185 -0.28275581
| 22> C   -1.07115382 1.05088425 -1.29872243
| 23> C   0.73690088 -1.953954 0.07710786
| 24> C   -2.26787863 -0.87791453 -0.30354068
| 25> H   0.47135439 0.16011625 2.6171664
| 26> H   -1.44640759 1.28162762 2.07862795
| 27> H   3.58358444 1.67425241 1.23706393
| 28> H   2.06799611 2.50958502 1.57085346
| 29> H   2.64490402 1.33864404 2.71621141
| 30> H   -1.59990022 3.5509378 0.68323116
| 31> H   0.09896806 3.25222706 0.86605205
| 32> H   -0.55497946 3.54896285 -0.74986331
| 33> H   -0.22209272 -1.98647438 1.81393381
| 34> H   -2.67148001 -0.70249325 1.65867765
| 35> H   1.86742219 -1.63002155 -1.5735179
| 36> H   -1.62401823 -0.69730645 -2.22428738
| 37> *
| 38>
| 39>                          ****END OF INPUT****

CARTESIAN COORDINATES (ANGSTROEM)
---------------------------------
  O      3.272199    0.284970   -0.918315
  O     -0.771243    1.630966   -2.324670
  O      0.399487   -3.072902   -0.222049
  O     -2.955273   -1.850051   -0.501860
  N      0.375470   -1.377348    1.281884
  N     -2.159256   -0.258448    0.913234
  N      1.531302   -1.167793   -0.734226
  N     -1.533598   -0.264416   -1.313469
  C      1.853622    0.499586    0.952497
  C     -0.986649    1.638219    0.029971
  C      0.406002    0.023992    1.545543
  C     -1.164597    0.728368    1.191513
  C      2.590817    1.554466    1.654782
  C     -0.744396    3.078252    0.207587
  C      2.296283   -0.081818   -0.282756
  C     -1.071154    1.050884   -1.298722
  C      0.736901   -1.953954    0.077108
  C     -2.267879   -0.877915   -0.303541
  H      0.471354    0.160116    2.617166
  H     -1.446408    1.281628    2.078628
  H      3.583584    1.674252    1.237064
  H      2.067996    2.509585    1.570853
  H      2.644904    1.338644    2.716211
  H     -1.599900    3.550938    0.683231
  H      0.098968    3.252227    0.866052
  H     -0.554979    3.548963   -0.749863
  H     -0.222093   -1.986474    1.813934
  H     -2.671480   -0.702493    1.658678
  H      1.867422   -1.630022   -1.573518
  H     -1.624018   -0.697306   -2.224287

 Total Charge           Charge          ....    0
 Multiplicity           Mult            ....    3
 Number of Electrons    NEL             ....  132
 Basis Dimension        Dim             ....  882

ORBITAL ENERGIES
----------------
                 SPIN UP ORBITALS
  NO   OCC          E(Eh)            E(eV)
   0   1.0000     -19.335625      -526.1491
   1   1.0000     -19.330431      -526.0078
   2   1.0000     -19.317166      -525.6468
   3   1.0000     -19.315084      -525.5902
   4   1.0000     -14.565025      -396.3345
   5   1.0000     -14.558256      -396.1503
   6   1.0000     -14.557850      -396.1392
   7   1.0000     -14.556062      -396.0906
   8   1.0000     -10.502206      -285.7796
   9   1.0000     -10.498675      -285.6835
  10   1.0000     -10.480065      -285.1771
  11   1.0000     -10.476445      -285.0786
  12   1.0000     -10.451573      -284.4018
  13   1.0000     -10.447974      -284.3038
  14   1.0000     -10.429127      -283.7910
  15   1.0000     -10.410306      -283.2788
  16   1.0000     -10.374487      -282.3042
  17   1.0000     -10.369726      -282.1746
  18   1.0000      -1.219018       -33.1712
  19   1.0000      -1.214871       -33.0583
  20   1.0000      -1.195025       -32.5183
  21   1.0000      -1.193661       -32.4812
  22   1.0000      -1.114692       -30.3323
  23   1.0000      -1.096317       -29.8323
  24   1.0000      -1.063072       -28.9277
  25   1.0000      -1.053461       -28.6661
  26   1.0000      -0.969933       -26.3932
  27   1.0000      -0.953493       -25.9459
  28   1.0000      -0.876853       -23.8604
  29   1.0000      -0.840337       -22.8667
  30   1.0000      -0.828467       -22.5437
  31   1.0000      -0.805464       -21.9178
  32   1.0000      -0.783628       -21.3236
  33   1.0000      -0.773043       -21.0356
  34   1.0000      -0.696669       -18.9573
  35   1.0000      -0.691096       -18.8057
  36   1.0000      -0.681892       -18.5552
  37   1.0000      -0.657865       -17.9014
  38   1.0000      -0.646951       -17.6044
  39   1.0000      -0.644114       -17.5272
  40   1.0000      -0.616598       -16.7785
  41   1.0000      -0.601753       -16.3745
  42   1.0000      -0.591715       -16.1014
  43   1.0000      -0.585438       -15.9306
  44   1.0000      -0.579624       -15.7724
  45   1.0000      -0.568018       -15.4566
  46   1.0000      -0.561474       -15.2785
  47   1.0000      -0.558099       -15.1867
  48   1.0000      -0.554596       -15.0913
  49   1.0000      -0.552872       -15.0444
  50   1.0000      -0.545360       -14.8400
  51   1.0000      -0.539659       -14.6849
  52   1.0000      -0.535249       -14.5649
  53   1.0000      -0.524872       -14.2825
  54   1.0000      -0.516600       -14.0574
  55   1.0000      -0.505149       -13.7458
  56   1.0000      -0.486603       -13.2411
  57   1.0000      -0.421822       -11.4783
  58   1.0000      -0.416887       -11.3441
  59   1.0000      -0.410108       -11.1596
  60   1.0000      -0.406500       -11.0614
  61   1.0000      -0.394220       -10.7273
  62   1.0000      -0.391557       -10.6548
  63   1.0000      -0.387908       -10.5555
  64   1.0000      -0.379251       -10.3199
  65   1.0000      -0.339084        -9.2269
  66   1.0000      -0.322347        -8.7715
  67   0.0000       0.006474         0.1762
  68   0.0000       0.028309         0.7703
  69   0.0000       0.032005         0.8709
  70   0.0000       0.039496         1.0747
  71   0.0000       0.056125         1.5272

                 SPIN DOWN ORBITALS
  NO   OCC          E(Eh)            E(eV)
   0   1.0000     -19.330540      -526.0107
   1   1.0000     -19.325960      -525.8861
   2   1.0000     -19.316984      -525.6418
   3   1.0000     -19.314767      -525.5815
   4   1.0000     -14.564599      -396.3229
   5   1.0000     -14.557860      -396.1395
   6   1.0000     -14.557546      -396.1310
   7   1.0000     -14.555443      -396.0737
   8   1.0000     -10.502240      -285.7805
   9   1.0000     -10.498704      -285.6843
  10   1.0000     -10.481166      -285.2070
  11   1.0000     -10.477408      -285.1048
  12   1.0000     -10.450811      -284.3810
  13   1.0000     -10.448174      -284.3093
  14   1.0000     -10.417676      -283.4794
  15   1.0000     -10.399131      -282.9747
  16   1.0000     -10.375032      -282.3190
  17   1.0000     -10.370295      -282.1901
  18   1.0000      -1.217375       -33.1265
  19   1.0000      -1.212832       -33.0028
  20   1.0000      -1.189167       -32.3589
  21   1.0000      -1.188295       -32.3352
  22   1.0000      -1.112488       -30.2724
  23   1.0000      -1.093916       -29.7670
  24   1.0000      -1.061330       -28.8803
  25   1.0000      -1.051920       -28.6242
  26   1.0000      -0.955357       -25.9966
  27   1.0000      -0.936935       -25.4953
  28   1.0000      -0.873285       -23.7633
  29   1.0000      -0.834977       -22.7209
  30   1.0000      -0.819548       -22.3010
  31   1.0000      -0.800004       -21.7692
  32   1.0000      -0.782396       -21.2901
  33   1.0000      -0.771455       -20.9924
  34   1.0000      -0.690771       -18.7968
  35   1.0000      -0.685060       -18.6414
  36   1.0000      -0.677094       -18.4247
  37   1.0000      -0.651948       -17.7404
  38   1.0000      -0.641191       -17.4477
  39   1.0000      -0.635366       -17.2892
  40   1.0000      -0.614465       -16.7205
  41   1.0000      -0.596798       -16.2397
  42   1.0000      -0.583940       -15.8898
  43   1.0000      -0.575795       -15.6682
  44   1.0000      -0.567733       -15.4488
  45   1.0000      -0.563441       -15.3320
  46   1.0000      -0.557331       -15.1658
  47   1.0000      -0.554554       -15.0902
  48   1.0000      -0.546229       -14.8636
  49   1.0000      -0.541464       -14.7340
  50   1.0000      -0.539988       -14.6938
  51   1.0000      -0.533284       -14.5114
  52   1.0000      -0.528861       -14.3910
  53   1.0000      -0.513746       -13.9797
  54   1.0000      -0.504228       -13.7208
  55   1.0000      -0.500366       -13.6156
  56   1.0000      -0.480527       -13.0758
  57   1.0000      -0.416723       -11.3396
  58   1.0000      -0.412792       -11.2326
  59   1.0000      -0.402795       -10.9606
  60   1.0000      -0.393477       -10.7070
  61   1.0000      -0.386102       -10.5064
  62   1.0000      -0.383641       -10.4394
  63   1.0000      -0.380049       -10.3417
  64   1.0000      -0.365876        -9.9560
  65   0.0000      -0.060120        -1.6359
  66   0.0000      -0.048233        -1.3125
  67   0.0000       0.006066         0.1651
  68   0.0000       0.028079         0.7641
  69   0.0000       0.031696         0.8625

----------------------------------------------------------------------------------------------------
          SPIN FLIP ABSORPTION SPECTRUM VIA TRANSITION ELECTRIC DIPOLE MOMENTS
----------------------------------------------------------------------------------------------------
     Transition      Energy     Energy  Wavelength fosc(D2)      D2        DX        DY        DZ
                      (eV)      (cm-1)    (nm)                 (au**2)    (au)      (au)      (au)
----------------------------------------------------------------------------------------------------
  1-3A  ->  2-3A    0.049479     399.1  25058.0   0.000000157   0.00013  -0.01120   0.00145   0.00128

Dispersion correction             ... done (  0.1 sec)

MULLIKEN ATOMIC CHARGES AND SPIN DENSITIES
------------------------------------------
   0 O :   -0.679353   -0.181330
   1 O :   -0.674995    0.159289
   2 O :   -0.646016   -0.007361
   3 O :   -0.643878    0.000603
   4 N :   -0.275928    0.006671
   5 N :   -0.275560    0.007828
   6 N :    0.076750   -0.010231
   7 N :    0.053867    0.022767
   8 C :    1.409860    0.390696
   9 C :   -0.226001    0.359559
  10 C :   -0.336890   -0.392020
  11 C :    0.599241    0.094678
  12 C :   -1.229458    0.005257
  13 C :   -1.140332    0.014177
  14 C :   -0.349970   -0.661861
  15 C :    0.536441    0.129719
  16 C :    0.386648    0.042295
  17 C :    0.350103   -0.006878
  18 H :    0.529394   -0.028406
  19 H :    0.572297    0.008857
  20 H :    0.310070   -0.015874
  21 H :    0.258668    0.008744
  22 H :    0.328393    0.002288
  23 H :    0.310388    0.023345
  24 H :    0.229435    0.015362
  25 H :    0.302741    0.010163
  26 H :    0.073387   -0.000325
  27 H :    0.053233   -0.000345
  28 H :    0.063899    0.004103
  29 H :    0.033566   -0.001772
Sum of atomic charges       :    0.0000000

LOEWDIN ATOMIC CHARGES AND SPIN DENSITIES
-----------------------------------------
   0 O :    0.082074   -0.164433
   1 O :    0.097248    0.142322
   2 O :    0.096562   -0.006786
   3 O :    0.099283    0.000706
   4 N :    0.240447    0.000196
   5 N :    0.265542    0.001266
   6 N :    0.316803   -0.013269
   7 N :    0.325148    0.015966
   8 C :    0.044481   -0.488481
   9 C :   -0.049421    0.479889
  10 C :   -0.005654    0.021541
  11 C :   -0.061221    0.028174
  12 C :    0.179936   -0.081055
  13 C :    0.197154    0.074158
  14 C :   -0.424696   -0.094638
  15 C :   -0.398557    0.080320
  16 C :   -0.499059    0.000516
  17 C :   -0.491762   -0.000133
  18 H :    0.015809    0.003912
  19 H :    0.039186    0.001032
  20 H :    0.002140    0.000587
  21 H :   -0.003589   -0.024835
  22 H :    0.003097   -0.015805
  23 H :    0.006634    0.022237
  24 H :   -0.019448    0.017473
  25 H :   -0.000502   -0.001318
  26 H :   -0.030181   -0.000142
  27 H :   -0.022651    0.000234
  28 H :   -0.002164   -0.000971
  29 H :   -0.002639    0.001336

  Mayer bond orders larger than 0.100000
B(  0-O , 14-C ) :   1.3508 B(  1-O , 15-C ) :   1.3879 B(  2-O , 16-C ) :   1.5065
B(  3-O , 17-C ) :   1.5350 B(  4-N ,  5-N ) :   0.1286 B(  4-N ,  8-C ) :   0.1713
B(  4-N , 10-C ) :   0.3416 B(  4-N , 16-C ) :   1.0483 B(  4-N , 26-H ) :   1.0790
B(  5-N ,  9-C ) :   0.3520 B(  5-N , 11-C ) :   0.1646 B(  5-N , 17-C ) :   1.1405
B(  5-N , 27-H ) :   1.0844 B(  6-N , 14-C ) :   1.0340 B(  6-N , 16-C ) :   0.9823
B(  6-N , 28-H ) :   1.0669 B(  7-N , 11-C ) :   0.1255 B(  7-N , 15-C ) :   1.0439
B(  7-N , 17-C ) :   0.9442 B(  7-N , 29-H ) :   1.0889 B(  8-C , 12-C ) :   0.4998
B(  8-C , 14-C ) :   0.2144 B(  8-C , 18-H ) :  -0.1045 B(  8-C , 20-H ) :  -0.1061
B(  9-C , 10-C ) :   0.4165 B(  9-C , 11-C ) :  -0.2352 B(  9-C , 13-C ) :   0.6971
B(  9-C , 15-C ) :   0.7882 B(  9-C , 19-H ) :  -0.1189 B(  9-C , 25-H ) :  -0.1062
B( 10-C , 11-C ) :   0.4824 B( 10-C , 14-C ) :   0.3060 B( 10-C , 16-C ) :  -0.1194
B( 10-C , 18-H ) :   0.7623 B( 11-C , 15-C ) :  -0.1386 B( 11-C , 17-C ) :  -0.2206
B( 11-C , 19-H ) :   0.7621 B( 12-C , 20-H ) :   1.0097 B( 12-C , 21-H ) :   0.8900
B( 12-C , 22-H ) :   0.9454 B( 13-C , 23-H ) :   0.9482 B( 13-C , 24-H ) :   0.8516
B( 13-C , 25-H ) :   1.0051 B( 14-C , 16-C ) :  -0.1156

Dispersion correction           -0.057150105
FINAL SINGLE POINT ENERGY      -908.778793079001

DIPOLE MOMENT
-------------

Method             : TDA/CIS
Type of density    : Electron Density
Level              : Relaxed density
State              :   2
Multiplicity       :   3
Irrep              :   0
Energy             :     0.0000000000000000 Eh
Relativity type    :
Basis              : AO
                                X                 Y                 Z
Electronic contribution:     -2.878363725     -10.259874339      -7.326604444
Nuclear contribution   :      2.598251092      11.959340556      10.213067678
                        -----------------------------------------
Total Dipole Moment    :     -0.280112634       1.699466217       2.886463234
                        -----------------------------------------
Magnitude (a.u.)       :      3.361297147
Magnitude (Debye)      :      8.543738366

Rotational constants in cm-1:             0.018616             0.014876             0.011849
Rotational constants in MHz :           558.103601           445.972608           355.219175

                             ****ORCA TERMINATED NORMALLY****
TOTAL RUN TIME: 0 days 0 hours 4 minutes 30 seconds 502 msec
