                         Program Version 6.0.0  -   RELEASE  -
|  1> ! Engrad def2-TZVPPD wB97M-D3BJ
|  2> %pal nprocs 8 end%pal nprocs 32 end
|  3>  %tddft nroots 2 Iroot 2
|  4> sf true
|  5> end
|  6> *xyz 0 3
|  7> O   2.69765302571724 1.12958152077685 -0.6130554669982
|  8> O   -0.49198081448009 0.82876991165132 -2.15882587904987
|  9> O   0.7658382741726 -2.88606168806431 -1.50505925439342
| 10> O   -2.62969019100667 -1.6528373528313 0.98538134363131
| 11> N   0.60189052548303 -2.04073793224343 0.60313191440926
| 12> N   -2.13081130133764 0.51948359846601 1.45386460617076
| 13> N   1.80206580547429 -0.91413514314392 -1.0075149991457
| 14> N   -1.64460810178582 -0.35737112145169 -0.61449420049065
| 15> C   1.39396395129728 0.15291300968231 1.11066396525547
| 16> C   -0.81511841952844 1.83166053671559 -0.03028383169085
| 17> C   0.75238975833429 -0.97216034891937 1.4548232022284
| 18> C   -1.48157889729475 1.68810969934735 1.11896721654994
| 19> C   1.65083723855256 1.27506432769523 2.06432927520675
| 20> C   -0.08585571012415 3.07572380599526 -0.42482599029261
| 21> C   2.02579786384711 0.20453282831515 -0.20897220354405
| 22> C   -0.94205885877046 0.77459673219145 -1.03656386418841
| 23> C   1.03516912588869 -2.01837083419749 -0.7057410634005
| 24> C   -2.17403988498794 -0.58466664991458 0.6332458951379
| 25> H   0.30847678114532 -1.10360802184486 2.4300244919893
| 26> H   -1.49887271375001 2.45786452586549 1.87517529563093
| 27> H   1.40664912463603 2.23383822161164 1.61653985898753
| 28> H   1.06490919859516 1.14756364423156 2.97244405569775
| 29> H   2.70493317846267 1.31248165129425 2.33490561896434
| 30> H   -0.5230683492283 3.50200949019716 -1.32556987176274
| 31> H   -0.12710005621746 3.8155952594396 0.37161040683436
| 32> H   0.95501086582059 2.85203373909554 -0.64980184119852
| 33> H   -0.03905615172583 -2.7813799211642 0.83176686475706
| 34> H   -2.55649741561678 0.40225830969144 2.35529799285264
| 35> H   2.11221657907186 -0.84736552039577 -1.96442474675277
| 36> H   -1.68486443064437 -1.13038627809227 -1.26243879139543
| 37> *
| 38>
| 39>                          ****END OF INPUT****

CARTESIAN COORDINATES (ANGSTROEM)
---------------------------------
  O      2.697653    1.129582   -0.613055
  O     -0.491981    0.828770   -2.158826
  O      0.765838   -2.886062   -1.505059
  O     -2.629690   -1.652837    0.985381
  N      0.601891   -2.040738    0.603132
  N     -2.130811    0.519484    1.453865
  N      1.802066   -0.914135   -1.007515
  N     -1.644608   -0.357371   -0.614494
  C      1.393964    0.152913    1.110664
  C     -0.815118    1.831661   -0.030284
  C      0.752390   -0.972160    1.454823
  C     -1.481579    1.688110    1.118967
  C      1.650837    1.275064    2.064329
  C     -0.085856    3.075724   -0.424826
  C      2.025798    0.204533   -0.208972
  C     -0.942059    0.774597   -1.036564
  C      1.035169   -2.018371   -0.705741
  C     -2.174040   -0.584667    0.633246
  H      0.308477   -1.103608    2.430024
  H     -1.498873    2.457865    1.875175
  H      1.406649    2.233838    1.616540
  H      1.064909    1.147564    2.972444
  H      2.704933    1.312482    2.334906
  H     -0.523068    3.502009   -1.325570
  H     -0.127100    3.815595    0.371610
  H      0.955011    2.852034   -0.649802
  H     -0.039056   -2.781380    0.831767
  H     -2.556497    0.402258    2.355298
  H      2.112217   -0.847366   -1.964425
  H     -1.684864   -1.130386   -1.262439

 Total Charge           Charge          ....    0
 Multiplicity           Mult            ....    3
 Number of Electrons    NEL             ....  132
 Basis Dimension        Dim             ....  882

ORBITAL ENERGIES
----------------
                 SPIN UP ORBITALS
  NO   OCC          E(Eh)            E(eV)
   0   1.0000     -19.331089      -526.0257
   1   1.0000     -19.330008      -525.9963
   2   1.0000     -19.324235      -525.8392
   3   1.0000     -19.317298      -525.6504
   4   1.0000     -14.592105      -397.0714
   5   1.0000     -14.584880      -396.8747
   6   1.0000     -14.572195      -396.5296
   7   1.0000     -14.547895      -395.8684
   8   1.0000     -10.516228      -286.1611
   9   1.0000     -10.508119      -285.9405
  10   1.0000     -10.480283      -285.1830
  11   1.0000     -10.455584      -284.5109
  12   1.0000     -10.434157      -283.9278
  13   1.0000     -10.407504      -283.2026
  14   1.0000     -10.396705      -282.9087
  15   1.0000     -10.383103      -282.5386
  16   1.0000     -10.370121      -282.1853
  17   1.0000     -10.352179      -281.6971
  18   1.0000      -1.229470       -33.4556
  19   1.0000      -1.223976       -33.3061
  20   1.0000      -1.195464       -32.5302
  21   1.0000      -1.187981       -32.3266
  22   1.0000      -1.125503       -30.6265
  23   1.0000      -1.123828       -30.5809
  24   1.0000      -1.072339       -29.1798
  25   1.0000      -1.059004       -28.8170
  26   1.0000      -0.975993       -26.5581
  27   1.0000      -0.958560       -26.0837
  28   1.0000      -0.857267       -23.3274
  29   1.0000      -0.848984       -23.1020
  30   1.0000      -0.813228       -22.1290
  31   1.0000      -0.808806       -22.0087
  32   1.0000      -0.796067       -21.6621
  33   1.0000      -0.787946       -21.4411
  34   1.0000      -0.700536       -19.0625
  35   1.0000      -0.697779       -18.9875
  36   1.0000      -0.694144       -18.8886
  37   1.0000      -0.690016       -18.7763
  38   1.0000      -0.646743       -17.5988
  39   1.0000      -0.643062       -17.4986
  40   1.0000      -0.628592       -17.1049
  41   1.0000      -0.601617       -16.3708
  42   1.0000      -0.599202       -16.3051
  43   1.0000      -0.592411       -16.1203
  44   1.0000      -0.577767       -15.7218
  45   1.0000      -0.569425       -15.4948
  46   1.0000      -0.568289       -15.4639
  47   1.0000      -0.553452       -15.0602
  48   1.0000      -0.551779       -15.0147
  49   1.0000      -0.545434       -14.8420
  50   1.0000      -0.531037       -14.4502
  51   1.0000      -0.525311       -14.2944
  52   1.0000      -0.517223       -14.0744
  53   1.0000      -0.514836       -14.0094
  54   1.0000      -0.509732       -13.8705
  55   1.0000      -0.500376       -13.6159
  56   1.0000      -0.491642       -13.3783
  57   1.0000      -0.481605       -13.1051
  58   1.0000      -0.421996       -11.4831
  59   1.0000      -0.418292       -11.3823
  60   1.0000      -0.407386       -11.0855
  61   1.0000      -0.400141       -10.8884
  62   1.0000      -0.390324       -10.6212
  63   1.0000      -0.386161       -10.5080
  64   1.0000      -0.384604       -10.4656
  65   1.0000      -0.348889        -9.4937
  66   1.0000      -0.207484        -5.6459
  67   0.0000       0.010443         0.2842
  68   0.0000       0.018706         0.5090
  69   0.0000       0.032501         0.8844
  70   0.0000       0.037765         1.0276
  71   0.0000       0.041659         1.1336

                 SPIN DOWN ORBITALS
  NO   OCC          E(Eh)            E(eV)
   0   1.0000     -19.329985      -525.9956
   1   1.0000     -19.329142      -525.9727
   2   1.0000     -19.324366      -525.8427
   3   1.0000     -19.311079      -525.4812
   4   1.0000     -14.586811      -396.9273
   5   1.0000     -14.584428      -396.8625
   6   1.0000     -14.572202      -396.5298
   7   1.0000     -14.547005      -395.8441
   8   1.0000     -10.516241      -286.1615
   9   1.0000     -10.508533      -285.9517
  10   1.0000     -10.480236      -285.1817
  11   1.0000     -10.455209      -284.5007
  12   1.0000     -10.433445      -283.9085
  13   1.0000     -10.398100      -282.9467
  14   1.0000     -10.386540      -282.6321
  15   1.0000     -10.383260      -282.5429
  16   1.0000     -10.370596      -282.1983
  17   1.0000     -10.352140      -281.6961
  18   1.0000      -1.228965       -33.4418
  19   1.0000      -1.219911       -33.1955
  20   1.0000      -1.195492       -32.5310
  21   1.0000      -1.178806       -32.0769
  22   1.0000      -1.124507       -30.5994
  23   1.0000      -1.113192       -30.2915
  24   1.0000      -1.072097       -29.1732
  25   1.0000      -1.053490       -28.6669
  26   1.0000      -0.961427       -26.1618
  27   1.0000      -0.949105       -25.8265
  28   1.0000      -0.848473       -23.0881
  29   1.0000      -0.846442       -23.0329
  30   1.0000      -0.812233       -22.1020
  31   1.0000      -0.799092       -21.7444
  32   1.0000      -0.794870       -21.6295
  33   1.0000      -0.781159       -21.2564
  34   1.0000      -0.697217       -18.9722
  35   1.0000      -0.694121       -18.8880
  36   1.0000      -0.688654       -18.7392
  37   1.0000      -0.682011       -18.5585
  38   1.0000      -0.644741       -17.5443
  39   1.0000      -0.633652       -17.2426
  40   1.0000      -0.622091       -16.9280
  41   1.0000      -0.599053       -16.3011
  42   1.0000      -0.591083       -16.0842
  43   1.0000      -0.584177       -15.8963
  44   1.0000      -0.569590       -15.4993
  45   1.0000      -0.564220       -15.3532
  46   1.0000      -0.562032       -15.2937
  47   1.0000      -0.552196       -15.0260
  48   1.0000      -0.544147       -14.8070
  49   1.0000      -0.538848       -14.6628
  50   1.0000      -0.522721       -14.2240
  51   1.0000      -0.518562       -14.1108
  52   1.0000      -0.512162       -13.9366
  53   1.0000      -0.508495       -13.8369
  54   1.0000      -0.501279       -13.6405
  55   1.0000      -0.495922       -13.4947
  56   1.0000      -0.478855       -13.0303
  57   1.0000      -0.446358       -12.1460
  58   1.0000      -0.421625       -11.4730
  59   1.0000      -0.413537       -11.2529
  60   1.0000      -0.404798       -11.0151
  61   1.0000      -0.388990       -10.5850
  62   1.0000      -0.377476       -10.2716
  63   1.0000      -0.376755       -10.2520
  64   1.0000      -0.347956        -9.4684
  65   0.0000      -0.106201        -2.8899
  66   0.0000       0.010006         0.2723
  67   0.0000       0.020053         0.5457
  68   0.0000       0.029627         0.8062
  69   0.0000       0.035273         0.9598

----------------------------------------------------------------------------------------------------
          SPIN FLIP ABSORPTION SPECTRUM VIA TRANSITION ELECTRIC DIPOLE MOMENTS
----------------------------------------------------------------------------------------------------
     Transition      Energy     Energy  Wavelength fosc(D2)      D2        DX        DY        DZ
                      (eV)      (cm-1)    (nm)                 (au**2)    (au)      (au)      (au)
----------------------------------------------------------------------------------------------------
  1-3A  ->  2-3A    4.203887   33906.6   294.9   0.001623135   0.01576   0.05390   0.08671  -0.07305

Dispersion correction             ... done (  0.0 sec)

MULLIKEN ATOMIC CHARGES AND SPIN DENSITIES
------------------------------------------
   0 O :   -0.695866    0.007270
   1 O :   -0.659519   -0.000795
   2 O :   -0.622317    0.005767
   3 O :   -0.666934    0.000687
   4 N :    0.040990    0.038635
   5 N :   -0.004543   -0.006564
   6 N :    0.005797   -0.011682
   7 N :    0.013831   -0.002657
   8 C :    1.330853    0.052679
   9 C :    0.501083    0.012498
  10 C :   -0.368249    0.010612
  11 C :    0.183416   -0.008689
  12 C :   -1.427808   -0.009365
  13 C :   -1.504245    0.007918
  14 C :    0.071789   -0.087867
  15 C :    0.548164   -0.010424
  16 C :    0.467515    0.003438
  17 C :    0.443564   -0.002550
  18 H :    0.147384   -0.008419
  19 H :    0.168897   -0.001048
  20 H :    0.229639    0.006130
  21 H :    0.333653   -0.003344
  22 H :    0.394752    0.010487
  23 H :    0.369648   -0.000247
  24 H :    0.332612    0.000337
  25 H :    0.236140   -0.001718
  26 H :    0.077174   -0.002044
  27 H :    0.022464    0.000943
  28 H :    0.017699    0.000711
  29 H :    0.012415   -0.000699
Sum of atomic charges       :   -0.0000000

LOEWDIN ATOMIC CHARGES AND SPIN DENSITIES
-----------------------------------------
   0 O :    0.072982    0.005884
   1 O :    0.106511   -0.000519
   2 O :    0.110754    0.004376
   3 O :    0.074296    0.000082
   4 N :    0.315454    0.025470
   5 N :    0.277182   -0.003493
   6 N :    0.319476   -0.008077
   7 N :    0.343736   -0.000582
   8 C :   -0.106494    0.007899
   9 C :   -0.147100    0.000713
  10 C :    0.000488   -0.015579
  11 C :    0.051007   -0.001707
  12 C :    0.208055    0.001703
  13 C :    0.182402    0.000355
  14 C :   -0.437525   -0.008976
  15 C :   -0.393707   -0.000412
  16 C :   -0.471169   -0.002527
  17 C :   -0.494465   -0.000392
  18 H :    0.008624   -0.006651
  19 H :    0.039204   -0.000457
  20 H :   -0.013286    0.000850
  21 H :   -0.002623   -0.000516
  22 H :    0.016917    0.001183
  23 H :    0.005163    0.000123
  24 H :   -0.004490   -0.000046
  25 H :   -0.016806    0.000083
  26 H :   -0.009792    0.002472
  27 H :   -0.020639   -0.000250
  28 H :   -0.008465   -0.000957
  29 H :   -0.005689   -0.000051

  Mayer bond orders larger than 0.100000
B(  0-O , 14-C ) :   1.2375 B(  1-O , 15-C ) :   1.3989 B(  2-O , 16-C ) :   1.5715
B(  3-O , 17-C ) :   1.5409 B(  4-N , 10-C ) :   0.8342 B(  4-N , 16-C ) :   0.9428
B(  4-N , 26-H ) :   1.0860 B(  5-N , 11-C ) :   0.9601 B(  5-N , 17-C ) :   1.0357
B(  5-N , 27-H ) :   1.1342 B(  6-N ,  8-C ) :  -0.1062 B(  6-N , 14-C ) :   0.9334
B(  6-N , 16-C ) :   0.9333 B(  6-N , 28-H ) :   1.1121 B(  7-N , 15-C ) :   0.9806
B(  7-N , 17-C ) :   0.9269 B(  7-N , 29-H ) :   1.1250 B(  8-C , 10-C ) :   0.3838
B(  8-C , 12-C ) :   0.3225 B(  8-C , 14-C ) :   0.7483 B(  8-C , 18-H ) :  -0.1547
B(  8-C , 21-H ) :  -0.1086 B(  9-C , 11-C ) :   1.0799 B(  9-C , 13-C ) :   0.3787
B(  9-C , 15-C ) :   0.7477 B(  9-C , 24-H ) :  -0.1156 B(  9-C , 25-H ) :  -0.1098
B( 10-C , 12-C ) :  -0.1496 B( 10-C , 18-H ) :   1.2251 B( 11-C , 13-C ) :  -0.2529
B( 11-C , 19-H ) :   1.1018 B( 12-C , 14-C ) :  -0.1047 B( 12-C , 20-H ) :   1.0136
B( 12-C , 21-H ) :   1.0269 B( 12-C , 22-H ) :   0.8365 B( 13-C , 23-H ) :   0.8543
B( 13-C , 24-H ) :   1.0751 B( 13-C , 25-H ) :   0.9902 B( 14-C , 15-C ) :   0.1226

Dispersion correction           -0.060802261
FINAL SINGLE POINT ENERGY      -908.768992430351

DIPOLE MOMENT
-------------

Method             : TDA/CIS
Type of density    : Electron Density
Level              : Relaxed density
State              :   2
Multiplicity       :   3
Irrep              :   0
Energy             :     0.0000000000000000 Eh
Relativity type    :
Basis              : AO
                                X                 Y                 Z
Electronic contribution:     -2.584671907     -10.250861035      -6.010433671
Nuclear contribution   :      1.776476525      11.220637532       8.459089058
                        -----------------------------------------
Total Dipole Moment    :     -0.808195382       0.969776496       2.448655387
                        -----------------------------------------
Magnitude (a.u.)       :      2.754915503
Magnitude (Debye)      :      7.002438717

Rotational constants in cm-1:             0.017745             0.016644             0.012967
Rotational constants in MHz :           531.977619           498.983288           388.737047

                             ****ORCA TERMINATED NORMALLY****
TOTAL RUN TIME: 0 days 0 hours 8 minutes 32 seconds 597 msec
