                         Program Version 6.0.0  -   RELEASE  -
|  1> ! Engrad def2-TZVPPD wB97M-D3BJ
|  2> %pal nprocs 8 end%pal nprocs 64 end
|  3> %tddft
|  4>  Iroot 2 Nroots 3
|  5> sf true
|  6> end
|  7> *xyz 0 3
|  8> O   -0.59779186 0.0175518 0.65379274
|  9> C   0.57233673 0.5352387 0.12975806
| 10> C   1.3602866 -0.39636943 -0.61200616
| 11> H   1.11208414 1.0869241 0.88682355
| 12> H   0.16343553 1.28640237 -0.48382843
| 13> H   1.91842599 -1.22168883 -0.1333321
| 14> H   1.25127772 -0.34979417 -1.68054326
| 15> *
| 16>
| 17>                          ****END OF INPUT****

CARTESIAN COORDINATES (ANGSTROEM)
---------------------------------
  O     -0.597792    0.017552    0.653793
  C      0.572337    0.535239    0.129758
  C      1.360287   -0.396369   -0.612006
  H      1.112084    1.086924    0.886824
  H      0.163436    1.286402   -0.483828
  H      1.918426   -1.221689   -0.133332
  H      1.251278   -0.349794   -1.680543

 Total Charge           Charge          ....    0
 Multiplicity           Mult            ....    3
 Number of Electrons    NEL             ....   24
 Basis Dimension        Dim             ....  182

ORBITAL ENERGIES
----------------
                 SPIN UP ORBITALS
  NO   OCC          E(Eh)            E(eV)
   0   1.0000     -19.385069      -527.4945
   1   1.0000     -10.399342      -282.9805
   2   1.0000     -10.366012      -282.0735
   3   1.0000      -1.165106       -31.7041
   4   1.0000      -0.889911       -24.2157
   5   1.0000      -0.737925       -20.0800
   6   1.0000      -0.629169       -17.1205
   7   1.0000      -0.579988       -15.7823
   8   1.0000      -0.556904       -15.1541
   9   1.0000      -0.522964       -14.2306
  10   1.0000      -0.432048       -11.7566
  11   1.0000      -0.414571       -11.2811
  12   1.0000      -0.331508        -9.0208
  13   0.0000       0.041092         1.1182
  14   0.0000       0.061782         1.6812
  15   0.0000       0.075845         2.0639
  16   0.0000       0.089169         2.4264
  17   0.0000       0.115592         3.1454

                 SPIN DOWN ORBITALS
  NO   OCC          E(Eh)            E(eV)
   0   1.0000     -19.359917      -526.8101
   1   1.0000     -10.400452      -283.0107
   2   1.0000     -10.353112      -281.7225
   3   1.0000      -1.109470       -30.1902
   4   1.0000      -0.855857       -23.2890
   5   1.0000      -0.711404       -19.3583
   6   1.0000      -0.597089       -16.2476
   7   1.0000      -0.556279       -15.1371
   8   1.0000      -0.527221       -14.3464
   9   1.0000      -0.485296       -13.2056
  10   1.0000      -0.382801       -10.4165
  11   0.0000      -0.047674        -1.2973
  12   0.0000      -0.006349        -0.1728
  13   0.0000       0.040175         1.0932
  14   0.0000       0.062168         1.6917
  15   0.0000       0.076085         2.0704

----------------------------------------------------------------------------------------------------
          SPIN FLIP ABSORPTION SPECTRUM VIA TRANSITION ELECTRIC DIPOLE MOMENTS
----------------------------------------------------------------------------------------------------
     Transition      Energy     Energy  Wavelength fosc(D2)      D2        DX        DY        DZ
                      (eV)      (cm-1)    (nm)                 (au**2)    (au)      (au)      (au)
----------------------------------------------------------------------------------------------------
  1-3A  ->  2-3A    0.153009    1234.1  8103.0   0.000459113   0.12247   0.26293  -0.14138  -0.18262
  1-3A  ->  3-3A    0.864615    6973.6  1434.0   0.004226409   0.19952   0.34095  -0.05287  -0.28369

Dispersion correction             ... done (  0.2 sec)

MULLIKEN ATOMIC CHARGES AND SPIN DENSITIES
------------------------------------------
   0 O :   -0.363229   -0.086011
   1 C :   -0.039244    0.074574
   2 C :   -0.387394    0.001612
   3 H :    0.218628    0.028646
   4 H :    0.194599    0.022984
   5 H :    0.191760   -0.015815
   6 H :    0.184882   -0.025990
Sum of atomic charges       :    0.0000000

LOEWDIN ATOMIC CHARGES AND SPIN DENSITIES
-----------------------------------------
   0 O :    0.037735   -0.085280
   1 C :   -0.280917    0.028330
   2 C :    0.302081    0.024076
   3 H :    0.031297    0.027265
   4 H :   -0.016195    0.005907
   5 H :   -0.021503    0.001110
   6 H :   -0.052498   -0.001408

  Mayer bond orders larger than 0.100000
B(  0-O ,  1-C ) :   0.8232 B(  0-O ,  2-C ) :   0.1943 B(  1-C ,  2-C ) :   0.7607
B(  1-C ,  3-H ) :   0.9115 B(  1-C ,  4-H ) :   1.0320 B(  2-C ,  5-H ) :   0.9874
B(  2-C ,  6-H ) :   0.9874

Dispersion correction           -0.005560214
FINAL SINGLE POINT ENERGY      -153.743616123120

DIPOLE MOMENT
-------------

Method             : TDA/CIS
Type of density    : Electron Density
Level              : Relaxed density
State              :   2
Multiplicity       :   3
Irrep              :   0
Energy             :     0.0000000000000000 Eh
Relativity type    :
Basis              : AO
                                X                 Y                 Z
Electronic contribution:     -1.793498897      -0.273113717       1.234757241
Nuclear contribution   :      2.611098170       0.516743997      -1.591553576
                        -----------------------------------------
Total Dipole Moment    :      0.817599274       0.243630280      -0.356796335
                        -----------------------------------------
Magnitude (a.u.)       :      0.924731264
Magnitude (Debye)      :      2.350480077

Rotational constants in cm-1:             1.474901             0.355123             0.319654
Rotational constants in MHz :         44216.431907         10646.313978          9582.994539

                             ****ORCA TERMINATED NORMALLY****
TOTAL RUN TIME: 0 days 0 hours 0 minutes 26 seconds 325 msec
