                         Program Version 6.0.0  -   RELEASE  -
|  1> ! EnGrad wB97M-D3BJ def2-TZVPPD
|  2> %pal nprocs 8 end%pal nprocs 16 end
|  3> %tddft
|  4>  sf true
|  5>  nroots 2 Iroot 1 end
|  6> *xyz 0 3
|  7> O   0.49923603951639 1.32175134317361 0.07287571402579
|  8> C   0.58365574958016 0.17403072559605 -0.28308683643903
|  9> C   -0.43285733329284 -0.82058305527977 0.2074911561571
| 10> H   0.06138027735187 -1.63733954776237 0.73549669460051
| 11> H   1.38482814948031 -0.17041430987123 -0.95890345537444
| 12> H   -0.95914596623738 -1.26761857469666 -0.63751097767711
| 13> H   -1.13489691639852 -0.31822658115963 0.86363770470717
| 14> *
| 15>
| 16>                          ****END OF INPUT****

CARTESIAN COORDINATES (ANGSTROEM)
---------------------------------
  O      0.499236    1.321751    0.072876
  C      0.583656    0.174031   -0.283087
  C     -0.432857   -0.820583    0.207491
  H      0.061380   -1.637340    0.735497
  H      1.384828   -0.170414   -0.958903
  H     -0.959146   -1.267619   -0.637511
  H     -1.134897   -0.318227    0.863638

 Total Charge           Charge          ....    0
 Multiplicity           Mult            ....    3
 Number of Electrons    NEL             ....   24
 Basis Dimension        Dim             ....  182

ORBITAL ENERGIES
----------------
                 SPIN UP ORBITALS
  NO   OCC          E(Eh)            E(eV)
   0   1.0000     -19.410740      -528.1931
   1   1.0000     -10.379781      -282.4482
   2   1.0000     -10.366234      -282.0796
   3   1.0000      -1.246947       -33.9312
   4   1.0000      -0.879160       -23.9232
   5   1.0000      -0.719666       -19.5831
   6   1.0000      -0.637392       -17.3443
   7   1.0000      -0.584774       -15.9125
   8   1.0000      -0.582340       -15.8463
   9   1.0000      -0.514269       -13.9940
  10   1.0000      -0.511860       -13.9284
  11   1.0000      -0.436047       -11.8654
  12   1.0000      -0.222564        -6.0563
  13   0.0000       0.042021         1.1434
  14   0.0000       0.060419         1.6441
  15   0.0000       0.079093         2.1522
  16   0.0000       0.088234         2.4010
  17   0.0000       0.108378         2.9491

                 SPIN DOWN ORBITALS
  NO   OCC          E(Eh)            E(eV)
   0   1.0000     -19.382838      -527.4338
   1   1.0000     -10.369451      -282.1671
   2   1.0000     -10.363948      -282.0174
   3   1.0000      -1.188564       -32.3425
   4   1.0000      -0.859676       -23.3930
   5   1.0000      -0.675794       -18.3893
   6   1.0000      -0.585903       -15.9432
   7   1.0000      -0.540367       -14.7041
   8   1.0000      -0.534229       -14.5371
   9   1.0000      -0.500757       -13.6263
  10   1.0000      -0.470503       -12.8030
  11   0.0000      -0.081767        -2.2250
  12   0.0000       0.042062         1.1446
  13   0.0000       0.060076         1.6347
  14   0.0000       0.079239         2.1562
  15   0.0000       0.083107         2.2614

----------------------------------------------------------------------------------------------------
          SPIN FLIP ABSORPTION SPECTRUM VIA TRANSITION ELECTRIC DIPOLE MOMENTS
----------------------------------------------------------------------------------------------------
     Transition      Energy     Energy  Wavelength fosc(D2)      D2        DX        DY        DZ
                      (eV)      (cm-1)    (nm)                 (au**2)    (au)      (au)      (au)
----------------------------------------------------------------------------------------------------
  1-3A  ->  2-3A    4.491550   36226.8   276.0   0.000021492   0.00020  -0.00808   0.00273  -0.01107

Dispersion correction             ... done (  0.0 sec)

MULLIKEN ATOMIC CHARGES AND SPIN DENSITIES
------------------------------------------
   0 O :   -0.511784    0.056341
   1 C :    0.208265   -0.172736
   2 C :   -0.680314    0.047979
   3 H :    0.224572   -0.005416
   4 H :    0.295995    0.074937
   5 H :    0.222366   -0.005424
   6 H :    0.240900    0.004318
Sum of atomic charges       :    0.0000000

LOEWDIN ATOMIC CHARGES AND SPIN DENSITIES
-----------------------------------------
   0 O :    0.032407    0.021949
   1 C :   -0.206387   -0.014534
   2 C :    0.174097   -0.001540
   3 H :   -0.011494   -0.001261
   4 H :    0.030240   -0.003936
   5 H :   -0.011034   -0.001263
   6 H :   -0.007830    0.000585

  Mayer bond orders larger than 0.100000
B(  0-O ,  1-C ) :   1.7865 B(  1-C ,  2-C ) :   0.7500 B(  1-C ,  4-H ) :   0.9305
B(  2-C ,  3-H ) :   0.9942 B(  2-C ,  5-H ) :   0.9933 B(  2-C ,  6-H ) :   0.9586

Dispersion correction           -0.005547811
FINAL SINGLE POINT ENERGY      -153.922868065568

DIPOLE MOMENT
-------------

Method             : TDA/CIS
Type of density    : Electron Density
Level              : Relaxed density
State              :   1
Multiplicity       :   3
Irrep              :   0
Energy             :     0.0000000000000000 Eh
Relativity type    :
Basis              : AO
                                X                 Y                 Z
Electronic contribution:      1.300145822       2.816033664      -0.229829779
Nuclear contribution   :     -1.382539928      -4.016062740      -0.018666011
                        -----------------------------------------
Total Dipole Moment    :     -0.082394106      -1.200029075      -0.248495789
                        -----------------------------------------
Magnitude (a.u.)       :      1.228254342
Magnitude (Debye)      :      3.121974429

Rotational constants in cm-1:             1.772093             0.355461             0.313049
Rotational constants in MHz :         53126.012807         10656.438749          9384.979175

                             ****ORCA TERMINATED NORMALLY****
TOTAL RUN TIME: 0 days 0 hours 0 minutes 16 seconds 293 msec
