                         Program Version 6.0.0  -   RELEASE  -
|  1> ! Engrad def2-TZVPPD wB97M-D3BJ
|  2> %pal nprocs 8 end%pal nprocs 64 end
|  3> %tddft
|  4>  Iroot 2 Nroots 3
|  5> sf true
|  6> end
|  7> *xyz 0 3
|  8> O   2.75646228 -0.96147601 -2.48609679
|  9> O   -2.51515079 1.38896668 -1.25746458
| 10> O   -1.27828047 -2.45608498 -1.08559873
| 11> O   -2.43818866 0.82683245 3.1419529
| 12> N   0.10662128 -1.54785379 0.44769889
| 13> N   -0.36480372 0.99734142 2.16895021
| 14> N   0.79453039 -1.74134267 -1.74736708
| 15> N   -2.48226229 0.9519688 0.9128358
| 16> C   2.23597552 -0.50698987 -0.1974075
| 17> C   -0.32770795 1.28943841 -0.22929115
| 18> C   1.09718252 -0.47895239 0.74527558
| 19> C   0.45535872 0.94563293 0.94110301
| 20> C   3.66485844 -0.31676746 0.20696444
| 21> C   0.40325463 1.72112982 -1.48845814
| 22> C   1.95247822 -1.07595517 -1.51649922
| 23> C   -1.79322513 1.2580629 -0.26237997
| 24> C   -0.24559437 -1.91374244 -0.82049864
| 25> C   -1.79649817 0.85286445 2.12349298
| 26> H   1.44471168 -0.64156682 1.73386207
| 27> H   1.27224134 1.60190392 1.05284429
| 28> H   4.10531082 -1.2731835 0.47558339
| 29> H   4.36197243 0.09445322 -0.57939991
| 30> H   3.63185369 0.34251048 1.10008057
| 31> H   -0.09713115 2.59209813 -1.89950644
| 32> H   1.40231197 2.04162061 -1.12074224
| 33> H   0.33602119 0.9432399 -2.2244048
| 34> H   -0.6641791 -1.43123262 1.04961158
| 35> H   0.00056718 1.30309231 3.09885374
| 36> H   0.56233764 -2.0825914 -2.65345068
| 37> H   -3.44937693 0.91977725 0.8397584
| 38> *
| 39>
| 40>                          ****END OF INPUT****

CARTESIAN COORDINATES (ANGSTROEM)
---------------------------------
  O      2.756462   -0.961476   -2.486097
  O     -2.515151    1.388967   -1.257465
  O     -1.278280   -2.456085   -1.085599
  O     -2.438189    0.826832    3.141953
  N      0.106621   -1.547854    0.447699
  N     -0.364804    0.997341    2.168950
  N      0.794530   -1.741343   -1.747367
  N     -2.482262    0.951969    0.912836
  C      2.235976   -0.506990   -0.197407
  C     -0.327708    1.289438   -0.229291
  C      1.097183   -0.478952    0.745276
  C      0.455359    0.945633    0.941103
  C      3.664858   -0.316767    0.206964
  C      0.403255    1.721130   -1.488458
  C      1.952478   -1.075955   -1.516499
  C     -1.793225    1.258063   -0.262380
  C     -0.245594   -1.913742   -0.820499
  C     -1.796498    0.852864    2.123493
  H      1.444712   -0.641567    1.733862
  H      1.272241    1.601904    1.052844
  H      4.105311   -1.273184    0.475583
  H      4.361972    0.094453   -0.579400
  H      3.631854    0.342510    1.100081
  H     -0.097131    2.592098   -1.899506
  H      1.402312    2.041621   -1.120742
  H      0.336021    0.943240   -2.224405
  H     -0.664179   -1.431233    1.049612
  H      0.000567    1.303092    3.098854
  H      0.562338   -2.082591   -2.653451
  H     -3.449377    0.919777    0.839758

 Total Charge           Charge          ....    0
 Multiplicity           Mult            ....    3
 Number of Electrons    NEL             ....  132
 Basis Dimension        Dim             ....  882

ORBITAL ENERGIES
----------------
                 SPIN UP ORBITALS
  NO   OCC          E(Eh)            E(eV)
   0   1.0000     -19.333424      -526.0892
   1   1.0000     -19.328079      -525.9438
   2   1.0000     -19.326698      -525.9062
   3   1.0000     -19.324328      -525.8417
   4   1.0000     -14.572210      -396.5300
   5   1.0000     -14.567553      -396.4033
   6   1.0000     -14.565761      -396.3545
   7   1.0000     -14.560303      -396.2060
   8   1.0000     -10.515058      -286.1293
   9   1.0000     -10.506550      -285.8978
  10   1.0000     -10.484385      -285.2946
  11   1.0000     -10.483869      -285.2806
  12   1.0000     -10.447798      -284.2990
  13   1.0000     -10.442592      -284.1574
  14   1.0000     -10.425695      -283.6976
  15   1.0000     -10.424423      -283.6630
  16   1.0000     -10.388056      -282.6734
  17   1.0000     -10.377320      -282.3812
  18   1.0000      -1.226575       -33.3768
  19   1.0000      -1.221102       -33.2279
  20   1.0000      -1.192307       -32.4443
  21   1.0000      -1.181319       -32.1453
  22   1.0000      -1.116772       -30.3889
  23   1.0000      -1.093215       -29.7479
  24   1.0000      -1.068758       -29.0824
  25   1.0000      -1.056407       -28.7463
  26   1.0000      -0.985307       -26.8116
  27   1.0000      -0.960582       -26.1388
  28   1.0000      -0.891816       -24.2675
  29   1.0000      -0.845091       -22.9961
  30   1.0000      -0.828191       -22.5362
  31   1.0000      -0.807847       -21.9826
  32   1.0000      -0.787816       -21.4376
  33   1.0000      -0.778761       -21.1912
  34   1.0000      -0.706656       -19.2291
  35   1.0000      -0.696548       -18.9540
  36   1.0000      -0.692253       -18.8372
  37   1.0000      -0.688669       -18.7396
  38   1.0000      -0.653852       -17.7922
  39   1.0000      -0.644090       -17.5266
  40   1.0000      -0.631396       -17.1812
  41   1.0000      -0.605199       -16.4683
  42   1.0000      -0.599416       -16.3109
  43   1.0000      -0.591953       -16.1079
  44   1.0000      -0.572994       -15.5920
  45   1.0000      -0.571130       -15.5412
  46   1.0000      -0.567668       -15.4470
  47   1.0000      -0.563324       -15.3288
  48   1.0000      -0.562722       -15.3124
  49   1.0000      -0.557726       -15.1765
  50   1.0000      -0.551421       -15.0049
  51   1.0000      -0.537481       -14.6256
  52   1.0000      -0.530414       -14.4333
  53   1.0000      -0.519455       -14.1351
  54   1.0000      -0.511658       -13.9229
  55   1.0000      -0.506475       -13.7819
  56   1.0000      -0.505469       -13.7545
  57   1.0000      -0.425645       -11.5824
  58   1.0000      -0.419373       -11.4117
  59   1.0000      -0.409525       -11.1437
  60   1.0000      -0.405480       -11.0337
  61   1.0000      -0.402379       -10.9493
  62   1.0000      -0.395268       -10.7558
  63   1.0000      -0.388352       -10.5676
  64   1.0000      -0.385540       -10.4911
  65   1.0000      -0.356962        -9.7134
  66   1.0000      -0.328573        -8.9409
  67   0.0000       0.006019         0.1638
  68   0.0000       0.028961         0.7881
  69   0.0000       0.033564         0.9133
  70   0.0000       0.034380         0.9355
  71   0.0000       0.053518         1.4563

                 SPIN DOWN ORBITALS
  NO   OCC          E(Eh)            E(eV)
   0   1.0000     -19.328884      -525.9657
   1   1.0000     -19.326671      -525.9055
   2   1.0000     -19.324243      -525.8394
   3   1.0000     -19.323735      -525.8256
   4   1.0000     -14.572060      -396.5259
   5   1.0000     -14.567133      -396.3918
   6   1.0000     -14.565316      -396.3424
   7   1.0000     -14.560117      -396.2009
   8   1.0000     -10.515092      -286.1302
   9   1.0000     -10.506594      -285.8990
  10   1.0000     -10.485470      -285.3241
  11   1.0000     -10.485007      -285.3115
  12   1.0000     -10.447324      -284.2861
  13   1.0000     -10.441991      -284.1410
  14   1.0000     -10.414086      -283.3817
  15   1.0000     -10.413078      -283.3542
  16   1.0000     -10.388602      -282.6882
  17   1.0000     -10.377701      -282.3916
  18   1.0000      -1.226005       -33.3613
  19   1.0000      -1.220088       -33.2003
  20   1.0000      -1.186864       -32.2962
  21   1.0000      -1.176161       -32.0050
  22   1.0000      -1.113569       -30.3018
  23   1.0000      -1.090527       -29.6748
  24   1.0000      -1.066380       -29.0177
  25   1.0000      -1.054779       -28.7020
  26   1.0000      -0.972869       -26.4731
  27   1.0000      -0.943103       -25.6631
  28   1.0000      -0.885169       -24.0867
  29   1.0000      -0.839751       -22.8508
  30   1.0000      -0.819820       -22.3084
  31   1.0000      -0.803238       -21.8572
  32   1.0000      -0.786013       -21.3885
  33   1.0000      -0.777330       -21.1522
  34   1.0000      -0.700179       -19.0528
  35   1.0000      -0.690869       -18.7995
  36   1.0000      -0.686108       -18.6700
  37   1.0000      -0.682721       -18.5778
  38   1.0000      -0.644587       -17.5401
  39   1.0000      -0.638176       -17.3656
  40   1.0000      -0.625782       -17.0284
  41   1.0000      -0.599898       -16.3241
  42   1.0000      -0.592921       -16.1342
  43   1.0000      -0.587722       -15.9927
  44   1.0000      -0.566752       -15.4221
  45   1.0000      -0.562688       -15.3115
  46   1.0000      -0.559784       -15.2325
  47   1.0000      -0.557907       -15.1814
  48   1.0000      -0.555982       -15.1290
  49   1.0000      -0.550194       -14.9715
  50   1.0000      -0.544018       -14.8035
  51   1.0000      -0.529520       -14.4090
  52   1.0000      -0.521186       -14.1822
  53   1.0000      -0.511480       -13.9181
  54   1.0000      -0.506222       -13.7750
  55   1.0000      -0.501364       -13.6428
  56   1.0000      -0.496087       -13.4992
  57   1.0000      -0.423030       -11.5112
  58   1.0000      -0.416348       -11.3294
  59   1.0000      -0.406499       -11.0614
  60   1.0000      -0.391137       -10.6434
  61   1.0000      -0.390914       -10.6373
  62   1.0000      -0.387354       -10.5404
  63   1.0000      -0.383787       -10.4434
  64   1.0000      -0.378707       -10.3051
  65   0.0000      -0.070392        -1.9155
  66   0.0000      -0.049944        -1.3591
  67   0.0000       0.005731         0.1560
  68   0.0000       0.029600         0.8055
  69   0.0000       0.033200         0.9034

----------------------------------------------------------------------------------------------------
          SPIN FLIP ABSORPTION SPECTRUM VIA TRANSITION ELECTRIC DIPOLE MOMENTS
----------------------------------------------------------------------------------------------------
     Transition      Energy     Energy  Wavelength fosc(D2)      D2        DX        DY        DZ
                      (eV)      (cm-1)    (nm)                 (au**2)    (au)      (au)      (au)
----------------------------------------------------------------------------------------------------
  1-3A  ->  2-3A    0.139970    1128.9  8857.9   0.000046031   0.01342   0.09064  -0.04034  -0.05983
  1-3A  ->  3-3A    2.121865   17114.0   584.3   0.000241329   0.00464  -0.00234  -0.01609   0.06617

Dispersion correction             ... done (  0.1 sec)

MULLIKEN ATOMIC CHARGES AND SPIN DENSITIES
------------------------------------------
   0 O :   -0.719156   -0.034534
   1 O :   -0.700382    0.034604
   2 O :   -0.619007    0.000130
   3 O :   -0.632615    0.000165
   4 N :   -0.320669   -0.007828
   5 N :   -0.239121    0.003634
   6 N :    0.045370   -0.002551
   7 N :    0.074996    0.004224
   8 C :    0.643475    0.384586
   9 C :    0.588334    0.406268
  10 C :    0.348261   -0.279341
  11 C :   -0.052716   -0.177654
  12 C :   -1.461083    0.047479
  13 C :   -1.552067   -0.015728
  14 C :    0.019021   -0.272728
  15 C :    0.349273   -0.132918
  16 C :    0.425994    0.018761
  17 C :    0.332654    0.010106
  18 H :    0.588250   -0.021119
  19 H :    0.689832    0.003495
  20 H :    0.334167    0.000229
  21 H :    0.292221   -0.005701
  22 H :    0.349475    0.005512
  23 H :    0.431802    0.007410
  24 H :    0.368404    0.002652
  25 H :    0.253072    0.015583
  26 H :    0.059051    0.001236
  27 H :    0.109706   -0.000015
  28 H :    0.011150    0.002790
  29 H :   -0.017690    0.001253
Sum of atomic charges       :    0.0000000

LOEWDIN ATOMIC CHARGES AND SPIN DENSITIES
-----------------------------------------
   0 O :    0.033672   -0.030188
   1 O :    0.075507    0.030088
   2 O :    0.120336    0.000367
   3 O :    0.082754    0.000040
   4 N :    0.318253   -0.001273
   5 N :    0.270987   -0.000681
   6 N :    0.330323   -0.005182
   7 N :    0.340656    0.002341
   8 C :   -0.025391   -0.097326
   9 C :   -0.005259    0.114488
  10 C :   -0.093028   -0.006623
  11 C :   -0.129470    0.007842
  12 C :    0.187076   -0.014851
  13 C :    0.222271    0.010214
  14 C :   -0.402326   -0.020522
  15 C :   -0.367012    0.013502
  16 C :   -0.481956    0.000434
  17 C :   -0.449002   -0.000213
  18 H :    0.024760   -0.001629
  19 H :    0.026455    0.001977
  20 H :    0.004462   -0.005213
  21 H :    0.032265   -0.001704
  22 H :    0.004517   -0.000664
  23 H :    0.004720    0.002185
  24 H :    0.020432   -0.001089
  25 H :   -0.008299    0.004176
  26 H :   -0.071891   -0.000148
  27 H :    0.003809   -0.000106
  28 H :   -0.017860   -0.000537
  29 H :   -0.051762    0.000293

  Mayer bond orders larger than 0.100000
B(  0-O , 14-C ) :   1.3389 B(  1-O , 15-C ) :   1.2404 B(  2-O , 16-C ) :   1.5231
B(  3-O , 17-C ) :   1.6034 B(  4-N ,  8-C ) :   0.2824 B(  4-N ,  9-C ) :   0.1019
B(  4-N , 10-C ) :   0.1102 B(  4-N , 16-C ) :   1.0617 B(  4-N , 18-H ) :  -0.1523
B(  4-N , 26-H ) :   1.0429 B(  5-N ,  9-C ) :   0.1313 B(  5-N , 10-C ) :   0.1395
B(  5-N , 11-C ) :   0.4515 B(  5-N , 17-C ) :   1.1358 B(  5-N , 19-H ) :  -0.1151
B(  5-N , 27-H ) :   1.0724 B(  6-N , 14-C ) :   0.9925 B(  6-N , 16-C ) :   0.9250
B(  6-N , 28-H ) :   1.1280 B(  7-N , 15-C ) :   1.0898 B(  7-N , 17-C ) :   0.9933
B(  7-N , 29-H ) :   1.1335 B(  8-C ,  9-C ) :   0.1477 B(  8-C , 10-C ) :   0.4659
B(  8-C , 11-C ) :   0.2260 B(  8-C , 12-C ) :   0.4359 B(  8-C , 14-C ) :   0.5509
B(  8-C , 18-H ) :  -0.1260 B(  8-C , 22-H ) :  -0.1232 B(  9-C , 10-C ) :   0.1846
B(  9-C , 11-C ) :   0.5100 B(  9-C , 13-C ) :   0.1570 B(  9-C , 15-C ) :   0.7798
B(  9-C , 17-C ) :   0.1016 B(  9-C , 19-H ) :  -0.1883 B(  9-C , 24-H ) :  -0.1444
B( 10-C , 11-C ) :   0.4092 B( 10-C , 12-C ) :  -0.1762 B( 10-C , 13-C ) :  -0.1039
B( 10-C , 18-H ) :   0.6948 B( 11-C , 17-C ) :  -0.2304 B( 11-C , 19-H ) :   0.6887
B( 12-C , 20-H ) :   0.8708 B( 12-C , 21-H ) :   1.0018 B( 12-C , 22-H ) :   0.9640
B( 13-C , 14-C ) :   0.1354 B( 13-C , 23-H ) :   0.8224 B( 13-C , 24-H ) :   1.0447
B( 13-C , 25-H ) :   0.9740 B( 15-C , 17-C ) :  -0.1019

Dispersion correction           -0.057986859
FINAL SINGLE POINT ENERGY      -908.767988151786

DIPOLE MOMENT
-------------

Method             : TDA/CIS
Type of density    : Electron Density
Level              : Relaxed density
State              :   2
Multiplicity       :   3
Irrep              :   0
Energy             :     0.0000000000000000 Eh
Relativity type    :
Basis              : AO
                                X                 Y                 Z
Electronic contribution:    -10.102112904      -3.696878852       0.218942528
Nuclear contribution   :     12.137877979       4.662278395       1.124478924
                        -----------------------------------------
Total Dipole Moment    :      2.035765074       0.965399544       1.343421452
                        -----------------------------------------
Magnitude (a.u.)       :      2.623188311
Magnitude (Debye)      :      6.667614802

Rotational constants in cm-1:             0.022959             0.011430             0.010477
Rotational constants in MHz :           688.288760           342.652745           314.103780

                             ****ORCA TERMINATED NORMALLY****
TOTAL RUN TIME: 0 days 0 hours 5 minutes 29 seconds 455 msec
