                         Program Version 6.0.0  -   RELEASE  -
|  1> ! opt def2-TZVPPD wB97M-D3BJ
|  2> %pal nprocs 8 end%pal nprocs 32 end
|  3> %geom Constraints
|  4> {B 9 8 3.4 C}
|  5> {A 8 9 11 79.71428571428571 C}
|  6>  end
|  7>  end
|  8> *xyz 0 1
|  9> O   2.98579685529314 0.88758230159078 -0.86184571092411
| 10> O   -0.03983205397054 0.68929041702508 -2.10362336723772
| 11> O   0.93431434349854 -3.13274393337945 -0.68767288184107
| 12> O   -3.75829998830163 -0.84727300865116 -0.0472717177755
| 13> N   0.21184538946282 -1.54604804365365 0.7617588924445
| 14> N   -2.13631993928911 0.03188773433438 1.27350571071531
| 15> N   2.02598672506387 -1.14318467211666 -0.64531219127023
| 16> N   -1.91814233924584 0.03137116037665 -1.04498946748291
| 17> C   1.18097737274226 0.71693507080484 0.70173889017321
| 18> C   -0.20686880480777 1.27024627933494 0.21345042231937
| 19> C   0.41441080275909 -0.34173258966541 1.52336266615173
| 20> C   -0.82922175114212 0.58960593673968 1.44434972027296
| 21> C   1.92822011286806 1.69488653817281 1.5963734975385
| 22> C   -0.37809776891576 2.77134929626422 0.04819649358288
| 23> C   2.1403947470937 0.1972384729179 -0.35038567829864
| 24> C   -0.67361678962426 0.6214190571346 -1.0793014500539
| 25> C   1.04142578622994 -2.02697492875068 -0.21027082435993
| 26> C   -2.68467002550422 -0.30396816036989 0.07167054343891
| 27> H   0.80817443950001 -0.54572267081061 2.51895215321335
| 28> H   -0.83785272399001 1.27240685039143 2.28901317073582
| 29> H   2.31167340578204 2.52284411740894 1.00913016264629
| 30> H   1.28982602448342 2.08257620823614 2.38710022492991
| 31> H   2.77390820759972 1.19140411795486 2.06045858523949
| 32> H   -1.41857211141493 3.00964947214868 -0.16882755561625
| 33> H   -0.09065531563179 3.29799318042223 0.95389844358819
| 34> H   0.23426221611057 3.12492645074476 -0.77764887675592
| 35> H   -0.46772570547622 -2.21560145172536 1.0787081584806
| 36> H   -2.71769301149571 -0.17090724573546 2.06627440900372
| 37> H   2.60065167263658 -1.49057255715425 -1.3966820077142
| 38> H   -2.27169977231386 -0.32388339999036 -1.91951041514436
| 39> *
| 40>
| 41>                          ****END OF INPUT****
 Total Charge           Charge          ....    0
 Multiplicity           Mult            ....    1
 Number of Electrons    NEL             ....  132
Dispersion correction           -0.051573349
FINAL SINGLE POINT ENERGY      -908.575382549647
Dispersion correction             ... done (  0.0 sec)
Dispersion correction           -0.052256222
FINAL SINGLE POINT ENERGY      -908.636174130913
Dispersion correction             ... done (  0.0 sec)
Dispersion correction           -0.052907545
FINAL SINGLE POINT ENERGY      -908.690152191197
Dispersion correction             ... done (  0.0 sec)
FINAL SINGLE POINT ENERGY      -908.757485052250
FINAL SINGLE POINT ENERGY      -908.815734666848
FINAL SINGLE POINT ENERGY      -908.852389254096
FINAL SINGLE POINT ENERGY      -908.874443156019
FINAL SINGLE POINT ENERGY      -908.898005419727
FINAL SINGLE POINT ENERGY      -908.912239717213
FINAL SINGLE POINT ENERGY      -908.919051637217
FINAL SINGLE POINT ENERGY      -908.934862999052
FINAL SINGLE POINT ENERGY      -908.935118176027
FINAL SINGLE POINT ENERGY      -908.935342516625
FINAL SINGLE POINT ENERGY      -908.935501964976
FINAL SINGLE POINT ENERGY      -908.935614258604
FINAL SINGLE POINT ENERGY      -908.935673274532
FINAL SINGLE POINT ENERGY      -908.935699484864
Dispersion correction             ... done (  0.0 sec)
Dispersion correction           -0.059161828
FINAL SINGLE POINT ENERGY      -908.935708637337
Dispersion correction             ... done (  0.0 sec)
Dispersion correction           -0.059154527
FINAL SINGLE POINT ENERGY      -908.935712226773
Dispersion correction             ... done (  0.0 sec)
                    ***********************HURRAY********************

CARTESIAN COORDINATES (ANGSTROEM)
---------------------------------
  O      2.553055    1.190460   -0.501979
  O     -0.630466    0.846396   -2.288925
  O      0.577125   -2.763129   -1.542895
  O     -2.457717   -1.618609    1.062301
  N      0.641443   -2.121078    0.640466
  N     -2.011509    0.582225    1.436348
  N      1.671755   -0.842628   -0.976706
  N     -1.612762   -0.340069   -0.630146
  C      1.500491    0.013428    1.266879
  C     -0.903458    1.925736   -0.190553
  C      0.871426   -1.130139    1.565512
  C     -1.432658    1.763639    1.026608
  C      1.769146    1.101671    2.254302
  C     -0.229002    3.176693   -0.652121
  C      1.966709    0.204786   -0.106699
  C     -1.017738    0.818329   -1.142461
  C      0.938111   -1.974996   -0.697701
  C     -2.062684   -0.546437    0.652057
  H      0.498687   -1.339950    2.556750
  H     -1.413381    2.546455    1.769528
  H      1.355219    2.044560    1.901086
  H      1.334384    0.862044    3.222408
  H      2.839124    1.256641    2.380022
  H     -0.710483    3.563325   -1.547900
  H     -0.258792    3.938966    0.123288
  H      0.809440    2.968910   -0.903369
  H      0.002023   -2.867066    0.855435
  H     -2.350830    0.470481    2.374168
  H      1.858678   -0.676275   -1.953873
  H     -1.642737   -1.139367   -1.247231

 Multiplicity           Mult            ....    1
 Number of Electrons    NEL             ....  132
 Basis Dimension        Dim             ....  882

ORBITAL ENERGIES
----------------

  NO   OCC          E(Eh)            E(eV)
   0   2.0000     -19.329347      -525.9783
   1   2.0000     -19.323596      -525.8218
   2   2.0000     -19.319944      -525.7224
   3   2.0000     -19.319327      -525.7056
   4   2.0000     -14.585991      -396.9050
   5   2.0000     -14.574644      -396.5962
   6   2.0000     -14.571325      -396.5059
   7   2.0000     -14.563244      -396.2860
   8   2.0000     -10.515865      -286.1512
   9   2.0000     -10.505851      -285.8787
  10   2.0000     -10.479183      -285.1531
  11   2.0000     -10.475201      -285.0447
  12   2.0000     -10.431714      -283.8614
  13   2.0000     -10.428810      -283.7823
  14   2.0000     -10.380153      -282.4583
  15   2.0000     -10.378362      -282.4096
  16   2.0000     -10.360418      -281.9213
  17   2.0000     -10.349111      -281.6136
  18   2.0000      -1.228581       -33.4314
  19   2.0000      -1.219189       -33.1758
  20   2.0000      -1.194556       -32.5055
  21   2.0000      -1.188954       -32.3531
  22   2.0000      -1.124211       -30.5913
  23   2.0000      -1.116269       -30.3752
  24   2.0000      -1.070990       -29.1431
  25   2.0000      -1.063673       -28.9440
  26   2.0000      -0.957731       -26.0612
  27   2.0000      -0.953914       -25.9573
  28   2.0000      -0.847794       -23.0696
  29   2.0000      -0.845807       -23.0156
  30   2.0000      -0.810688       -22.0599
  31   2.0000      -0.806776       -21.9535
  32   2.0000      -0.795327       -21.6419
  33   2.0000      -0.787396       -21.4261
  34   2.0000      -0.695951       -18.9378
  35   2.0000      -0.692596       -18.8465
  36   2.0000      -0.690539       -18.7905
  37   2.0000      -0.687031       -18.6951
  38   2.0000      -0.643573       -17.5125
  39   2.0000      -0.637446       -17.3458
  40   2.0000      -0.633788       -17.2463
  41   2.0000      -0.598153       -16.2766
  42   2.0000      -0.596335       -16.2271
  43   2.0000      -0.591431       -16.0937
  44   2.0000      -0.568895       -15.4804
  45   2.0000      -0.562386       -15.3033
  46   2.0000      -0.559729       -15.2310
  47   2.0000      -0.550468       -14.9790
  48   2.0000      -0.548992       -14.9388
  49   2.0000      -0.545122       -14.8335
  50   2.0000      -0.518796       -14.1171
  51   2.0000      -0.517249       -14.0751
  52   2.0000      -0.513996       -13.9865
  53   2.0000      -0.513462       -13.9720
  54   2.0000      -0.504052       -13.7160
  55   2.0000      -0.496932       -13.5222
  56   2.0000      -0.480334       -13.0706
  57   2.0000      -0.470603       -12.8058
  58   2.0000      -0.421337       -11.4652
  59   2.0000      -0.412392       -11.2218
  60   2.0000      -0.405396       -11.0314
  61   2.0000      -0.395885       -10.7726
  62   2.0000      -0.387739       -10.5509
  63   2.0000      -0.383261       -10.4291
  64   2.0000      -0.348137        -9.4733
  65   2.0000      -0.342878        -9.3302
  66   0.0000       0.010795         0.2937
  67   0.0000       0.018653         0.5076
  68   0.0000       0.024194         0.6584
  69   0.0000       0.034451         0.9374
  70   0.0000       0.040985         1.1153

MULLIKEN ATOMIC CHARGES
-----------------------
   0 O :   -0.676806
   1 O :   -0.658222
   2 O :   -0.643173
   3 O :   -0.669724
   4 N :   -0.049897
   5 N :    0.001796
   6 N :    0.035210
   7 N :    0.041545
   8 C :    0.784877
   9 C :    0.631067
  10 C :    0.108940
  11 C :   -0.021710
  12 C :   -1.453717
  13 C :   -1.421874
  14 C :    0.345504
  15 C :    0.554590
  16 C :    0.345727
  17 C :    0.446420
  18 H :    0.153544
  19 H :    0.149270
  20 H :    0.221113
  21 H :    0.337509
  22 H :    0.364478
  23 H :    0.365357
  24 H :    0.329729
  25 H :    0.218529
  26 H :    0.065027
  27 H :    0.018338
  28 H :    0.040972
  29 H :    0.035583
Sum of atomic charges:    0.0000000

LOEWDIN ATOMIC CHARGES
----------------------
   0 O :    0.089654
   1 O :    0.102909
   2 O :    0.086091
   3 O :    0.071819
   4 N :    0.278250
   5 N :    0.283116
   6 N :    0.343231
   7 N :    0.345774
   8 C :   -0.139385
   9 C :   -0.137013
  10 C :    0.046021
  11 C :    0.047679
  12 C :    0.176617
  13 C :    0.183800
  14 C :   -0.397965
  15 C :   -0.392470
  16 C :   -0.486829
  17 C :   -0.489635
  18 H :    0.040637
  19 H :    0.037654
  20 H :   -0.014147
  21 H :   -0.005692
  22 H :    0.002313
  23 H :    0.001265
  24 H :   -0.005395
  25 H :   -0.014120
  26 H :   -0.021254
  27 H :   -0.020332
  28 H :   -0.003079
  29 H :   -0.009513

  Mayer bond orders larger than 0.100000
B(  0-O , 14-C ) :   1.4692 B(  1-O , 15-C ) :   1.4393 B(  2-O , 16-C ) :   1.5729
B(  3-O , 17-C ) :   1.5330 B(  4-N , 10-C ) :   0.8594 B(  4-N , 16-C ) :   1.0051
B(  4-N , 26-H ) :   1.1095 B(  5-N , 11-C ) :   0.9524 B(  5-N , 17-C ) :   1.0382
B(  5-N , 27-H ) :   1.1337 B(  6-N , 14-C ) :   1.0066 B(  6-N , 16-C ) :   0.9104
B(  6-N , 28-H ) :   1.0988 B(  7-N , 15-C ) :   0.9922 B(  7-N , 17-C ) :   0.9375
B(  7-N , 29-H ) :   1.1184 B(  8-C , 10-C ) :   1.1138 B(  8-C , 12-C ) :   0.3411
B(  8-C , 14-C ) :   0.7587 B(  9-C , 11-C ) :   1.2229 B(  9-C , 13-C ) :   0.3555
B(  9-C , 15-C ) :   0.7790 B(  9-C , 24-H ) :  -0.1002 B(  9-C , 25-H ) :  -0.1026
B( 10-C , 12-C ) :  -0.1370 B( 10-C , 18-H ) :   1.1236 B( 11-C , 13-C ) :  -0.1930
B( 11-C , 19-H ) :   1.1187 B( 12-C , 20-H ) :   1.0167 B( 12-C , 21-H ) :   1.0015
B( 12-C , 22-H ) :   0.9183 B( 13-C , 23-H ) :   0.8972 B( 13-C , 24-H ) :   1.0259
B( 13-C , 25-H ) :   1.0076

Dispersion correction           -0.059152184
FINAL SINGLE POINT ENERGY      -908.935713707619

DIPOLE MOMENT
-------------

Method             : SCF
Type of density    : Electron Density
Multiplicity       :   1
Irrep              :   0
Energy             :  -908.8765615235796531 Eh
Relativity type    :
Basis              : AO
                                X                 Y                 Z
Electronic contribution:     -2.665327205      -9.957979618      -5.862696368
Nuclear contribution   :      2.105265189      10.843196240       8.373726928
                        -----------------------------------------
Total Dipole Moment    :     -0.560062016       0.885216622       2.511030560
                        -----------------------------------------
Magnitude (a.u.)       :      2.720763202
Magnitude (Debye)      :      6.915630465

Rotational constants in cm-1:             0.017192             0.016106             0.013553
Rotational constants in MHz :           515.411443           482.834313           406.308918

                             ****ORCA TERMINATED NORMALLY****
TOTAL RUN TIME: 0 days 1 hours 39 minutes 21 seconds 8 msec
