                         Program Version 6.0.0  -   RELEASE  -
|  1> ! Engrad def2-TZVPPD wB97M-D3BJ
|  2> %pal nprocs 8 end%pal nprocs 64 end
|  3> %tddft
|  4>  Iroot 2 Nroots 3
|  5> sf true
|  6> end
|  7> *xyz 0 3
|  8> O   0.64877679 0.38601924 -0.97472761
|  9> C   0.40238276 -0.47548906 0.013274
| 10> C   0.22237912 0.28765796 1.26707333
| 11> H   1.25881348 -1.23819414 0.25319484
| 12> H   -0.49736456 -1.11860837 -0.1677579
| 13> H   0.7411609 1.29171637 1.43185382
| 14> H   -0.55356048 -0.09772293 1.96753752
| 15> *
| 16>
| 17>                          ****END OF INPUT****

CARTESIAN COORDINATES (ANGSTROEM)
---------------------------------
  O      0.648777    0.386019   -0.974728
  C      0.402383   -0.475489    0.013274
  C      0.222379    0.287658    1.267073
  H      1.258813   -1.238194    0.253195
  H     -0.497365   -1.118608   -0.167758
  H      0.741161    1.291716    1.431854
  H     -0.553560   -0.097723    1.967538

 Total Charge           Charge          ....    0
 Multiplicity           Mult            ....    3
 Number of Electrons    NEL             ....   24
 Basis Dimension        Dim             ....  182

ORBITAL ENERGIES
----------------
                 SPIN UP ORBITALS
  NO   OCC          E(Eh)            E(eV)
   0   1.0000     -19.388932      -527.5997
   1   1.0000     -10.419743      -283.5356
   2   1.0000     -10.381084      -282.4836
   3   1.0000      -1.182975       -32.1904
   4   1.0000      -0.875977       -23.8365
   5   1.0000      -0.722532       -19.6611
   6   1.0000      -0.603447       -16.4206
   7   1.0000      -0.600962       -16.3530
   8   1.0000      -0.560062       -15.2400
   9   1.0000      -0.510389       -13.8884
  10   1.0000      -0.437400       -11.9022
  11   1.0000      -0.413135       -11.2420
  12   1.0000      -0.319141        -8.6843
  13   0.0000       0.041367         1.1257
  14   0.0000       0.059607         1.6220
  15   0.0000       0.078687         2.1412
  16   0.0000       0.084337         2.2949
  17   0.0000       0.110981         3.0200

                 SPIN DOWN ORBITALS
  NO   OCC          E(Eh)            E(eV)
   0   1.0000     -19.366225      -526.9818
   1   1.0000     -10.421196      -283.5752
   2   1.0000     -10.366024      -282.0738
   3   1.0000      -1.132586       -30.8192
   4   1.0000      -0.840456       -22.8700
   5   1.0000      -0.694367       -18.8947
   6   1.0000      -0.586664       -15.9639
   7   1.0000      -0.551377       -15.0037
   8   1.0000      -0.520376       -14.1602
   9   1.0000      -0.493926       -13.4404
  10   1.0000      -0.382257       -10.4017
  11   0.0000      -0.062012        -1.6874
  12   0.0000       0.004998         0.1360
  13   0.0000       0.041471         1.1285
  14   0.0000       0.060390         1.6433
  15   0.0000       0.078805         2.1444

----------------------------------------------------------------------------------------------------
          SPIN FLIP ABSORPTION SPECTRUM VIA TRANSITION ELECTRIC DIPOLE MOMENTS
----------------------------------------------------------------------------------------------------
     Transition      Energy     Energy  Wavelength fosc(D2)      D2        DX        DY        DZ
                      (eV)      (cm-1)    (nm)                 (au**2)    (au)      (au)      (au)
----------------------------------------------------------------------------------------------------
  1-3A  ->  2-3A    0.516984    4169.8  2398.2   0.000176460   0.01393   0.06449   0.09883   0.00229
  1-3A  ->  3-1A    1.123291    9060.0  1103.8   0.065031401   2.36305   0.26455  -0.07751  -1.51230

Dispersion correction             ... done (  0.1 sec)

MULLIKEN ATOMIC CHARGES AND SPIN DENSITIES
------------------------------------------
   0 O :   -0.340152    0.542643
   1 C :   -0.076965   -0.032686
   2 C :   -0.291701   -0.378123
   3 H :    0.214928    0.025555
   4 H :    0.215867   -0.030932
   5 H :    0.156726   -0.063164
   6 H :    0.121298   -0.063294
Sum of atomic charges       :    0.0000000

LOEWDIN ATOMIC CHARGES AND SPIN DENSITIES
-----------------------------------------
   0 O :    0.058651    0.500048
   1 C :   -0.330921   -0.011109
   2 C :    0.229859   -0.406839
   3 H :    0.086605    0.029595
   4 H :    0.032844   -0.017807
   5 H :   -0.021249   -0.046067
   6 H :   -0.055789   -0.047821

  Mayer bond orders larger than 0.100000
B(  0-O ,  1-C ) :   0.9049 B(  1-C ,  2-C ) :   0.8704 B(  1-C ,  3-H ) :   0.8952
B(  1-C ,  4-H ) :   0.9700 B(  2-C ,  5-H ) :   0.9965 B(  2-C ,  6-H ) :   1.0400

Dispersion correction           -0.005540101
FINAL SINGLE POINT ENERGY      -153.741704475044

DIPOLE MOMENT
-------------

Method             : TDA/CIS
Type of density    : Electron Density
Level              : Relaxed density
State              :   2
Multiplicity       :   3
Irrep              :   0
Energy             :     0.0000000000000000 Eh
Relativity type    :
Basis              : AO
                                X                 Y                 Z
Electronic contribution:      0.621091595       0.774280585      -2.503323625
Nuclear contribution   :     -0.711298713      -1.320205603       2.973063142
                        -----------------------------------------
Total Dipole Moment    :     -0.090207118      -0.545925018       0.469739517
                        -----------------------------------------
Magnitude (a.u.)       :      0.725828260
Magnitude (Debye)      :      1.844908820

Rotational constants in cm-1:             1.320236             0.382601             0.321327
Rotational constants in MHz :         39579.666181         11470.103376          9633.150608

                             ****ORCA TERMINATED NORMALLY****
TOTAL RUN TIME: 0 days 0 hours 0 minutes 27 seconds 408 msec
