                         Program Version 6.0.0  -   RELEASE  -
|  1> ! Engrad def2-TZVPPD wB97M-D3BJ
|  2> %pal nprocs 8 end%pal nprocs 32 end
|  3> %tddft Nroots 2 Iroot 2
|  4> sf true
|  5> end
|  6> *xyz 0 3
|  7> O   0.42622166 1.41313651 -0.03310847
|  8> C   0.79309923 0.14308468 -0.15672196
|  9> C   -0.37212705 -0.85800638 0.23993707
| 10> H   -0.89474212 -0.5112196 1.11739281
| 11> H   1.65684237 -0.26584204 -0.58329684
| 12> H   0.15775056 -1.72315062 0.4070083
| 13> H   -1.03733001 -0.71624755 -0.55956114
| 14> *
| 15>
| 16>                          ****END OF INPUT****

CARTESIAN COORDINATES (ANGSTROEM)
---------------------------------
  O      0.426222    1.413137   -0.033108
  C      0.793099    0.143085   -0.156722
  C     -0.372127   -0.858006    0.239937
  H     -0.894742   -0.511220    1.117393
  H      1.656842   -0.265842   -0.583297
  H      0.157751   -1.723151    0.407008
  H     -1.037330   -0.716248   -0.559561

 Total Charge           Charge          ....    0
 Multiplicity           Mult            ....    3
 Number of Electrons    NEL             ....   24
 Basis Dimension        Dim             ....  182

ORBITAL ENERGIES
----------------
                 SPIN UP ORBITALS
  NO   OCC          E(Eh)            E(eV)
   0   1.0000     -19.417864      -528.3869
   1   1.0000     -10.395722      -282.8820
   2   1.0000     -10.360976      -281.9365
   3   1.0000      -1.192536       -32.4505
   4   1.0000      -0.881243       -23.9798
   5   1.0000      -0.730424       -19.8759
   6   1.0000      -0.619549       -16.8588
   7   1.0000      -0.573199       -15.5975
   8   1.0000      -0.561829       -15.2882
   9   1.0000      -0.529940       -14.4204
  10   1.0000      -0.501983       -13.6596
  11   1.0000      -0.435922       -11.8620
  12   1.0000      -0.256579        -6.9819
  13   0.0000       0.041681         1.1342
  14   0.0000       0.061136         1.6636
  15   0.0000       0.077897         2.1197
  16   0.0000       0.090461         2.4616
  17   0.0000       0.107855         2.9349

                 SPIN DOWN ORBITALS
  NO   OCC          E(Eh)            E(eV)
   0   1.0000     -19.390135      -527.6324
   1   1.0000     -10.384056      -282.5645
   2   1.0000     -10.359014      -281.8831
   3   1.0000      -1.128676       -30.7128
   4   1.0000      -0.863082       -23.4857
   5   1.0000      -0.693111       -18.8605
   6   1.0000      -0.583913       -15.8891
   7   1.0000      -0.547436       -14.8965
   8   1.0000      -0.513738       -13.9795
   9   1.0000      -0.491149       -13.3648
  10   1.0000      -0.451501       -12.2860
  11   0.0000      -0.075873        -2.0646
  12   0.0000       0.039932         1.0866
  13   0.0000       0.057258         1.5581
  14   0.0000       0.061703         1.6790
  15   0.0000       0.078485         2.1357

----------------------------------------------------------------------------------------------------
          SPIN FLIP ABSORPTION SPECTRUM VIA TRANSITION ELECTRIC DIPOLE MOMENTS
----------------------------------------------------------------------------------------------------
     Transition      Energy     Energy  Wavelength fosc(D2)      D2        DX        DY        DZ
                      (eV)      (cm-1)    (nm)                 (au**2)    (au)      (au)      (au)
----------------------------------------------------------------------------------------------------
  1-3A  ->  2-3A    3.348595   27008.2   370.3   0.000128033   0.00156  -0.03317  -0.02088  -0.00493

Dispersion correction             ... done (  0.1 sec)

MULLIKEN ATOMIC CHARGES AND SPIN DENSITIES
------------------------------------------
   0 O :   -0.262180    0.741941
   1 C :    0.196580   -0.719895
   2 C :   -0.845873    0.138342
   3 H :    0.212942   -0.022770
   4 H :    0.120829   -0.071353
   5 H :    0.316712   -0.013890
   6 H :    0.260990   -0.052374
Sum of atomic charges       :   -0.0000000

LOEWDIN ATOMIC CHARGES AND SPIN DENSITIES
-----------------------------------------
   0 O :    0.092820    0.569604
   1 C :   -0.090477   -0.495753
   2 C :    0.200161    0.009835
   3 H :   -0.017240   -0.005923
   4 H :   -0.073150   -0.073090
   5 H :   -0.063211    0.011241
   6 H :   -0.048905   -0.015914

  Mayer bond orders larger than 0.100000
B(  0-O ,  1-C ) :   1.1435 B(  0-O ,  2-C ) :   0.1246 B(  1-C ,  2-C ) :   0.7104
B(  1-C ,  4-H ) :   1.0626 B(  2-C ,  3-H ) :   1.0178 B(  2-C ,  5-H ) :   0.9031
B(  2-C ,  6-H ) :   0.9477

Dispersion correction           -0.005577600
FINAL SINGLE POINT ENERGY      -153.754229788236

DIPOLE MOMENT
-------------

Method             : TDA/CIS
Type of density    : Electron Density
Level              : Relaxed density
State              :   2
Multiplicity       :   3
Irrep              :   0
Energy             :     0.0000000000000000 Eh
Relativity type    :
Basis              : AO
                                X                 Y                 Z
Electronic contribution:      0.991862127       3.310723171      -0.365894758
Nuclear contribution   :     -1.109393170      -3.918603700       0.284396106
                        -----------------------------------------
Total Dipole Moment    :     -0.117531043      -0.607880529      -0.081498653
                        -----------------------------------------
Magnitude (a.u.)       :      0.624479235
Magnitude (Debye)      :      1.587300069

Rotational constants in cm-1:             1.484512             0.343018             0.293316
Rotational constants in MHz :         44504.542627         10283.409295          8793.384942

                             ****ORCA TERMINATED NORMALLY****
TOTAL RUN TIME: 0 days 0 hours 0 minutes 55 seconds 225 msec
