                         Program Version 6.0.0  -   RELEASE  -
|  1> ! Engrad def2-TZVPPD wB97M-D3BJ
|  2> %pal nprocs 8 end%pal nprocs 32 end
|  3>  %tddft nroots 2 Iroot 1
|  4> sf true
|  5> end
|  6> *xyz 0 3
|  7> O   2.85780023558126 1.06469306303171 -0.7177749569668
|  8> O   -0.4179655029564 0.84159844144994 -2.05060439849592
|  9> O   0.52952674382665 -2.75503247705106 -1.47628306382903
| 10> O   -2.61016787135074 -1.74952644110218 0.96465739124612
| 11> N   0.71461292566922 -2.0058438254777 0.66440952592083
| 12> N   -2.46927831734086 0.49288021567078 1.34099297153821
| 13> N   1.82828142999323 -0.92982546852146 -1.04265484682633
| 14> N   -1.61196055985153 -0.41222634469013 -0.59183753861898
| 15> C   1.7679544292325 0.0799660063728 1.14227651724152
| 16> C   -1.11594896132765 1.88406470477328 -0.03599723432356
| 17> C   1.04887530875773 -0.98348625186437 1.52258671613096
| 18> C   -1.89466081219634 1.71050376496896 1.03599152418026
| 19> C   2.13126935429952 1.20897287734382 2.05141844298528
| 20> C   -0.41869286693283 3.16118795324704 -0.37842762996194
| 21> C   2.21407784197622 0.15099078146584 -0.25038775488016
| 22> C   -0.99837629163375 0.77741124077463 -0.98987162154123
| 23> C   0.99346702441868 -1.96278105652631 -0.68440569054293
| 24> C   -2.25880406417709 -0.64736544935218 0.59868972403001
| 25> H   0.68483381055346 -1.09873382830437 2.5326220747076
| 26> H   -2.0787498630585 2.49810860462271 1.75075857380453
| 27> H   1.70972402589341 2.14389272254224 1.68540550052188
| 28> H   1.76378098791623 1.02865171943261 3.05911604398869
| 29> H   3.21050258214175 1.34279193035847 2.08789641254898
| 30> H   -0.77996738901735 3.55609872036226 -1.32593122583357
| 31> H   -0.57062207307786 3.90736611935873 0.39806481302593
| 32> H   0.64937534138319 2.98491992448426 -0.49893821731961
| 33> H   0.02509100476854 -2.68755923804473 0.93385943194967
| 34> H   -2.9643960992872 0.35808130404691 2.20365499398542
| 35> H   1.98923609357988 -0.82955172458586 -2.03314213203143
| 36> H   -1.4762184677834 -1.21524798878667 -1.19154434663437
| 37> *
| 38>
| 39>                          ****END OF INPUT****

CARTESIAN COORDINATES (ANGSTROEM)
---------------------------------
  O      2.857800    1.064693   -0.717775
  O     -0.417966    0.841598   -2.050604
  O      0.529527   -2.755032   -1.476283
  O     -2.610168   -1.749526    0.964657
  N      0.714613   -2.005844    0.664410
  N     -2.469278    0.492880    1.340993
  N      1.828281   -0.929825   -1.042655
  N     -1.611961   -0.412226   -0.591838
  C      1.767954    0.079966    1.142277
  C     -1.115949    1.884065   -0.035997
  C      1.048875   -0.983486    1.522587
  C     -1.894661    1.710504    1.035992
  C      2.131269    1.208973    2.051418
  C     -0.418693    3.161188   -0.378428
  C      2.214078    0.150991   -0.250388
  C     -0.998376    0.777411   -0.989872
  C      0.993467   -1.962781   -0.684406
  C     -2.258804   -0.647365    0.598690
  H      0.684834   -1.098734    2.532622
  H     -2.078750    2.498109    1.750759
  H      1.709724    2.143893    1.685406
  H      1.763781    1.028652    3.059116
  H      3.210503    1.342792    2.087896
  H     -0.779967    3.556099   -1.325931
  H     -0.570622    3.907366    0.398065
  H      0.649375    2.984920   -0.498938
  H      0.025091   -2.687559    0.933859
  H     -2.964396    0.358081    2.203655
  H      1.989236   -0.829552   -2.033142
  H     -1.476218   -1.215248   -1.191544

 Total Charge           Charge          ....    0
 Multiplicity           Mult            ....    3
 Number of Electrons    NEL             ....  132
 Basis Dimension        Dim             ....  882

ORBITAL ENERGIES
----------------
                 SPIN UP ORBITALS
  NO   OCC          E(Eh)            E(eV)
   0   1.0000     -19.330708      -526.0153
   1   1.0000     -19.328449      -525.9538
   2   1.0000     -19.323153      -525.8097
   3   1.0000     -19.315833      -525.6105
   4   1.0000     -14.591757      -397.0619
   5   1.0000     -14.583912      -396.8484
   6   1.0000     -14.569870      -396.4663
   7   1.0000     -14.546157      -395.8211
   8   1.0000     -10.514589      -286.1165
   9   1.0000     -10.507743      -285.9302
  10   1.0000     -10.478945      -285.1466
  11   1.0000     -10.453431      -284.4523
  12   1.0000     -10.433793      -283.9180
  13   1.0000     -10.405100      -283.1372
  14   1.0000     -10.396006      -282.8897
  15   1.0000     -10.381859      -282.5047
  16   1.0000     -10.368344      -282.1370
  17   1.0000     -10.354636      -281.7640
  18   1.0000      -1.227849       -33.4115
  19   1.0000      -1.223248       -33.2863
  20   1.0000      -1.194091       -32.4929
  21   1.0000      -1.186400       -32.2836
  22   1.0000      -1.123103       -30.5612
  23   1.0000      -1.122808       -30.5532
  24   1.0000      -1.070262       -29.1233
  25   1.0000      -1.057862       -28.7859
  26   1.0000      -0.972789       -26.4709
  27   1.0000      -0.957645       -26.0589
  28   1.0000      -0.855362       -23.2756
  29   1.0000      -0.848382       -23.0856
  30   1.0000      -0.810762       -22.0620
  31   1.0000      -0.807003       -21.9597
  32   1.0000      -0.794336       -21.6150
  33   1.0000      -0.786120       -21.3914
  34   1.0000      -0.698825       -19.0160
  35   1.0000      -0.696129       -18.9426
  36   1.0000      -0.692277       -18.8378
  37   1.0000      -0.688315       -18.7300
  38   1.0000      -0.645078       -17.5535
  39   1.0000      -0.634868       -17.2756
  40   1.0000      -0.626505       -17.0481
  41   1.0000      -0.603890       -16.4327
  42   1.0000      -0.598044       -16.2736
  43   1.0000      -0.591624       -16.0989
  44   1.0000      -0.570488       -15.5238
  45   1.0000      -0.568258       -15.4631
  46   1.0000      -0.566886       -15.4258
  47   1.0000      -0.552116       -15.0238
  48   1.0000      -0.549282       -14.9467
  49   1.0000      -0.546393       -14.8681
  50   1.0000      -0.528635       -14.3849
  51   1.0000      -0.525790       -14.3075
  52   1.0000      -0.517700       -14.0873
  53   1.0000      -0.515868       -14.0375
  54   1.0000      -0.507108       -13.7991
  55   1.0000      -0.501286       -13.6407
  56   1.0000      -0.492886       -13.4121
  57   1.0000      -0.479080       -13.0364
  58   1.0000      -0.420987       -11.4556
  59   1.0000      -0.418162       -11.3788
  60   1.0000      -0.406661       -11.0658
  61   1.0000      -0.398152       -10.8343
  62   1.0000      -0.388452       -10.5703
  63   1.0000      -0.385204       -10.4819
  64   1.0000      -0.382994       -10.4218
  65   1.0000      -0.348125        -9.4730
  66   1.0000      -0.207316        -5.6413
  67   0.0000       0.011797         0.3210
  68   0.0000       0.020335         0.5533
  69   0.0000       0.033202         0.9035
  70   0.0000       0.037160         1.0112
  71   0.0000       0.044554         1.2124

                 SPIN DOWN ORBITALS
  NO   OCC          E(Eh)            E(eV)
   0   1.0000     -19.328840      -525.9645
   1   1.0000     -19.328437      -525.9535
   2   1.0000     -19.323168      -525.8101
   3   1.0000     -19.309460      -525.4371
   4   1.0000     -14.586449      -396.9175
   5   1.0000     -14.583783      -396.8449
   6   1.0000     -14.569887      -396.4668
   7   1.0000     -14.545242      -395.7961
   8   1.0000     -10.514591      -286.1166
   9   1.0000     -10.508114      -285.9403
  10   1.0000     -10.478934      -285.1463
  11   1.0000     -10.453159      -284.4449
  12   1.0000     -10.433666      -283.9145
  13   1.0000     -10.395601      -282.8787
  14   1.0000     -10.385854      -282.6134
  15   1.0000     -10.381873      -282.5051
  16   1.0000     -10.368809      -282.1496
  17   1.0000     -10.354628      -281.7637
  18   1.0000      -1.227298       -33.3965
  19   1.0000      -1.219407       -33.1817
  20   1.0000      -1.194049       -32.4917
  21   1.0000      -1.176954       -32.0266
  22   1.0000      -1.122720       -30.5508
  23   1.0000      -1.111966       -30.2581
  24   1.0000      -1.070188       -29.1213
  25   1.0000      -1.052329       -28.6353
  26   1.0000      -0.957865       -26.0648
  27   1.0000      -0.948437       -25.8083
  28   1.0000      -0.848314       -23.0838
  29   1.0000      -0.844127       -22.9699
  30   1.0000      -0.810657       -22.0591
  31   1.0000      -0.796510       -21.6741
  32   1.0000      -0.793493       -21.5920
  33   1.0000      -0.779345       -21.2071
  34   1.0000      -0.696001       -18.9391
  35   1.0000      -0.692354       -18.8399
  36   1.0000      -0.686901       -18.6915
  37   1.0000      -0.680124       -18.5071
  38   1.0000      -0.643748       -17.5173
  39   1.0000      -0.627100       -17.0643
  40   1.0000      -0.620263       -16.8782
  41   1.0000      -0.598005       -16.2725
  42   1.0000      -0.591845       -16.1049
  43   1.0000      -0.583396       -15.8750
  44   1.0000      -0.568177       -15.4609
  45   1.0000      -0.561328       -15.2745
  46   1.0000      -0.555713       -15.1217
  47   1.0000      -0.551204       -14.9990
  48   1.0000      -0.541193       -14.7266
  49   1.0000      -0.539404       -14.6779
  50   1.0000      -0.520071       -14.1518
  51   1.0000      -0.518219       -14.1014
  52   1.0000      -0.516645       -14.0586
  53   1.0000      -0.503636       -13.7046
  54   1.0000      -0.501774       -13.6540
  55   1.0000      -0.497991       -13.5510
  56   1.0000      -0.478352       -13.0166
  57   1.0000      -0.446547       -12.1512
  58   1.0000      -0.420223       -11.4348
  59   1.0000      -0.413205       -11.2439
  60   1.0000      -0.403156       -10.9704
  61   1.0000      -0.388018       -10.5585
  62   1.0000      -0.376605       -10.2479
  63   1.0000      -0.373988       -10.1767
  64   1.0000      -0.347849        -9.4655
  65   0.0000      -0.104781        -2.8512
  66   0.0000       0.010789         0.2936
  67   0.0000       0.020536         0.5588
  68   0.0000       0.030668         0.8345
  69   0.0000       0.036261         0.9867

----------------------------------------------------------------------------------------------------
          SPIN FLIP ABSORPTION SPECTRUM VIA TRANSITION ELECTRIC DIPOLE MOMENTS
----------------------------------------------------------------------------------------------------
     Transition      Energy     Energy  Wavelength fosc(D2)      D2        DX        DY        DZ
                      (eV)      (cm-1)    (nm)                 (au**2)    (au)      (au)      (au)
----------------------------------------------------------------------------------------------------
  1-3A  ->  2-3A    4.244406   34233.4   292.1   0.001928772   0.01855  -0.06876  -0.08412   0.08213

Dispersion correction             ... done (  0.1 sec)

MULLIKEN ATOMIC CHARGES AND SPIN DENSITIES
------------------------------------------
   0 O :   -0.678022    0.036381
   1 O :   -0.650634    0.000803
   2 O :   -0.640798    0.007302
   3 O :   -0.663695    0.000490
   4 N :   -0.030019    0.054582
   5 N :   -0.046934    0.003135
   6 N :    0.019771    0.003232
   7 N :    0.007314   -0.001319
   8 C :    1.063548    0.534485
   9 C :    0.495224    0.005956
  10 C :   -0.183372   -0.434411
  11 C :    0.070354   -0.002195
  12 C :   -1.365732   -0.036909
  13 C :   -1.401224    0.004622
  14 C :    0.255804   -0.251945
  15 C :    0.631776   -0.008370
  16 C :    0.376525    0.019544
  17 C :    0.449241   -0.001734
  18 H :    0.165252    0.037118
  19 H :    0.136961   -0.000988
  20 H :    0.219585    0.018923
  21 H :    0.343241    0.013060
  22 H :    0.324969    0.000397
  23 H :    0.354776    0.000227
  24 H :    0.327691    0.000986
  25 H :    0.219132   -0.004346
  26 H :    0.078045    0.000397
  27 H :    0.023810   -0.000187
  28 H :    0.034590    0.003120
  29 H :    0.062822   -0.002356
Sum of atomic charges       :   -0.0000000

LOEWDIN ATOMIC CHARGES AND SPIN DENSITIES
-----------------------------------------
   0 O :    0.085669    0.029855
   1 O :    0.103154    0.000427
   2 O :    0.085199    0.005881
   3 O :    0.073899   -0.000029
   4 N :    0.287066    0.023690
   5 N :    0.277076    0.000346
   6 N :    0.339086    0.000090
   7 N :    0.341476   -0.000205
   8 C :   -0.134394   -0.033506
   9 C :   -0.134923   -0.000421
  10 C :    0.059194   -0.032178
  11 C :    0.060479   -0.001064
  12 C :    0.175858   -0.003661
  13 C :    0.179501    0.000151
  14 C :   -0.413958    0.009719
  15 C :   -0.388979    0.000107
  16 C :   -0.485892    0.000776
  17 C :   -0.483070   -0.000272
  18 H :    0.037761   -0.001999
  19 H :    0.035058   -0.000007
  20 H :   -0.012336   -0.000283
  21 H :   -0.007465    0.000320
  22 H :    0.001676   -0.000259
  23 H :    0.001693    0.000005
  24 H :   -0.006049    0.000017
  25 H :   -0.010157    0.000086
  26 H :   -0.021148    0.002193
  27 H :   -0.023134    0.000027
  28 H :   -0.003906    0.000209
  29 H :   -0.018436   -0.000013

  Mayer bond orders larger than 0.100000
B(  0-O , 14-C ) :   1.4526 B(  1-O , 15-C ) :   1.4366 B(  2-O , 16-C ) :   1.5789
B(  3-O , 17-C ) :   1.5486 B(  4-N , 10-C ) :   0.9081 B(  4-N , 16-C ) :   0.9594
B(  4-N , 26-H ) :   1.1087 B(  5-N , 11-C ) :   0.9697 B(  5-N , 17-C ) :   1.0492
B(  5-N , 27-H ) :   1.1348 B(  6-N , 14-C ) :   0.9378 B(  6-N , 16-C ) :   0.9520
B(  6-N , 28-H ) :   1.0975 B(  7-N , 15-C ) :   0.9637 B(  7-N , 17-C ) :   0.9665
B(  7-N , 29-H ) :   1.1030 B(  8-C , 10-C ) :   1.1367 B(  8-C , 12-C ) :   0.3548
B(  8-C , 14-C ) :   0.6805 B(  9-C , 11-C ) :   1.2397 B(  9-C , 13-C ) :   0.3620
B(  9-C , 15-C ) :   0.8657 B(  9-C , 25-H ) :  -0.1199 B( 10-C , 16-C ) :  -0.1053
B( 10-C , 18-H ) :   1.1178 B( 11-C , 13-C ) :  -0.1459 B( 11-C , 19-H ) :   1.0979
B( 12-C , 20-H ) :   1.0267 B( 12-C , 21-H ) :   0.9657 B( 12-C , 22-H ) :   0.9356
B( 13-C , 23-H ) :   0.9161 B( 13-C , 24-H ) :   1.0090 B( 13-C , 25-H ) :   1.0246

Dispersion correction           -0.056708049
FINAL SINGLE POINT ENERGY      -908.925743647182

DIPOLE MOMENT
-------------

Method             : TDA/CIS
Type of density    : Electron Density
Level              : Relaxed density
State              :   1
Multiplicity       :   3
Irrep              :   0
Energy             :     0.0000000000000000 Eh
Relativity type    :
Basis              : AO
                                X                 Y                 Z
Electronic contribution:     -2.783490149     -10.483990332      -5.976900955
Nuclear contribution   :      1.844777470      11.412073585       8.485929894
                        -----------------------------------------
Total Dipole Moment    :     -0.938712679       0.928083252       2.509028940
                        -----------------------------------------
Magnitude (a.u.)       :      2.835091928
Magnitude (Debye)      :      7.206230991

Rotational constants in cm-1:             0.017711             0.015033             0.012004
Rotational constants in MHz :           530.962211           450.674135           359.862734

                             ****ORCA TERMINATED NORMALLY****
TOTAL RUN TIME: 0 days 0 hours 35 minutes 24 seconds 902 msec
