                         Program Version 6.0.0  -   RELEASE  -
|  1> ! Engrad def2-TZVPPD wB97M-D3BJ
|  2> %pal nprocs 8 end%pal nprocs 64 end
|  3> %tddft Nroots 2 Iroot 1
|  4> sf true
|  5> end
|  6> *xyz 0 3
|  7> O   2.84570931 1.19740255 -0.41718739
|  8> O   -0.86201277 0.75621035 -2.28729301
|  9> O   1.1330828 -2.81654568 -1.67466947
| 10> O   -3.05417215 -1.28868454 1.30929597
| 11> N   0.59551465 -2.09320984 0.36651817
| 12> N   -2.36685822 0.85428126 1.55398555
| 13> N   1.93086607 -0.82562109 -1.10058542
| 14> N   -1.95603222 -0.24045931 -0.4713626
| 15> C   1.64899135 -0.08411935 1.18157264
| 16> C   -1.00392132 1.84621739 -0.15958357
| 17> C   0.79354746 -1.15585014 1.35369144
| 18> C   -1.43174542 1.79612678 1.19106919
| 19> C   1.91878382 0.87945869 2.22171254
| 20> C   -0.20015648 3.01526132 -0.7149349
| 21> C   2.26089552 0.20626403 -0.14781817
| 22> C   -1.19087461 0.82094198 -1.06999592
| 23> C   1.23752385 -1.91644738 -0.81585575
| 24> C   -2.46821372 -0.34560634 0.80946269
| 25> H   0.3932524 -1.42578511 2.30297709
| 26> H   -1.15869517 2.62585258 1.89302208
| 27> H   1.44228103 1.83341067 2.04995768
| 28> H   1.61700968 0.41213404 3.20545357
| 29> H   3.02031094 1.17762238 2.35347262
| 30> H   0.17214779 2.69513566 -1.64364266
| 31> H   -0.88509201 3.92915793 -0.83110065
| 32> H   0.61481864 3.16805015 0.03561109
| 33> H   -0.07661663 -2.90819638 0.51524545
| 34> H   -2.58163169 0.65913383 2.54085423
| 35> H   2.42410394 -0.91957912 -1.94229039
| 36> H   -1.9979126 -1.11858175 -1.02284591
| 37> *
| 38>
| 39>                          ****END OF INPUT****

CARTESIAN COORDINATES (ANGSTROEM)
---------------------------------
  O      2.845709    1.197403   -0.417187
  O     -0.862013    0.756210   -2.287293
  O      1.133083   -2.816546   -1.674669
  O     -3.054172   -1.288685    1.309296
  N      0.595515   -2.093210    0.366518
  N     -2.366858    0.854281    1.553986
  N      1.930866   -0.825621   -1.100585
  N     -1.956032   -0.240459   -0.471363
  C      1.648991   -0.084119    1.181573
  C     -1.003921    1.846217   -0.159584
  C      0.793547   -1.155850    1.353691
  C     -1.431745    1.796127    1.191069
  C      1.918784    0.879459    2.221713
  C     -0.200156    3.015261   -0.714935
  C      2.260896    0.206264   -0.147818
  C     -1.190875    0.820942   -1.069996
  C      1.237524   -1.916447   -0.815856
  C     -2.468214   -0.345606    0.809463
  H      0.393252   -1.425785    2.302977
  H     -1.158695    2.625853    1.893022
  H      1.442281    1.833411    2.049958
  H      1.617010    0.412134    3.205454
  H      3.020311    1.177622    2.353473
  H      0.172148    2.695136   -1.643643
  H     -0.885092    3.929158   -0.831101
  H      0.614819    3.168050    0.035611
  H     -0.076617   -2.908196    0.515245
  H     -2.581632    0.659134    2.540854
  H      2.424104   -0.919579   -1.942290
  H     -1.997913   -1.118582   -1.022846

 Total Charge           Charge          ....    0
 Multiplicity           Mult            ....    3
 Number of Electrons    NEL             ....  132
 Basis Dimension        Dim             ....  882

ORBITAL ENERGIES
----------------
                 SPIN UP ORBITALS
  NO   OCC          E(Eh)            E(eV)
   0   1.0000     -19.343442      -526.3618
   1   1.0000     -19.338816      -526.2359
   2   1.0000     -19.337296      -526.1946
   3   1.0000     -19.298202      -525.1308
   4   1.0000     -14.592868      -397.0921
   5   1.0000     -14.586332      -396.9143
   6   1.0000     -14.566085      -396.3633
   7   1.0000     -14.563766      -396.3002
   8   1.0000     -10.521738      -286.3111
   9   1.0000     -10.497280      -285.6455
  10   1.0000     -10.487208      -285.3714
  11   1.0000     -10.464946      -284.7657
  12   1.0000     -10.437247      -284.0119
  13   1.0000     -10.418922      -283.5133
  14   1.0000     -10.416639      -283.4512
  15   1.0000     -10.385759      -282.6109
  16   1.0000     -10.368972      -282.1541
  17   1.0000     -10.366631      -282.0904
  18   1.0000      -1.226454       -33.3735
  19   1.0000      -1.224689       -33.3255
  20   1.0000      -1.199310       -32.6349
  21   1.0000      -1.178377       -32.0653
  22   1.0000      -1.119800       -30.4713
  23   1.0000      -1.102619       -30.0038
  24   1.0000      -1.076025       -29.2801
  25   1.0000      -1.059693       -28.8357
  26   1.0000      -0.969807       -26.3898
  27   1.0000      -0.953772       -25.9535
  28   1.0000      -0.846595       -23.0370
  29   1.0000      -0.843309       -22.9476
  30   1.0000      -0.817942       -22.2573
  31   1.0000      -0.811932       -22.0938
  32   1.0000      -0.785573       -21.3765
  33   1.0000      -0.784265       -21.3409
  34   1.0000      -0.693566       -18.8729
  35   1.0000      -0.691154       -18.8073
  36   1.0000      -0.687215       -18.7001
  37   1.0000      -0.684941       -18.6382
  38   1.0000      -0.650141       -17.6912
  39   1.0000      -0.629625       -17.1330
  40   1.0000      -0.623785       -16.9741
  41   1.0000      -0.608979       -16.5712
  42   1.0000      -0.600377       -16.3371
  43   1.0000      -0.600098       -16.3295
  44   1.0000      -0.574471       -15.6321
  45   1.0000      -0.567832       -15.4515
  46   1.0000      -0.562026       -15.2935
  47   1.0000      -0.554507       -15.0889
  48   1.0000      -0.551090       -14.9959
  49   1.0000      -0.542892       -14.7728
  50   1.0000      -0.529534       -14.4094
  51   1.0000      -0.523727       -14.2513
  52   1.0000      -0.523130       -14.2351
  53   1.0000      -0.515926       -14.0391
  54   1.0000      -0.500459       -13.6182
  55   1.0000      -0.493058       -13.4168
  56   1.0000      -0.491402       -13.3717
  57   1.0000      -0.468021       -12.7355
  58   1.0000      -0.430049       -11.7022
  59   1.0000      -0.414710       -11.2848
  60   1.0000      -0.409919       -11.1545
  61   1.0000      -0.398755       -10.8507
  62   1.0000      -0.395979       -10.7751
  63   1.0000      -0.384841       -10.4721
  64   1.0000      -0.378210       -10.2916
  65   1.0000      -0.336997        -9.1701
  66   1.0000      -0.241472        -6.5708
  67   0.0000       0.011451         0.3116
  68   0.0000       0.012721         0.3462
  69   0.0000       0.029184         0.7941
  70   0.0000       0.036163         0.9840
  71   0.0000       0.039833         1.0839

                 SPIN DOWN ORBITALS
  NO   OCC          E(Eh)            E(eV)
   0   1.0000     -19.342091      -526.3251
   1   1.0000     -19.338813      -526.2359
   2   1.0000     -19.328365      -525.9515
   3   1.0000     -19.298186      -525.1303
   4   1.0000     -14.587894      -396.9568
   5   1.0000     -14.586266      -396.9125
   6   1.0000     -14.566090      -396.3635
   7   1.0000     -14.563098      -396.2820
   8   1.0000     -10.521913      -286.3158
   9   1.0000     -10.497278      -285.6455
  10   1.0000     -10.487210      -285.3715
  11   1.0000     -10.464552      -284.7549
  12   1.0000     -10.437129      -284.0087
  13   1.0000     -10.410452      -283.2828
  14   1.0000     -10.406023      -283.1623
  15   1.0000     -10.385721      -282.6098
  16   1.0000     -10.369288      -282.1627
  17   1.0000     -10.366539      -282.0879
  18   1.0000      -1.224814       -33.3289
  19   1.0000      -1.222956       -33.2783
  20   1.0000      -1.199267       -32.6337
  21   1.0000      -1.165260       -31.7083
  22   1.0000      -1.108948       -30.1760
  23   1.0000      -1.102472       -29.9998
  24   1.0000      -1.075995       -29.2793
  25   1.0000      -1.053379       -28.6639
  26   1.0000      -0.954269       -25.9670
  27   1.0000      -0.947100       -25.7719
  28   1.0000      -0.843096       -22.9418
  29   1.0000      -0.835203       -22.7270
  30   1.0000      -0.812441       -22.1076
  31   1.0000      -0.802652       -21.8413
  32   1.0000      -0.785507       -21.3747
  33   1.0000      -0.779506       -21.2114
  34   1.0000      -0.693486       -18.8707
  35   1.0000      -0.687140       -18.6980
  36   1.0000      -0.681564       -18.5463
  37   1.0000      -0.676014       -18.3953
  38   1.0000      -0.649845       -17.6832
  39   1.0000      -0.620902       -16.8956
  40   1.0000      -0.617287       -16.7972
  41   1.0000      -0.603049       -16.4098
  42   1.0000      -0.594855       -16.1868
  43   1.0000      -0.592658       -16.1270
  44   1.0000      -0.566977       -15.4282
  45   1.0000      -0.563780       -15.3412
  46   1.0000      -0.554560       -15.0903
  47   1.0000      -0.547295       -14.8927
  48   1.0000      -0.543373       -14.7859
  49   1.0000      -0.537420       -14.6240
  50   1.0000      -0.528492       -14.3810
  51   1.0000      -0.522941       -14.2299
  52   1.0000      -0.507559       -13.8114
  53   1.0000      -0.497329       -13.5330
  54   1.0000      -0.493201       -13.4207
  55   1.0000      -0.491553       -13.3758
  56   1.0000      -0.467660       -12.7257
  57   1.0000      -0.451469       -12.2851
  58   1.0000      -0.424584       -11.5535
  59   1.0000      -0.409868       -11.1531
  60   1.0000      -0.396946       -10.8014
  61   1.0000      -0.388389       -10.5686
  62   1.0000      -0.383632       -10.4392
  63   1.0000      -0.378258       -10.2929
  64   1.0000      -0.337174        -9.1750
  65   0.0000      -0.103663        -2.8208
  66   0.0000       0.010853         0.2953
  67   0.0000       0.013084         0.3560
  68   0.0000       0.027912         0.7595
  69   0.0000       0.033316         0.9066

----------------------------------------------------------------------------------------------------
          SPIN FLIP ABSORPTION SPECTRUM VIA TRANSITION ELECTRIC DIPOLE MOMENTS
----------------------------------------------------------------------------------------------------
     Transition      Energy     Energy  Wavelength fosc(D2)      D2        DX        DY        DZ
                      (eV)      (cm-1)    (nm)                 (au**2)    (au)      (au)      (au)
----------------------------------------------------------------------------------------------------
  1-3A  ->  2-3A    3.234503   26088.0   383.3   0.000959441   0.01211   0.00596  -0.03443  -0.10434

Dispersion correction             ... done (  0.1 sec)

MULLIKEN ATOMIC CHARGES AND SPIN DENSITIES
------------------------------------------
   0 O :   -0.592727   -0.000090
   1 O :   -0.718399    0.038004
   2 O :   -0.742597   -0.000139
   3 O :   -0.637768    0.009857
   4 N :   -0.036360   -0.000715
   5 N :   -0.056138    0.044142
   6 N :    0.154399    0.000310
   7 N :   -0.012313   -0.005212
   8 C :    0.834228   -0.004087
   9 C :    0.811086    0.496353
  10 C :   -0.206356    0.009586
  11 C :   -0.260519   -0.374405
  12 C :   -1.237264    0.003109
  13 C :   -1.349872   -0.010625
  14 C :    0.345671   -0.009824
  15 C :    0.393784   -0.259288
  16 C :    0.427845    0.004115
  17 C :    0.424935    0.015264
  18 H :    0.158526   -0.002112
  19 H :    0.232079    0.012923
  20 H :    0.129794   -0.003969
  21 H :    0.319267   -0.000493
  22 H :    0.318969   -0.000457
  23 H :    0.257592   -0.008656
  24 H :    0.385756    0.016754
  25 H :    0.320566    0.026013
  26 H :    0.145846   -0.000140
  27 H :    0.130580    0.000273
  28 H :   -0.017291   -0.000406
  29 H :    0.076680    0.003915
Sum of atomic charges       :   -0.0000000

LOEWDIN ATOMIC CHARGES AND SPIN DENSITIES
-----------------------------------------
   0 O :    0.130851    0.000119
   1 O :    0.035912    0.032287
   2 O :    0.029528   -0.000025
   3 O :    0.069409    0.008473
   4 N :    0.246368   -0.000122
   5 N :    0.261836    0.017471
   6 N :    0.367233   -0.000080
   7 N :    0.316936   -0.003773
   8 C :   -0.150293   -0.000775
   9 C :   -0.152260   -0.033440
  10 C :    0.059935   -0.000564
  11 C :    0.087999   -0.020583
  12 C :    0.118082   -0.000460
  13 C :    0.183473   -0.002840
  14 C :   -0.364115    0.000080
  15 C :   -0.394703    0.004325
  16 C :   -0.507646   -0.000020
  17 C :   -0.468993    0.000224
  18 H :    0.020858   -0.000036
  19 H :    0.059860   -0.001056
  20 H :   -0.033609   -0.000268
  21 H :    0.021550   -0.000014
  22 H :    0.044582    0.000003
  23 H :   -0.055953    0.000063
  24 H :    0.037802   -0.000343
  25 H :   -0.000037    0.000035
  26 H :    0.056744   -0.000006
  27 H :   -0.001657    0.001445
  28 H :   -0.033931    0.000015
  29 H :    0.014239   -0.000133

  Mayer bond orders larger than 0.100000
B(  0-O , 14-C ) :   1.5523 B(  1-O , 15-C ) :   1.2649 B(  2-O , 16-C ) :   1.4343
B(  3-O , 17-C ) :   1.5134 B(  4-N , 10-C ) :   1.0315 B(  4-N , 16-C ) :   1.0629
B(  4-N , 26-H ) :   1.0403 B(  5-N , 11-C ) :   0.9291 B(  5-N , 17-C ) :   1.0011
B(  5-N , 27-H ) :   0.9926 B(  6-N , 14-C ) :   0.9790 B(  6-N , 16-C ) :   1.1131
B(  6-N , 28-H ) :   1.0859 B(  7-N , 15-C ) :   0.8439 B(  7-N , 17-C ) :   0.9938
B(  7-N , 29-H ) :   1.0842 B(  8-C , 10-C ) :   1.1426 B(  8-C , 12-C ) :   0.2189
B(  8-C , 14-C ) :   0.8170 B(  8-C , 20-H ) :  -0.1187 B(  8-C , 21-H ) :  -0.1150
B(  9-C , 11-C ) :   1.0158 B(  9-C , 13-C ) :   0.5603 B(  9-C , 15-C ) :   0.8207
B(  9-C , 23-H ) :  -0.1027 B( 10-C , 18-H ) :   1.1063 B( 11-C , 15-C ) :   0.1996
B( 11-C , 19-H ) :   1.0323 B( 12-C , 20-H ) :   1.0642 B( 12-C , 21-H ) :   0.9774
B( 12-C , 22-H ) :   0.9767 B( 13-C , 23-H ) :   1.0785 B( 13-C , 24-H ) :   0.8556
B( 13-C , 25-H ) :   0.8786

Dispersion correction           -0.055048929
FINAL SINGLE POINT ENERGY      -908.856227025761

DIPOLE MOMENT
-------------

Method             : TDA/CIS
Type of density    : Electron Density
Level              : Relaxed density
State              :   1
Multiplicity       :   3
Irrep              :   0
Energy             :     0.0000000000000000 Eh
Relativity type    :
Basis              : AO
                                X                 Y                 Z
Electronic contribution:     -3.228254985      -8.409683002      -5.452518007
Nuclear contribution   :      2.896582495       9.264266369       8.310051803
                        -----------------------------------------
Total Dipole Moment    :     -0.331672490       0.854583367       2.857533796
                        -----------------------------------------
Magnitude (a.u.)       :      3.000969638
Magnitude (Debye)      :      7.627858624

Rotational constants in cm-1:             0.017672             0.013376             0.011676
Rotational constants in MHz :           529.798736           401.000652           350.024652

                             ****ORCA TERMINATED NORMALLY****
TOTAL RUN TIME: 0 days 0 hours 5 minutes 8 seconds 508 msec
