                         Program Version 6.0.0  -   RELEASE  -
|  1> ! Engrad def2-TZVPPD wB97M-D3BJ
|  2> %pal nprocs 8 end%pal nprocs 32 end
|  3> %tddft Nroots 2 Iroot 2
|  4> sf true
|  5> end
|  6> *xyz 0 3
|  7> O   0.55428876 1.09863009 0.2792104
|  8> C   0.58069148 -0.20350455 0.02239025
|  9> C   -0.76113314 -0.7319997 0.0175487
| 10> H   1.21963774 -0.81634765 0.71703067
| 11> H   1.04829631 -0.39716834 -0.9554095
| 12> H   -1.18732126 -1.27947419 -0.80405706
| 13> H   -1.43331035 -0.33458661 0.76501187
| 14> *
| 15>
| 16>                          ****END OF INPUT****

CARTESIAN COORDINATES (ANGSTROEM)
---------------------------------
  O      0.554289    1.098630    0.279210
  C      0.580691   -0.203505    0.022390
  C     -0.761133   -0.732000    0.017549
  H      1.219638   -0.816348    0.717031
  H      1.048296   -0.397168   -0.955410
  H     -1.187321   -1.279474   -0.804057
  H     -1.433310   -0.334587    0.765012

 Total Charge           Charge          ....    0
 Multiplicity           Mult            ....    3
 Number of Electrons    NEL             ....   24
 Basis Dimension        Dim             ....  182

ORBITAL ENERGIES
----------------
                 SPIN UP ORBITALS
  NO   OCC          E(Eh)            E(eV)
   0   1.0000     -19.388655      -527.5921
   1   1.0000     -10.409782      -283.2646
   2   1.0000     -10.356669      -281.8193
   3   1.0000      -1.187736       -32.3199
   4   1.0000      -0.881656       -23.9911
   5   1.0000      -0.734602       -19.9895
   6   1.0000      -0.622054       -16.9270
   7   1.0000      -0.600808       -16.3488
   8   1.0000      -0.561391       -15.2762
   9   1.0000      -0.511425       -13.9166
  10   1.0000      -0.439156       -11.9500
  11   1.0000      -0.415368       -11.3027
  12   1.0000      -0.317533        -8.6405
  13   0.0000       0.041282         1.1233
  14   0.0000       0.062019         1.6876
  15   0.0000       0.077467         2.1080
  16   0.0000       0.085638         2.3303
  17   0.0000       0.112709         3.0670

                 SPIN DOWN ORBITALS
  NO   OCC          E(Eh)            E(eV)
   0   1.0000     -19.365294      -526.9564
   1   1.0000     -10.411211      -283.3035
   2   1.0000     -10.343481      -281.4604
   3   1.0000      -1.136443       -30.9242
   4   1.0000      -0.848281       -23.0829
   5   1.0000      -0.708082       -19.2679
   6   1.0000      -0.592838       -16.1319
   7   1.0000      -0.554312       -15.0836
   8   1.0000      -0.536951       -14.6112
   9   1.0000      -0.487471       -13.2648
  10   1.0000      -0.383302       -10.4302
  11   0.0000      -0.061877        -1.6838
  12   0.0000       0.004412         0.1201
  13   0.0000       0.040128         1.0919
  14   0.0000       0.062122         1.6904
  15   0.0000       0.077101         2.0980

----------------------------------------------------------------------------------------------------
          SPIN FLIP ABSORPTION SPECTRUM VIA TRANSITION ELECTRIC DIPOLE MOMENTS
----------------------------------------------------------------------------------------------------
     Transition      Energy     Energy  Wavelength fosc(D2)      D2        DX        DY        DZ
                      (eV)      (cm-1)    (nm)                 (au**2)    (au)      (au)      (au)
----------------------------------------------------------------------------------------------------
  1-3A  ->  2-3A    0.531423    4286.2  2333.1   0.000113985   0.00875  -0.07921  -0.00561   0.04949

Dispersion correction             ... done (  0.1 sec)

MULLIKEN ATOMIC CHARGES AND SPIN DENSITIES
------------------------------------------
   0 O :   -0.346166    0.814975
   1 C :   -0.028400    0.076217
   2 C :   -0.280757   -0.718658
   3 H :    0.190270   -0.023506
   4 H :    0.200216    0.012029
   5 H :    0.112854   -0.081145
   6 H :    0.151984   -0.079914
Sum of atomic charges       :   -0.0000000

LOEWDIN ATOMIC CHARGES AND SPIN DENSITIES
-----------------------------------------
   0 O :    0.089411    0.754320
   1 C :   -0.322936   -0.004406
   2 C :    0.273745   -0.617458
   3 H :    0.062523    0.014444
   4 H :    0.034473    0.019029
   5 H :   -0.075907   -0.088576
   6 H :   -0.061308   -0.077353

  Mayer bond orders larger than 0.100000
B(  0-O ,  1-C ) :   0.9299 B(  1-C ,  2-C ) :   0.8494 B(  1-C ,  3-H ) :   0.9081
B(  1-C ,  4-H ) :   0.9684 B(  2-C ,  5-H ) :   1.0731 B(  2-C ,  6-H ) :   1.0269

Dispersion correction           -0.005605339
FINAL SINGLE POINT ENERGY      -153.746506119169

DIPOLE MOMENT
-------------

Method             : TDA/CIS
Type of density    : Electron Density
Level              : Relaxed density
State              :   2
Multiplicity       :   3
Irrep              :   0
Energy             :     0.0000000000000000 Eh
Relativity type    :
Basis              : AO
                                X                 Y                 Z
Electronic contribution:      1.025314418       2.336394040       0.492176843
Nuclear contribution   :     -0.865353663      -2.935027180      -0.655286789
                        -----------------------------------------
Total Dipole Moment    :      0.159960756      -0.598633140      -0.163109946
                        -----------------------------------------
Magnitude (a.u.)       :      0.640744827
Magnitude (Debye)      :      1.628643921

Rotational constants in cm-1:             1.392555             0.388734             0.332147
Rotational constants in MHz :         41747.755840         11653.938614          9957.509556

                             ****ORCA TERMINATED NORMALLY****
TOTAL RUN TIME: 0 days 0 hours 0 minutes 17 seconds 438 msec
