                         Program Version 6.0.0  -   RELEASE  -
|  1> ! EnGrad wB97M-D3BJ def2-TZVPPD
|  2> %pal nprocs 8 end%pal nprocs 16 end
|  3> %tddft
|  4>  sf true
|  5>  nroots 2 Iroot 1 end
|  6> *xyz 0 3
|  7> O   0.66960683800774 1.36763020816667 0.05709233107971
|  8> C   0.54091637689265 0.21248275919353 -0.24103787540409
|  9> C   -0.44423197509983 -0.81560059811717 0.22159346934173
| 10> H   0.11020880206645 -1.65132975506826 0.64883871634289
| 11> H   1.25077888565113 -0.21287605264984 -0.98382463972446
| 12> H   -0.97520419554337 -1.19612913840188 -0.65117807619885
| 13> H   -1.14987473197477 -0.42257742312306 0.94851607456307
| 14> *
| 15>
| 16>                          ****END OF INPUT****

CARTESIAN COORDINATES (ANGSTROEM)
---------------------------------
  O      0.669607    1.367630    0.057092
  C      0.540916    0.212483   -0.241038
  C     -0.444232   -0.815601    0.221593
  H      0.110209   -1.651330    0.648839
  H      1.250779   -0.212876   -0.983825
  H     -0.975204   -1.196129   -0.651178
  H     -1.149875   -0.422577    0.948516

 Total Charge           Charge          ....    0
 Multiplicity           Mult            ....    3
 Number of Electrons    NEL             ....   24
 Basis Dimension        Dim             ....  182

ORBITAL ENERGIES
----------------
                 SPIN UP ORBITALS
  NO   OCC          E(Eh)            E(eV)
   0   1.0000     -19.408054      -528.1200
   1   1.0000     -10.379668      -282.4451
   2   1.0000     -10.368345      -282.1370
   3   1.0000      -1.244780       -33.8722
   4   1.0000      -0.885353       -24.0917
   5   1.0000      -0.716835       -19.5061
   6   1.0000      -0.632494       -17.2110
   7   1.0000      -0.588538       -16.0149
   8   1.0000      -0.581380       -15.8202
   9   1.0000      -0.516042       -14.0422
  10   1.0000      -0.515193       -14.0191
  11   1.0000      -0.429896       -11.6981
  12   1.0000      -0.218784        -5.9534
  13   0.0000       0.039641         1.0787
  14   0.0000       0.060049         1.6340
  15   0.0000       0.078042         2.1236
  16   0.0000       0.087694         2.3863
  17   0.0000       0.107155         2.9158

                 SPIN DOWN ORBITALS
  NO   OCC          E(Eh)            E(eV)
   0   1.0000     -19.380673      -527.3749
   1   1.0000     -10.369420      -282.1663
   2   1.0000     -10.366284      -282.0809
   3   1.0000      -1.187815       -32.3221
   4   1.0000      -0.866284       -23.5728
   5   1.0000      -0.671509       -18.2727
   6   1.0000      -0.585693       -15.9375
   7   1.0000      -0.541302       -14.7296
   8   1.0000      -0.535745       -14.5784
   9   1.0000      -0.498541       -13.5660
  10   1.0000      -0.471566       -12.8320
  11   0.0000      -0.083136        -2.2622
  12   0.0000       0.040347         1.0979
  13   0.0000       0.059714         1.6249
  14   0.0000       0.077761         2.1160
  15   0.0000       0.084602         2.3021

----------------------------------------------------------------------------------------------------
          SPIN FLIP ABSORPTION SPECTRUM VIA TRANSITION ELECTRIC DIPOLE MOMENTS
----------------------------------------------------------------------------------------------------
     Transition      Energy     Energy  Wavelength fosc(D2)      D2        DX        DY        DZ
                      (eV)      (cm-1)    (nm)                 (au**2)    (au)      (au)      (au)
----------------------------------------------------------------------------------------------------
  1-3A  ->  2-3A    4.619989   37262.7   268.4   0.000192166   0.00170  -0.02552   0.01070  -0.03053

Dispersion correction             ... done (  0.0 sec)

MULLIKEN ATOMIC CHARGES AND SPIN DENSITIES
------------------------------------------
   0 O :   -0.510130    0.055784
   1 C :    0.206452   -0.175044
   2 C :   -0.691609    0.045113
   3 H :    0.236352   -0.004079
   4 H :    0.285445    0.077468
   5 H :    0.235171   -0.004061
   6 H :    0.238320    0.004820
Sum of atomic charges       :   -0.0000000

LOEWDIN ATOMIC CHARGES AND SPIN DENSITIES
-----------------------------------------
   0 O :    0.047899    0.021734
   1 C :   -0.234566   -0.015300
   2 C :    0.178380   -0.001979
   3 H :   -0.007609   -0.001302
   4 H :    0.029446   -0.003153
   5 H :   -0.007625   -0.001284
   6 H :   -0.005926    0.001283

  Mayer bond orders larger than 0.100000
B(  0-O ,  1-C ) :   1.7891 B(  1-C ,  2-C ) :   0.7362 B(  1-C ,  4-H ) :   0.9376
B(  2-C ,  3-H ) :   0.9900 B(  2-C ,  5-H ) :   0.9903 B(  2-C ,  6-H ) :   0.9636

Dispersion correction           -0.005521182
FINAL SINGLE POINT ENERGY      -153.923478408490

DIPOLE MOMENT
-------------

Method             : TDA/CIS
Type of density    : Electron Density
Level              : Relaxed density
State              :   1
Multiplicity       :   3
Irrep              :   0
Energy             :     0.0000000000000000 Eh
Relativity type    :
Basis              : AO
                                X                 Y                 Z
Electronic contribution:      1.359759376       2.962065099      -0.096897272
Nuclear contribution   :     -1.656593811      -4.198867021      -0.089374610
                        -----------------------------------------
Total Dipole Moment    :     -0.296834435      -1.236801923      -0.186271882
                        -----------------------------------------
Magnitude (a.u.)       :      1.285490915
Magnitude (Debye)      :      3.267458237

Rotational constants in cm-1:             2.099455             0.325510             0.297219
Rotational constants in MHz :         62940.086573          9758.546018          8910.396421

                             ****ORCA TERMINATED NORMALLY****
TOTAL RUN TIME: 0 days 0 hours 0 minutes 16 seconds 424 msec
