                         Program Version 6.0.0  -   RELEASE  -
|  1> ! Opt wB97M-D3BJ def2-TZVPPD
|  2> %pal nprocs 8 end %pal nprocs 64 end
|  3> %geom
|  4> Constraints
|  5>     {A 2 1 0 53.63636363636363 C }
|  6> end
|  7> MaxIter 500
|  8> end
|  9> *xyz 0 1
| 10> O   -0.0007 0.8141 0.0
| 11> C   0.7509 -0.4065 0.0
| 12> C   -0.7502 -0.4076 0.0
| 13> H   1.2625 -0.6786 0.9136
| 14> H   1.2625 -0.6787 -0.9136
| 15> H   -1.2614 -0.6806 -0.9136
| 16> H   -1.2614 -0.6805 0.9136
| 17> *
| 18>
| 19>                          ****END OF INPUT****
 Total Charge           Charge          ....    0
 Multiplicity           Mult            ....    1
 Number of Electrons    NEL             ....   24
Dispersion correction           -0.005175217
FINAL SINGLE POINT ENERGY      -153.881766586159
Dispersion correction             ... done (  0.2 sec)
Dispersion correction           -0.005186364
FINAL SINGLE POINT ENERGY      -153.883581102537
Dispersion correction             ... done (  0.1 sec)
Dispersion correction           -0.005199246
FINAL SINGLE POINT ENERGY      -153.884070592161
Dispersion correction             ... done (  0.2 sec)
FINAL SINGLE POINT ENERGY      -153.884163366156
Dispersion correction             ... done (  0.1 sec)
Dispersion correction           -0.005204317
FINAL SINGLE POINT ENERGY      -153.884208285474
Dispersion correction             ... done (  0.1 sec)
Dispersion correction           -0.005203913
FINAL SINGLE POINT ENERGY      -153.884209320257
Dispersion correction             ... done (  0.1 sec)
                    ***********************HURRAY********************

CARTESIAN COORDINATES (ANGSTROEM)
---------------------------------
  O     -0.050519    0.760852   -0.000036
  C      0.762596   -0.475086   -0.000009
  C     -0.737197   -0.395882    0.000018
  H      1.282695   -0.653129    0.927962
  H      1.282710   -0.653201   -0.927955
  H     -1.269015   -0.651010   -0.913275
  H     -1.269070   -0.650945    0.913294

 Multiplicity           Mult            ....    1
 Number of Electrons    NEL             ....   24
 Basis Dimension        Dim             ....  182

ORBITAL ENERGIES
----------------

  NO   OCC          E(Eh)            E(eV)
   0   2.0000     -19.353336      -526.6311
   1   2.0000     -10.402654      -283.0706
   2   2.0000     -10.400764      -283.0192
   3   2.0000      -1.218554       -33.1585
   4   2.0000      -0.799145       -21.7458
   5   2.0000      -0.758958       -20.6523
   6   2.0000      -0.631969       -17.1968
   7   2.0000      -0.594807       -16.1855
   8   2.0000      -0.518357       -14.1052
   9   2.0000      -0.496962       -13.5230
  10   2.0000      -0.409313       -11.1380
  11   2.0000      -0.384488       -10.4625
  12   0.0000       0.042604         1.1593
  13   0.0000       0.058658         1.5962
  14   0.0000       0.075044         2.0420
  15   0.0000       0.078141         2.1263
  16   0.0000       0.112500         3.0613

MULLIKEN ATOMIC CHARGES
-----------------------
   0 O :   -0.376707
   1 C :   -0.223524
   2 C :   -0.140135
   3 H :    0.183490
   4 H :    0.183514
   5 H :    0.186684
   6 H :    0.186678
Sum of atomic charges:   -0.0000000

LOEWDIN ATOMIC CHARGES
----------------------
   0 O :   -0.029507
   1 C :    0.089601
   2 C :   -0.087410
   3 H :   -0.000237
   4 H :   -0.000235
   5 H :    0.013893
   6 H :    0.013895

  Mayer bond orders larger than 0.100000
B(  0-O ,  1-C ) :   0.8572 B(  0-O ,  2-C ) :   0.7955 B(  1-C ,  2-C ) :   0.8037
B(  1-C ,  3-H ) :   1.0029 B(  1-C ,  4-H ) :   1.0028 B(  2-C ,  5-H ) :   1.0299
B(  2-C ,  6-H ) :   1.0299

Dispersion correction           -0.005203744
FINAL SINGLE POINT ENERGY      -153.884209431057

DIPOLE MOMENT
-------------

Method             : SCF
Type of density    : Electron Density
Multiplicity       :   1
Irrep              :   0
Energy             :  -153.8790056869186742 Eh
Relativity type    :
Basis              : AO
                                X                 Y                 Z
Electronic contribution:     -0.016574441       1.661891613      -0.000036719
Nuclear contribution   :      0.065560282      -2.357315249       0.000060649
                        -----------------------------------------
Total Dipole Moment    :      0.048985841      -0.695423636       0.000023930
                        -----------------------------------------
Magnitude (a.u.)       :      0.697146790
Magnitude (Debye)      :      1.772006316

Rotational constants in cm-1:             0.910153             0.703118             0.472702
Rotational constants in MHz :         27285.686619         21078.944047         14171.249463

                             ****ORCA TERMINATED NORMALLY****
TOTAL RUN TIME: 0 days 0 hours 1 minutes 34 seconds 148 msec
