                         Program Version 6.0.0  -   RELEASE  -
|  1> ! Engrad def2-TZVPPD wB97M-D3BJ
|  2> %pal nprocs 8 end%pal nprocs 64 end
|  3> %tddft Nroots 2 Iroot 2
|  4> sf true
|  5> end
|  6> *xyz 0 3
|  7> O   2.50361127 1.22433425 -0.47519551
|  8> O   -0.6660569 0.83416494 -2.29540385
|  9> O   0.53087033 -2.71190963 -1.57509598
| 10> O   -2.3797228 -1.59520946 1.14363699
| 11> N   0.69039973 -2.15710395 0.62488776
| 12> N   -2.02045514 0.6301086 1.44795097
| 13> N   1.64263141 -0.81130126 -0.98411664
| 14> N   -1.59560549 -0.34063391 -0.59319168
| 15> C   1.58937081 -0.03766962 1.29242965
| 16> C   -0.98252513 1.96937896 -0.23139929
| 17> C   0.95632571 -1.21853706 1.58380527
| 18> C   -1.49008334 1.82337811 0.99335266
| 19> C   1.87123085 1.00845438 2.31033645
| 20> C   -0.34605516 3.22519783 -0.73387388
| 21> C   1.95970663 0.20457704 -0.08306211
| 22> C   -1.04864437 0.82507443 -1.14756069
| 23> C   0.93110445 -1.95578317 -0.72087162
| 24> C   -2.02827703 -0.52277659 0.69759491
| 25> H   0.63489184 -1.45216016 2.5775428
| 26> H   -1.50985565 2.63396976 1.70548978
| 27> H   1.39357644 1.95212417 2.02297199
| 28> H   1.51463362 0.71544867 3.29733897
| 29> H   2.93764573 1.21381188 2.36068928
| 30> H   -0.84173202 3.56055425 -1.65102821
| 31> H   -0.39765168 4.0089188 0.01938639
| 32> H   0.69033028 3.04028598 -0.97493291
| 33> H   0.05050359 -2.91478261 0.8422339
| 34> H   -2.3434061 0.5414711 2.39220145
| 35> H   1.77813315 -0.60625654 -1.9597681
| 36> H   -1.60902914 -1.16229142 -1.19109031
| 37> *
| 38>
| 39>                          ****END OF INPUT****

CARTESIAN COORDINATES (ANGSTROEM)
---------------------------------
  O      2.503611    1.224334   -0.475196
  O     -0.666057    0.834165   -2.295404
  O      0.530870   -2.711910   -1.575096
  O     -2.379723   -1.595209    1.143637
  N      0.690400   -2.157104    0.624888
  N     -2.020455    0.630109    1.447951
  N      1.642631   -0.811301   -0.984117
  N     -1.595605   -0.340634   -0.593192
  C      1.589371   -0.037670    1.292430
  C     -0.982525    1.969379   -0.231399
  C      0.956326   -1.218537    1.583805
  C     -1.490083    1.823378    0.993353
  C      1.871231    1.008454    2.310336
  C     -0.346055    3.225198   -0.733874
  C      1.959707    0.204577   -0.083062
  C     -1.048644    0.825074   -1.147561
  C      0.931104   -1.955783   -0.720872
  C     -2.028277   -0.522777    0.697595
  H      0.634892   -1.452160    2.577543
  H     -1.509856    2.633970    1.705490
  H      1.393576    1.952124    2.022972
  H      1.514634    0.715449    3.297339
  H      2.937646    1.213812    2.360689
  H     -0.841732    3.560554   -1.651028
  H     -0.397652    4.008919    0.019386
  H      0.690330    3.040286   -0.974933
  H      0.050504   -2.914783    0.842234
  H     -2.343406    0.541471    2.392201
  H      1.778133   -0.606257   -1.959768
  H     -1.609029   -1.162291   -1.191090

 Total Charge           Charge          ....    0
 Multiplicity           Mult            ....    3
 Number of Electrons    NEL             ....  132
 Basis Dimension        Dim             ....  882

ORBITAL ENERGIES
----------------
                 SPIN UP ORBITALS
  NO   OCC          E(Eh)            E(eV)
   0   1.0000     -19.330431      -526.0078
   1   1.0000     -19.326437      -525.8991
   2   1.0000     -19.323468      -525.8183
   3   1.0000     -19.319235      -525.7031
   4   1.0000     -14.589207      -396.9925
   5   1.0000     -14.583126      -396.8270
   6   1.0000     -14.570586      -396.4858
   7   1.0000     -14.548800      -395.8930
   8   1.0000     -10.513585      -286.0892
   9   1.0000     -10.507657      -285.9279
  10   1.0000     -10.478905      -285.1455
  11   1.0000     -10.456291      -284.5301
  12   1.0000     -10.430804      -283.8366
  13   1.0000     -10.409054      -283.2448
  14   1.0000     -10.395067      -282.8641
  15   1.0000     -10.379707      -282.4462
  16   1.0000     -10.371789      -282.2307
  17   1.0000     -10.349105      -281.6135
  18   1.0000      -1.227475       -33.4013
  19   1.0000      -1.223285       -33.2873
  20   1.0000      -1.193645       -32.4807
  21   1.0000      -1.186723       -32.2924
  22   1.0000      -1.122051       -30.5325
  23   1.0000      -1.121472       -30.5168
  24   1.0000      -1.069001       -29.0890
  25   1.0000      -1.059904       -28.8414
  26   1.0000      -0.971324       -26.4311
  27   1.0000      -0.955925       -26.0120
  28   1.0000      -0.855948       -23.2915
  29   1.0000      -0.844960       -22.9925
  30   1.0000      -0.811444       -22.0805
  31   1.0000      -0.808456       -21.9992
  32   1.0000      -0.793865       -21.6022
  33   1.0000      -0.785850       -21.3841
  34   1.0000      -0.695640       -18.9293
  35   1.0000      -0.693822       -18.8799
  36   1.0000      -0.691744       -18.8233
  37   1.0000      -0.690875       -18.7997
  38   1.0000      -0.643543       -17.5117
  39   1.0000      -0.637517       -17.3477
  40   1.0000      -0.628593       -17.1049
  41   1.0000      -0.600330       -16.3358
  42   1.0000      -0.597143       -16.2491
  43   1.0000      -0.591939       -16.1075
  44   1.0000      -0.571488       -15.5510
  45   1.0000      -0.567574       -15.4445
  46   1.0000      -0.566745       -15.4219
  47   1.0000      -0.554314       -15.0836
  48   1.0000      -0.550064       -14.9680
  49   1.0000      -0.548818       -14.9341
  50   1.0000      -0.531694       -14.4681
  51   1.0000      -0.521377       -14.1874
  52   1.0000      -0.516043       -14.0422
  53   1.0000      -0.513549       -13.9744
  54   1.0000      -0.510144       -13.8817
  55   1.0000      -0.497814       -13.5462
  56   1.0000      -0.491821       -13.3831
  57   1.0000      -0.475837       -12.9482
  58   1.0000      -0.420195       -11.4341
  59   1.0000      -0.418173       -11.3791
  60   1.0000      -0.404710       -11.0127
  61   1.0000      -0.403108       -10.9691
  62   1.0000      -0.388047       -10.5593
  63   1.0000      -0.385710       -10.4957
  64   1.0000      -0.382568       -10.4102
  65   1.0000      -0.347558        -9.4575
  66   1.0000      -0.212692        -5.7876
  67   0.0000       0.012220         0.3325
  68   0.0000       0.021150         0.5755
  69   0.0000       0.033541         0.9127
  70   0.0000       0.039480         1.0743
  71   0.0000       0.042725         1.1626

                 SPIN DOWN ORBITALS
  NO   OCC          E(Eh)            E(eV)
   0   1.0000     -19.328554      -525.9567
   1   1.0000     -19.326401      -525.8981
   2   1.0000     -19.323480      -525.8186
   3   1.0000     -19.312648      -525.5239
   4   1.0000     -14.584066      -396.8526
   5   1.0000     -14.582966      -396.8227
   6   1.0000     -14.570582      -396.4857
   7   1.0000     -14.547889      -395.8682
   8   1.0000     -10.513593      -286.0894
   9   1.0000     -10.508014      -285.9376
  10   1.0000     -10.478900      -285.1454
  11   1.0000     -10.455999      -284.5222
  12   1.0000     -10.430725      -283.8345
  13   1.0000     -10.399601      -282.9875
  14   1.0000     -10.384766      -282.5838
  15   1.0000     -10.379713      -282.4464
  16   1.0000     -10.372264      -282.2436
  17   1.0000     -10.349080      -281.6128
  18   1.0000      -1.226397       -33.3719
  19   1.0000      -1.220055       -33.1994
  20   1.0000      -1.193581       -32.4790
  21   1.0000      -1.177060       -32.0294
  22   1.0000      -1.121299       -30.5121
  23   1.0000      -1.111180       -30.2367
  24   1.0000      -1.068910       -29.0865
  25   1.0000      -1.054116       -28.6840
  26   1.0000      -0.956060       -26.0157
  27   1.0000      -0.948034       -25.7973
  28   1.0000      -0.845355       -23.0033
  29   1.0000      -0.843921       -22.9643
  30   1.0000      -0.808574       -22.0024
  31   1.0000      -0.799162       -21.7463
  32   1.0000      -0.793751       -21.5991
  33   1.0000      -0.779397       -21.2085
  34   1.0000      -0.693734       -18.8775
  35   1.0000      -0.691030       -18.8039
  36   1.0000      -0.684933       -18.6380
  37   1.0000      -0.682338       -18.5674
  38   1.0000      -0.641486       -17.4557
  39   1.0000      -0.629616       -17.1327
  40   1.0000      -0.622448       -16.9377
  41   1.0000      -0.597335       -16.2543
  42   1.0000      -0.589401       -16.0384
  43   1.0000      -0.583680       -15.8827
  44   1.0000      -0.566670       -15.4199
  45   1.0000      -0.561638       -15.2829
  46   1.0000      -0.554703       -15.0942
  47   1.0000      -0.550088       -14.9687
  48   1.0000      -0.544862       -14.8264
  49   1.0000      -0.542667       -14.7667
  50   1.0000      -0.523471       -14.2444
  51   1.0000      -0.515325       -14.0227
  52   1.0000      -0.513474       -13.9723
  53   1.0000      -0.504820       -13.7368
  54   1.0000      -0.500585       -13.6216
  55   1.0000      -0.495785       -13.4910
  56   1.0000      -0.476864       -12.9761
  57   1.0000      -0.443911       -12.0794
  58   1.0000      -0.418878       -11.3983
  59   1.0000      -0.414011       -11.2658
  60   1.0000      -0.403842       -10.9891
  61   1.0000      -0.386961       -10.5297
  62   1.0000      -0.379075       -10.3152
  63   1.0000      -0.377207       -10.2643
  64   1.0000      -0.346637        -9.4325
  65   0.0000      -0.102248        -2.7823
  66   0.0000       0.011301         0.3075
  67   0.0000       0.022012         0.5990
  68   0.0000       0.031268         0.8508
  69   0.0000       0.037863         1.0303

----------------------------------------------------------------------------------------------------
          SPIN FLIP ABSORPTION SPECTRUM VIA TRANSITION ELECTRIC DIPOLE MOMENTS
----------------------------------------------------------------------------------------------------
     Transition      Energy     Energy  Wavelength fosc(D2)      D2        DX        DY        DZ
                      (eV)      (cm-1)    (nm)                 (au**2)    (au)      (au)      (au)
----------------------------------------------------------------------------------------------------
  1-3A  ->  2-3A    4.029384   32499.2   307.7   0.001305333   0.01322  -0.04596  -0.07435   0.07472

Dispersion correction             ... done (  0.1 sec)

MULLIKEN ATOMIC CHARGES AND SPIN DENSITIES
------------------------------------------
   0 O :   -0.703031    0.009631
   1 O :   -0.654489   -0.000096
   2 O :   -0.611689    0.002260
   3 O :   -0.667007    0.000534
   4 N :    0.035586    0.029380
   5 N :    0.014578   -0.002808
   6 N :    0.003163   -0.011572
   7 N :    0.047170   -0.000627
   8 C :    1.217019    0.098610
   9 C :    0.696802    0.005269
  10 C :   -0.345221    0.023776
  11 C :   -0.079477    0.000950
  12 C :   -1.315562   -0.015809
  13 C :   -1.407436    0.000393
  14 C :    0.198107   -0.128688
  15 C :    0.534090   -0.004556
  16 C :    0.347457    0.001415
  17 C :    0.412175   -0.007123
  18 H :    0.101334   -0.018454
  19 H :    0.138309   -0.000403
  20 H :    0.244851    0.011067
  21 H :    0.336875   -0.001386
  22 H :    0.344381    0.007062
  23 H :    0.341976    0.000006
  24 H :    0.335865    0.000492
  25 H :    0.225299   -0.000947
  26 H :    0.093908   -0.001100
  27 H :    0.020166    0.000764
  28 H :    0.041832    0.002771
  29 H :    0.052970   -0.000811
Sum of atomic charges       :   -0.0000000

LOEWDIN ATOMIC CHARGES AND SPIN DENSITIES
-----------------------------------------
   0 O :    0.067126    0.007164
   1 O :    0.103824    0.000021
   2 O :    0.108760    0.001367
   3 O :    0.069318   -0.000326
   4 N :    0.301246    0.020016
   5 N :    0.281749   -0.000918
   6 N :    0.318567   -0.006658
   7 N :    0.340703   -0.000174
   8 C :   -0.092181    0.005978
   9 C :   -0.135566   -0.000175
  10 C :    0.014549   -0.012803
  11 C :    0.050092   -0.000460
  12 C :    0.203790    0.001478
  13 C :    0.184223    0.000015
  14 C :   -0.432973   -0.007481
  15 C :   -0.389342   -0.000001
  16 C :   -0.482571   -0.002533
  17 C :   -0.492087   -0.000286
  18 H :   -0.005709   -0.006355
  19 H :    0.035076   -0.000096
  20 H :    0.005287    0.000796
  21 H :   -0.003472   -0.000425
  22 H :    0.011991    0.000857
  23 H :    0.006784    0.000000
  24 H :   -0.005974   -0.000012
  25 H :   -0.019238   -0.000020
  26 H :    0.000039    0.001904
  27 H :   -0.024148   -0.000130
  28 H :   -0.012877   -0.000723
  29 H :   -0.006987   -0.000021

  Mayer bond orders larger than 0.100000
B(  0-O ,  8-C ) :  -0.1005 B(  0-O , 14-C ) :   1.2729 B(  1-O , 15-C ) :   1.4414
B(  2-O , 16-C ) :   1.5818 B(  3-O , 17-C ) :   1.5326 B(  4-N , 10-C ) :   0.8879
B(  4-N , 16-C ) :   0.9539 B(  4-N , 26-H ) :   1.0693 B(  5-N , 11-C ) :   0.9533
B(  5-N , 17-C ) :   1.0452 B(  5-N , 27-H ) :   1.1323 B(  6-N , 14-C ) :   0.8771
B(  6-N , 16-C ) :   0.9122 B(  6-N , 28-H ) :   1.1063 B(  7-N , 15-C ) :   0.9961
B(  7-N , 16-C ) :   0.1186 B(  7-N , 17-C ) :   0.9420 B(  7-N , 29-H ) :   1.1044
B(  8-C , 10-C ) :   0.4462 B(  8-C , 12-C ) :   0.3655 B(  8-C , 14-C ) :   0.9409
B(  8-C , 18-H ) :  -0.1455 B(  8-C , 21-H ) :  -0.1017 B(  9-C , 11-C ) :   1.1887
B(  9-C , 13-C ) :   0.3840 B(  9-C , 15-C ) :   0.8242 B(  9-C , 25-H ) :  -0.1064
B( 10-C , 18-H ) :   1.2267 B( 11-C , 13-C ) :  -0.1657 B( 11-C , 19-H ) :   1.1262
B( 12-C , 20-H ) :   0.9734 B( 12-C , 21-H ) :   0.9854 B( 12-C , 22-H ) :   0.9133
B( 13-C , 23-H ) :   0.9256 B( 13-C , 24-H ) :   0.9933 B( 13-C , 25-H ) :   1.0184

Dispersion correction           -0.058080299
FINAL SINGLE POINT ENERGY      -908.779722451118

DIPOLE MOMENT
-------------

Method             : TDA/CIS
Type of density    : Electron Density
Level              : Relaxed density
State              :   2
Multiplicity       :   3
Irrep              :   0
Energy             :     0.0000000000000000 Eh
Relativity type    :
Basis              : AO
                                X                 Y                 Z
Electronic contribution:     -2.632506933      -9.824553092      -5.755104817
Nuclear contribution   :      2.098129905      10.678574001       8.237275681
                        -----------------------------------------
Total Dipole Moment    :     -0.534377028       0.854020908       2.482170863
                        -----------------------------------------
Magnitude (a.u.)       :      2.678821143
Magnitude (Debye)      :      6.809022223

Rotational constants in cm-1:             0.017176             0.015577             0.013482
Rotational constants in MHz :           514.933255           466.983887           404.182366

                             ****ORCA TERMINATED NORMALLY****
TOTAL RUN TIME: 0 days 0 hours 5 minutes 5 seconds 504 msec
