                         Program Version 6.0.0  -   RELEASE  -
|  1> ! EnGrad wB97M-D3BJ def2-TZVPPD
|  2> %pal nprocs 8 end%pal nprocs 16 end
|  3> %tddft
|  4>  sf true
|  5>  nroots 2 Iroot 2 end
|  6> *xyz 0 3
|  7> O   0.33188746754694 1.0064772067681 -0.0024243178826
|  8> C   0.63032270338385 -0.29914357259639 -0.0005027139249
|  9> C   -0.73979360881166 -0.70529276257257 0.00062273803367
| 10> H   1.1862343419082 -0.63544923470584 0.88536611742848
| 11> H   1.18646359391291 -0.63791736101917 -0.88522726961835
| 12> H   -1.29716077260798 -0.72535342847128 -0.92427135063431
| 13> H   -1.29575372533227 -0.72172084740285 0.926436796598
| 14> *
| 15>
| 16>                          ****END OF INPUT****

CARTESIAN COORDINATES (ANGSTROEM)
---------------------------------
  O      0.331887    1.006477   -0.002424
  C      0.630323   -0.299144   -0.000503
  C     -0.739794   -0.705293    0.000623
  H      1.186234   -0.635449    0.885366
  H      1.186464   -0.637917   -0.885227
  H     -1.297161   -0.725353   -0.924271
  H     -1.295754   -0.721721    0.926437

 Total Charge           Charge          ....    0
 Multiplicity           Mult            ....    3
 Number of Electrons    NEL             ....   24
 Basis Dimension        Dim             ....  182

ORBITAL ENERGIES
----------------
                 SPIN UP ORBITALS
  NO   OCC          E(Eh)            E(eV)
   0   1.0000     -19.403002      -527.9825
   1   1.0000     -10.406795      -283.1833
   2   1.0000     -10.343108      -281.4503
   3   1.0000      -1.205850       -32.8129
   4   1.0000      -0.869587       -23.6627
   5   1.0000      -0.738574       -20.0976
   6   1.0000      -0.641071       -17.4444
   7   1.0000      -0.602710       -16.4006
   8   1.0000      -0.552427       -15.0323
   9   1.0000      -0.509459       -13.8631
  10   1.0000      -0.447296       -12.1715
  11   1.0000      -0.432686       -11.7740
  12   1.0000      -0.287025        -7.8103
  13   0.0000       0.041113         1.1187
  14   0.0000       0.063622         1.7312
  15   0.0000       0.073201         1.9919
  16   0.0000       0.086293         2.3481
  17   0.0000       0.117227         3.1899

                 SPIN DOWN ORBITALS
  NO   OCC          E(Eh)            E(eV)
   0   1.0000     -19.375629      -527.2377
   1   1.0000     -10.408029      -283.2169
   2   1.0000     -10.330391      -281.1042
   3   1.0000      -1.147180       -31.2163
   4   1.0000      -0.835541       -22.7362
   5   1.0000      -0.716373       -19.4935
   6   1.0000      -0.599717       -16.3191
   7   1.0000      -0.567148       -15.4329
   8   1.0000      -0.529786       -14.4162
   9   1.0000      -0.474948       -12.9240
  10   1.0000      -0.387437       -10.5427
  11   0.0000      -0.071538        -1.9466
  12   0.0000       0.024076         0.6551
  13   0.0000       0.039785         1.0826
  14   0.0000       0.064282         1.7492
  15   0.0000       0.072257         1.9662

----------------------------------------------------------------------------------------------------
          SPIN FLIP ABSORPTION SPECTRUM VIA TRANSITION ELECTRIC DIPOLE MOMENTS
----------------------------------------------------------------------------------------------------
     Transition      Energy     Energy  Wavelength fosc(D2)      D2        DX        DY        DZ
                      (eV)      (cm-1)    (nm)                 (au**2)    (au)      (au)      (au)
----------------------------------------------------------------------------------------------------
  1-3A  ->  2-3A    1.926861   15541.2   643.5   0.000499633   0.01058   0.00034   0.00052   0.10288

Dispersion correction             ... done (  0.0 sec)

MULLIKEN ATOMIC CHARGES AND SPIN DENSITIES
------------------------------------------
   0 O :   -0.312627    0.752971
   1 C :    0.103750    0.262402
   2 C :   -0.455694   -0.817753
   3 H :    0.205139    0.019111
   4 H :    0.205250    0.019519
   5 H :    0.126857   -0.118276
   6 H :    0.127325   -0.117974
Sum of atomic charges       :   -0.0000000

LOEWDIN ATOMIC CHARGES AND SPIN DENSITIES
-----------------------------------------
   0 O :    0.104934    0.688125
   1 C :   -0.267815    0.041947
   2 C :    0.216708   -0.613867
   3 H :    0.040737    0.029551
   4 H :    0.040911    0.029872
   5 H :   -0.067743   -0.087848
   6 H :   -0.067731   -0.087781

  Mayer bond orders larger than 0.100000
B(  0-O ,  1-C ) :   0.8792 B(  0-O ,  2-C ) :   0.1923 B(  1-C ,  2-C ) :   0.6099
B(  1-C ,  3-H ) :   0.9795 B(  1-C ,  4-H ) :   0.9788 B(  2-C ,  5-H ) :   1.1137
B(  2-C ,  6-H ) :   1.1133

Dispersion correction           -0.005672378
FINAL SINGLE POINT ENERGY      -153.727952403506

DIPOLE MOMENT
-------------

Method             : TDA/CIS
Type of density    : Electron Density
Level              : Relaxed density
State              :   2
Multiplicity       :   3
Irrep              :   0
Energy             :     0.0000000000000000 Eh
Relativity type    :
Basis              : AO
                                X                 Y                 Z
Electronic contribution:      0.904116345       2.385509032      -0.005388834
Nuclear contribution   :     -0.524370549      -2.648216661       0.005121155
                        -----------------------------------------
Total Dipole Moment    :      0.379745795      -0.262707628      -0.000267679
                        -----------------------------------------
Magnitude (a.u.)       :      0.461759936
Magnitude (Debye)      :      1.173700483

Rotational constants in cm-1:             1.102992             0.475792             0.382245
Rotational constants in MHz :         33066.872593         14263.891040         11459.430045

                             ****ORCA TERMINATED NORMALLY****
TOTAL RUN TIME: 0 days 0 hours 0 minutes 16 seconds 999 msec
