                         Program Version 6.0.0  -   RELEASE  -
|  1> ! Engrad wB97M-D3BJ def2-TZVPPD
|  2> %pal nprocs 8 end%pal nprocs 16 end
|  3> %tddft nroots 2 Iroot 1
|  4>  sf true
|  5> end
|  6> *xyz 0 3
|  7> O   0.85520433955665 1.01197196143383 0.0001367498309
|  8> C   0.77862476913661 -0.32551115981133 -0.00012302148425
|  9> C   -0.6396544496625 -0.6001773471189 -2.46607662e-05
| 10> H   1.25903539671783 -0.78348978628289 0.87939711416865
| 11> H   1.25908000607556 -0.78307700512912 -0.87982575611347
| 12> H   -1.20396522696278 -0.53538637752799 -0.9219608849589
| 13> H   -1.20300393329308 -0.53365407300161 0.92240045932326
| 14> *
| 15>
| 16>                          ****END OF INPUT****

CARTESIAN COORDINATES (ANGSTROEM)
---------------------------------
  O      0.855204    1.011972    0.000137
  C      0.778625   -0.325511   -0.000123
  C     -0.639654   -0.600177   -0.000025
  H      1.259035   -0.783490    0.879397
  H      1.259080   -0.783077   -0.879826
  H     -1.203965   -0.535386   -0.921961
  H     -1.203004   -0.533654    0.922400

 Total Charge           Charge          ....    0
 Multiplicity           Mult            ....    3
 Number of Electrons    NEL             ....   24
 Basis Dimension        Dim             ....  182

ORBITAL ENERGIES
----------------
                 SPIN UP ORBITALS
  NO   OCC          E(Eh)            E(eV)
   0   1.0000     -19.394008      -527.7378
   1   1.0000     -10.407416      -283.2002
   2   1.0000     -10.353550      -281.7344
   3   1.0000      -1.190065       -32.3833
   4   1.0000      -0.876613       -23.8538
   5   1.0000      -0.734704       -19.9923
   6   1.0000      -0.633192       -17.2300
   7   1.0000      -0.591727       -16.1017
   8   1.0000      -0.556614       -15.1462
   9   1.0000      -0.516264       -14.0483
  10   1.0000      -0.437193       -11.8966
  11   1.0000      -0.421117       -11.4592
  12   1.0000      -0.315790        -8.5931
  13   0.0000       0.041105         1.1185
  14   0.0000       0.063190         1.7195
  15   0.0000       0.073978         2.0130
  16   0.0000       0.087189         2.3725
  17   0.0000       0.117078         3.1859

                 SPIN DOWN ORBITALS
  NO   OCC          E(Eh)            E(eV)
   0   1.0000     -19.368539      -527.0447
   1   1.0000     -10.408749      -283.2364
   2   1.0000     -10.340688      -281.3844
   3   1.0000      -1.134310       -30.8661
   4   1.0000      -0.843022       -22.9398
   5   1.0000      -0.710603       -19.3365
   6   1.0000      -0.594898       -16.1880
   7   1.0000      -0.559240       -15.2177
   8   1.0000      -0.534639       -14.5483
   9   1.0000      -0.478372       -13.0172
  10   1.0000      -0.383435       -10.4338
  11   0.0000      -0.064214        -1.7474
  12   0.0000       0.006588         0.1793
  13   0.0000       0.040036         1.0894
  14   0.0000       0.063833         1.7370
  15   0.0000       0.073557         2.0016

----------------------------------------------------------------------------------------------------
          SPIN FLIP ABSORPTION SPECTRUM VIA TRANSITION ELECTRIC DIPOLE MOMENTS
----------------------------------------------------------------------------------------------------
     Transition      Energy     Energy  Wavelength fosc(D2)      D2        DX        DY        DZ
                      (eV)      (cm-1)    (nm)                 (au**2)    (au)      (au)      (au)
----------------------------------------------------------------------------------------------------
  1-3A  ->  2-3A    0.889472    7174.1  1393.9   0.000121769   0.00559  -0.00005   0.00006   0.07475

Dispersion correction             ... done (  0.0 sec)

MULLIKEN ATOMIC CHARGES AND SPIN DENSITIES
------------------------------------------
   0 O :   -0.513256   -0.434185
   1 C :   -0.110390   -0.037139
   2 C :   -0.315669    0.312259
   3 H :    0.224803    0.042050
   4 H :    0.224860    0.041876
   5 H :    0.244719    0.037531
   6 H :    0.244931    0.037607
Sum of atomic charges       :    0.0000000

LOEWDIN ATOMIC CHARGES AND SPIN DENSITIES
-----------------------------------------
   0 O :   -0.041284   -0.439162
   1 C :   -0.389296    0.026307
   2 C :    0.392662    0.323617
   3 H :    0.027454    0.008305
   4 H :    0.027457    0.008219
   5 H :   -0.008495    0.036354
   6 H :   -0.008498    0.036361

  Mayer bond orders larger than 0.100000
B(  0-O ,  1-C ) :   0.8199 B(  0-O ,  2-C ) :   0.6606 B(  1-C ,  2-C ) :   0.7591
B(  1-C ,  3-H ) :   1.0166 B(  1-C ,  4-H ) :   1.0163 B(  2-C ,  5-H ) :   0.9446
B(  2-C ,  6-H ) :   0.9446

Dispersion correction           -0.005629882
FINAL SINGLE POINT ENERGY      -153.775789721076

DIPOLE MOMENT
-------------

Method             : TDA/CIS
Type of density    : Electron Density
Level              : Relaxed density
State              :   1
Multiplicity       :   3
Irrep              :   0
Energy             :     0.0000000000000000 Eh
Relativity type    :
Basis              : AO
                                X                 Y                 Z
Electronic contribution:      0.375869283       1.323810590      -0.000168147
Nuclear contribution   :     -1.205555236      -2.664267955      -0.000024074
                        -----------------------------------------
Total Dipole Moment    :     -0.829685953      -1.340457366      -0.000192221
                        -----------------------------------------
Magnitude (a.u.)       :      1.576453224
Magnitude (Debye)      :      4.007025651

Rotational constants in cm-1:             1.247126             0.408370             0.349388
Rotational constants in MHz :         37387.910397         12242.613809         10474.393902

                             ****ORCA TERMINATED NORMALLY****
TOTAL RUN TIME: 0 days 0 hours 0 minutes 16 seconds 623 msec
