                         Program Version 6.0.0  -   RELEASE  -
|  1> ! Engrad wB97M-D3BJ def2-TZVPPD
|  2> %pal nprocs 8 end%pal nprocs 16 end
|  3> %tddft nroots 2 Iroot 2
|  4>  sf true
|  5> end
|  6> *xyz 0 3
|  7> O   0.28540065643782 0.90279037925355 -0.00029388827294
|  8> C   0.72925228004606 -0.37686315432252 -4.029003479e-05
|  9> C   -0.67969327690036 -0.52268497534153 -5.73179444e-05
| 10> H   1.26752564323646 -0.69210631896648 0.89679511514174
| 11> H   1.2676714110841 -0.69235044204697 -0.89670109931654
| 12> H   -1.22288536608062 -0.58183172126445 -0.92782346141806
| 13> H   -1.22231782744591 -0.58073804462211 0.92812094184499
| 14> *
| 15>
| 16>                          ****END OF INPUT****

CARTESIAN COORDINATES (ANGSTROEM)
---------------------------------
  O      0.285401    0.902790   -0.000294
  C      0.729252   -0.376863   -0.000040
  C     -0.679693   -0.522685   -0.000057
  H      1.267526   -0.692106    0.896795
  H      1.267671   -0.692350   -0.896701
  H     -1.222885   -0.581832   -0.927823
  H     -1.222318   -0.580738    0.928121

 Total Charge           Charge          ....    0
 Multiplicity           Mult            ....    3
 Number of Electrons    NEL             ....   24
 Basis Dimension        Dim             ....  182

ORBITAL ENERGIES
----------------
                 SPIN UP ORBITALS
  NO   OCC          E(Eh)            E(eV)
   0   1.0000     -19.432174      -528.7763
   1   1.0000     -10.410598      -283.2868
   2   1.0000     -10.335634      -281.2469
   3   1.0000      -1.248148       -33.9638
   4   1.0000      -0.859538       -23.3892
   5   1.0000      -0.753325       -20.4990
   6   1.0000      -0.661678       -18.0052
   7   1.0000      -0.625672       -17.0254
   8   1.0000      -0.551761       -15.0142
   9   1.0000      -0.498886       -13.5754
  10   1.0000      -0.473214       -12.8768
  11   1.0000      -0.456153       -12.4126
  12   1.0000      -0.210181        -5.7193
  13   0.0000       0.039530         1.0757
  14   0.0000       0.063279         1.7219
  15   0.0000       0.071767         1.9529
  16   0.0000       0.085783         2.3343
  17   0.0000       0.113575         3.0905

                 SPIN DOWN ORBITALS
  NO   OCC          E(Eh)            E(eV)
   0   1.0000     -19.400482      -527.9139
   1   1.0000     -10.411417      -283.3091
   2   1.0000     -10.323951      -280.9290
   3   1.0000      -1.182725       -32.1836
   4   1.0000      -0.824856       -22.4455
   5   1.0000      -0.733666       -19.9641
   6   1.0000      -0.612689       -16.6721
   7   1.0000      -0.589674       -16.0458
   8   1.0000      -0.520702       -14.1690
   9   1.0000      -0.471244       -12.8232
  10   1.0000      -0.409284       -11.1372
  11   0.0000      -0.091322        -2.4850
  12   0.0000       0.036137         0.9833
  13   0.0000       0.054331         1.4784
  14   0.0000       0.061223         1.6660
  15   0.0000       0.068195         1.8557

----------------------------------------------------------------------------------------------------
          SPIN FLIP ABSORPTION SPECTRUM VIA TRANSITION ELECTRIC DIPOLE MOMENTS
----------------------------------------------------------------------------------------------------
     Transition      Energy     Energy  Wavelength fosc(D2)      D2        DX        DY        DZ
                      (eV)      (cm-1)    (nm)                 (au**2)    (au)      (au)      (au)
----------------------------------------------------------------------------------------------------
  1-3A  ->  2-3A    4.523760   36486.6   274.1   0.003023321   0.02728   0.00005  -0.00004   0.16516

Dispersion correction             ... done (  0.0 sec)

MULLIKEN ATOMIC CHARGES AND SPIN DENSITIES
------------------------------------------
   0 O :   -0.290637    0.573306
   1 C :    0.150916    0.269463
   2 C :   -0.289371   -0.461010
   3 H :    0.204139    0.022990
   4 H :    0.204026    0.022884
   5 H :    0.010362   -0.213914
   6 H :    0.010564   -0.213718
Sum of atomic charges       :   -0.0000000

LOEWDIN ATOMIC CHARGES AND SPIN DENSITIES
-----------------------------------------
   0 O :    0.107887    0.592093
   1 C :   -0.147564    0.046792
   2 C :    0.116318   -0.485775
   3 H :    0.033984    0.019181
   4 H :    0.034003    0.019207
   5 H :   -0.072329   -0.095776
   6 H :   -0.072299   -0.095722

  Mayer bond orders larger than 0.100000
B(  0-O ,  1-C ) :   0.7961 B(  0-O ,  2-C ) :   0.5060 B(  1-C ,  2-C ) :   0.5945
B(  1-C ,  3-H ) :   0.9888 B(  1-C ,  4-H ) :   0.9886 B(  2-C ,  5-H ) :   1.1598
B(  2-C ,  6-H ) :   1.1597 B(  5-H ,  6-H ) :   0.1377

Dispersion correction           -0.005274281
FINAL SINGLE POINT ENERGY      -153.676502741438

DIPOLE MOMENT
-------------

Method             : TDA/CIS
Type of density    : Electron Density
Level              : Relaxed density
State              :   2
Multiplicity       :   3
Irrep              :   0
Energy             :     0.0000000000000000 Eh
Relativity type    :
Basis              : AO
                                X                 Y                 Z
Electronic contribution:      0.960675269       2.416226408      -0.001027868
Nuclear contribution   :     -0.360517748      -2.467876736       0.000831577
                        -----------------------------------------
Total Dipole Moment    :      0.600157522      -0.051650328      -0.000196291
                        -----------------------------------------
Magnitude (a.u.)       :      0.602376001
Magnitude (Debye)      :      1.531118113

Rotational constants in cm-1:             0.937916             0.618511             0.437699
Rotational constants in MHz :         28118.010551         18542.492745         13121.874905

                             ****ORCA TERMINATED NORMALLY****
TOTAL RUN TIME: 0 days 0 hours 0 minutes 17 seconds 790 msec
