                         Program Version 6.0.0  -   RELEASE  -
|  1> ! Engrad def2-TZVPPD wB97M-D3BJ
|  2> %pal nprocs 8 end%pal nprocs 64 end
|  3> %tddft Nroots 2 Iroot 1
|  4> sf true
|  5> end
|  6> *xyz 0 3
|  7> O   2.57758712 1.29151957 -0.80621839
|  8> O   -0.87161223 1.44542957 -2.04316414
|  9> O   1.0307479 -2.99845487 -1.63008166
| 10> O   -2.88243615 -1.65652216 0.6325054
| 11> N   0.68130228 -2.1094358 0.4430788
| 12> N   -2.08903296 0.26947781 1.57449379
| 13> N   1.85179599 -0.95022863 -1.20555832
| 14> N   -1.86436503 -0.08307154 -0.68179472
| 15> C   1.74989778 0.00516826 1.04307905
| 16> C   -1.03164131 1.89694233 0.23219722
| 17> C   0.98925082 -1.09131892 1.35428607
| 18> C   -1.41833582 1.47798798 1.5542451
| 19> C   2.08574698 0.91707492 2.14058938
| 20> C   -0.27822107 3.16970681 0.1785209
| 21> C   2.05131835 0.23895026 -0.32439457
| 22> C   -1.28294191 1.10640117 -0.94232006
| 23> C   1.18550631 -2.05537973 -0.85650163
| 24> C   -2.36493368 -0.59142054 0.53108364
| 25> H   0.62107326 -1.08733594 2.35376129
| 26> H   -1.57279155 2.19247586 2.33815298
| 27> H   1.24878719 1.67175909 2.1915076
| 28> H   2.11502979 0.31958359 3.1120956
| 29> H   3.01451102 1.45315299 2.06722103
| 30> H   -0.816322 3.98673436 -0.37417129
| 31> H   -0.11358993 3.34241432 1.20358988
| 32> H   0.72570669 3.07579554 -0.27641925
| 33> H   0.14353612 -2.93115476 0.71114045
| 34> H   -2.62781439 0.00804262 2.38557528
| 35> H   2.45949257 -0.85070522 -1.95241081
| 36> H   -1.80394907 -0.85189236 -1.42817255
| 37> *
| 38>
| 39>                          ****END OF INPUT****

CARTESIAN COORDINATES (ANGSTROEM)
---------------------------------
  O      2.577587    1.291520   -0.806218
  O     -0.871612    1.445430   -2.043164
  O      1.030748   -2.998455   -1.630082
  O     -2.882436   -1.656522    0.632505
  N      0.681302   -2.109436    0.443079
  N     -2.089033    0.269478    1.574494
  N      1.851796   -0.950229   -1.205558
  N     -1.864365   -0.083072   -0.681795
  C      1.749898    0.005168    1.043079
  C     -1.031641    1.896942    0.232197
  C      0.989251   -1.091319    1.354286
  C     -1.418336    1.477988    1.554245
  C      2.085747    0.917075    2.140589
  C     -0.278221    3.169707    0.178521
  C      2.051318    0.238950   -0.324395
  C     -1.282942    1.106401   -0.942320
  C      1.185506   -2.055380   -0.856502
  C     -2.364934   -0.591421    0.531084
  H      0.621073   -1.087336    2.353761
  H     -1.572792    2.192476    2.338153
  H      1.248787    1.671759    2.191508
  H      2.115030    0.319584    3.112096
  H      3.014511    1.453153    2.067221
  H     -0.816322    3.986734   -0.374171
  H     -0.113590    3.342414    1.203590
  H      0.725707    3.075796   -0.276419
  H      0.143536   -2.931155    0.711140
  H     -2.627814    0.008043    2.385575
  H      2.459493   -0.850705   -1.952411
  H     -1.803949   -0.851892   -1.428173

 Total Charge           Charge          ....    0
 Multiplicity           Mult            ....    3
 Number of Electrons    NEL             ....  132
 Basis Dimension        Dim             ....  882

ORBITAL ENERGIES
----------------
                 SPIN UP ORBITALS
  NO   OCC          E(Eh)            E(eV)
   0   1.0000     -19.349362      -526.5229
   1   1.0000     -19.330615      -526.0128
   2   1.0000     -19.319228      -525.7029
   3   1.0000     -19.310274      -525.4593
   4   1.0000     -14.595564      -397.1655
   5   1.0000     -14.589046      -396.9881
   6   1.0000     -14.565860      -396.3572
   7   1.0000     -14.561805      -396.2469
   8   1.0000     -10.522816      -286.3404
   9   1.0000     -10.507086      -285.9124
  10   1.0000     -10.489656      -285.4380
  11   1.0000     -10.461678      -284.6767
  12   1.0000     -10.442317      -284.1499
  13   1.0000     -10.416399      -283.4446
  14   1.0000     -10.402406      -283.0639
  15   1.0000     -10.384319      -282.5717
  16   1.0000     -10.369395      -282.1656
  17   1.0000     -10.356447      -281.8133
  18   1.0000      -1.244872       -33.8747
  19   1.0000      -1.208535       -32.8859
  20   1.0000      -1.189169       -32.3589
  21   1.0000      -1.162268       -31.6269
  22   1.0000      -1.131885       -30.8002
  23   1.0000      -1.105813       -30.0907
  24   1.0000      -1.066151       -29.0115
  25   1.0000      -1.062179       -28.9034
  26   1.0000      -0.968408       -26.3517
  27   1.0000      -0.963704       -26.2237
  28   1.0000      -0.853164       -23.2158
  29   1.0000      -0.842063       -22.9137
  30   1.0000      -0.816868       -22.2281
  31   1.0000      -0.814402       -22.1610
  32   1.0000      -0.792394       -21.5621
  33   1.0000      -0.791936       -21.5497
  34   1.0000      -0.696844       -18.9621
  35   1.0000      -0.694257       -18.8917
  36   1.0000      -0.687553       -18.7093
  37   1.0000      -0.685803       -18.6617
  38   1.0000      -0.652814       -17.7640
  39   1.0000      -0.644306       -17.5324
  40   1.0000      -0.617825       -16.8119
  41   1.0000      -0.601594       -16.3702
  42   1.0000      -0.596330       -16.2270
  43   1.0000      -0.593331       -16.1454
  44   1.0000      -0.582772       -15.8580
  45   1.0000      -0.568917       -15.4810
  46   1.0000      -0.555390       -15.1129
  47   1.0000      -0.553189       -15.0530
  48   1.0000      -0.548036       -14.9128
  49   1.0000      -0.547187       -14.8897
  50   1.0000      -0.523008       -14.2318
  51   1.0000      -0.522065       -14.2061
  52   1.0000      -0.516177       -14.0459
  53   1.0000      -0.505453       -13.7541
  54   1.0000      -0.503271       -13.6947
  55   1.0000      -0.498691       -13.5701
  56   1.0000      -0.490120       -13.3369
  57   1.0000      -0.469377       -12.7724
  58   1.0000      -0.436487       -11.8774
  59   1.0000      -0.410762       -11.1774
  60   1.0000      -0.406370       -11.0579
  61   1.0000      -0.394104       -10.7241
  62   1.0000      -0.387905       -10.5554
  63   1.0000      -0.381710       -10.3868
  64   1.0000      -0.377763       -10.2794
  65   1.0000      -0.341800        -9.3008
  66   1.0000      -0.240356        -6.5404
  67   0.0000       0.001500         0.0408
  68   0.0000       0.009819         0.2672
  69   0.0000       0.029550         0.8041
  70   0.0000       0.035639         0.9698
  71   0.0000       0.040137         1.0922

                 SPIN DOWN ORBITALS
  NO   OCC          E(Eh)            E(eV)
   0   1.0000     -19.347566      -526.4740
   1   1.0000     -19.330655      -526.0139
   2   1.0000     -19.313569      -525.5489
   3   1.0000     -19.310258      -525.4588
   4   1.0000     -14.591741      -397.0615
   5   1.0000     -14.588963      -396.9859
   6   1.0000     -14.565864      -396.3573
   7   1.0000     -14.560789      -396.2192
   8   1.0000     -10.522955      -286.3442
   9   1.0000     -10.507087      -285.9124
  10   1.0000     -10.489648      -285.4378
  11   1.0000     -10.462243      -284.6921
  12   1.0000     -10.442149      -284.1453
  13   1.0000     -10.405260      -283.1415
  14   1.0000     -10.392004      -282.7808
  15   1.0000     -10.384353      -282.5726
  16   1.0000     -10.369190      -282.1600
  17   1.0000     -10.356971      -281.8275
  18   1.0000      -1.241467       -33.7820
  19   1.0000      -1.208489       -32.8846
  20   1.0000      -1.181185       -32.1417
  21   1.0000      -1.162310       -31.6281
  22   1.0000      -1.122201       -30.5366
  23   1.0000      -1.105672       -30.0869
  24   1.0000      -1.062152       -28.9026
  25   1.0000      -1.060786       -28.8655
  26   1.0000      -0.966827       -26.3087
  27   1.0000      -0.942060       -25.6348
  28   1.0000      -0.842064       -22.9137
  29   1.0000      -0.840972       -22.8840
  30   1.0000      -0.815281       -22.1849
  31   1.0000      -0.803769       -21.8717
  32   1.0000      -0.792178       -21.5562
  33   1.0000      -0.786978       -21.4148
  34   1.0000      -0.694163       -18.8891
  35   1.0000      -0.688062       -18.7231
  36   1.0000      -0.685642       -18.6573
  37   1.0000      -0.675852       -18.3909
  38   1.0000      -0.649803       -17.6820
  39   1.0000      -0.636021       -17.3070
  40   1.0000      -0.608064       -16.5463
  41   1.0000      -0.598153       -16.2766
  42   1.0000      -0.594275       -16.1711
  43   1.0000      -0.589204       -16.0330
  44   1.0000      -0.573042       -15.5933
  45   1.0000      -0.557833       -15.1794
  46   1.0000      -0.553659       -15.0658
  47   1.0000      -0.547472       -14.8975
  48   1.0000      -0.545636       -14.8475
  49   1.0000      -0.534439       -14.5428
  50   1.0000      -0.522313       -14.2129
  51   1.0000      -0.507551       -13.8112
  52   1.0000      -0.506947       -13.7947
  53   1.0000      -0.502825       -13.6826
  54   1.0000      -0.500429       -13.6174
  55   1.0000      -0.490012       -13.3339
  56   1.0000      -0.468671       -12.7532
  57   1.0000      -0.456010       -12.4087
  58   1.0000      -0.432628       -11.7724
  59   1.0000      -0.406605       -11.0643
  60   1.0000      -0.393946       -10.7198
  61   1.0000      -0.386328       -10.5125
  62   1.0000      -0.380888       -10.3645
  63   1.0000      -0.378765       -10.3067
  64   1.0000      -0.341643        -9.2966
  65   0.0000      -0.093368        -2.5407
  66   0.0000       0.000850         0.0231
  67   0.0000       0.009304         0.2532
  68   0.0000       0.027380         0.7451
  69   0.0000       0.034023         0.9258

----------------------------------------------------------------------------------------------------
          SPIN FLIP ABSORPTION SPECTRUM VIA TRANSITION ELECTRIC DIPOLE MOMENTS
----------------------------------------------------------------------------------------------------
     Transition      Energy     Energy  Wavelength fosc(D2)      D2        DX        DY        DZ
                      (eV)      (cm-1)    (nm)                 (au**2)    (au)      (au)      (au)
----------------------------------------------------------------------------------------------------
  1-3A  ->  2-3A    3.136568   25298.1   395.3   0.000486188   0.00633   0.02423   0.03417   0.06762

Dispersion correction             ... done (  0.1 sec)

MULLIKEN ATOMIC CHARGES AND SPIN DENSITIES
------------------------------------------
   0 O :   -0.699087   -0.001110
   1 O :   -0.672733    0.029200
   2 O :   -0.692151   -0.000107
   3 O :   -0.608253    0.006365
   4 N :    0.046002   -0.000050
   5 N :    0.012692    0.035306
   6 N :    0.162000    0.000136
   7 N :   -0.075588   -0.002542
   8 C :    0.926687   -0.002356
   9 C :    1.079294    0.383994
  10 C :   -0.287032   -0.003440
  11 C :   -0.365278   -0.243412
  12 C :   -1.121276    0.000914
  13 C :   -1.410563   -0.075305
  14 C :    0.289254    0.004192
  15 C :    0.383562   -0.178542
  16 C :    0.365738    0.000076
  17 C :    0.387787    0.004694
  18 H :    0.167146    0.002326
  19 H :    0.246769    0.014045
  20 H :    0.148440   -0.008598
  21 H :    0.326172   -0.000371
  22 H :    0.313388    0.000798
  23 H :    0.353542   -0.000816
  24 H :    0.332589    0.022188
  25 H :    0.177406    0.007709
  26 H :    0.062246   -0.000051
  27 H :    0.027193    0.001799
  28 H :   -0.000609   -0.000173
  29 H :    0.124662    0.003132
Sum of atomic charges       :   -0.0000000

LOEWDIN ATOMIC CHARGES AND SPIN DENSITIES
-----------------------------------------
   0 O :    0.042324    0.000080
   1 O :    0.084355    0.024055
   2 O :    0.055075   -0.000041
   3 O :    0.109775    0.004885
   4 N :    0.286906    0.000079
   5 N :    0.257363    0.017204
   6 N :    0.374682    0.000048
   7 N :    0.307932   -0.002300
   8 C :   -0.178106   -0.001144
   9 C :   -0.114052   -0.021645
  10 C :    0.080368   -0.000278
  11 C :    0.099248   -0.021920
  12 C :    0.157239   -0.001091
  13 C :    0.159357   -0.002541
  14 C :   -0.284519    0.000033
  15 C :   -0.458919    0.004438
  16 C :   -0.494393    0.000000
  17 C :   -0.488604    0.000450
  18 H :    0.016253    0.000091
  19 H :    0.021079   -0.001759
  20 H :   -0.002060   -0.000804
  21 H :    0.030405   -0.000049
  22 H :   -0.010448   -0.000080
  23 H :    0.032454   -0.000054
  24 H :   -0.062052   -0.000043
  25 H :    0.005433    0.000644
  26 H :   -0.005526    0.000007
  27 H :   -0.022477    0.001668
  28 H :   -0.061482    0.000014
  29 H :    0.062390    0.000053

  Mayer bond orders larger than 0.100000
B(  0-O , 14-C ) :   1.3550 B(  1-O , 15-C ) :   1.4538 B(  2-O , 16-C ) :   1.5400
B(  3-O , 17-C ) :   1.6052 B(  4-N , 10-C ) :   0.9409 B(  4-N , 16-C ) :   1.0335
B(  4-N , 26-H ) :   1.1132 B(  5-N ,  9-C ) :   0.1070 B(  5-N , 11-C ) :   0.7972
B(  5-N , 17-C ) :   1.0045 B(  5-N , 27-H ) :   1.1409 B(  6-N , 14-C ) :   1.0052
B(  6-N , 16-C ) :   1.0767 B(  6-N , 28-H ) :   1.1214 B(  7-N , 15-C ) :   1.0130
B(  7-N , 17-C ) :   0.9543 B(  7-N , 29-H ) :   1.0439 B(  8-C , 10-C ) :   1.1596
B(  8-C , 12-C ) :   0.3134 B(  8-C , 14-C ) :   0.6916 B(  8-C , 18-H ) :  -0.1150
B(  8-C , 21-H ) :  -0.1269 B(  9-C , 11-C ) :   1.0208 B(  9-C , 13-C ) :   0.1980
B(  9-C , 15-C ) :   0.7029 B(  9-C , 17-C ) :   0.1018 B(  9-C , 24-H ) :  -0.1242
B( 10-C , 14-C ) :  -0.1146 B( 10-C , 18-H ) :   1.1318 B( 11-C , 13-C ) :  -0.1219
B( 11-C , 15-C ) :   0.1096 B( 11-C , 19-H ) :   1.0835 B( 12-C , 20-H ) :   0.9385
B( 12-C , 21-H ) :   1.0045 B( 12-C , 22-H ) :   0.9730 B( 13-C , 23-H ) :   0.8922
B( 13-C , 24-H ) :   1.0371 B( 13-C , 25-H ) :   1.0379

Dispersion correction           -0.055638863
FINAL SINGLE POINT ENERGY      -908.844625634777

DIPOLE MOMENT
-------------

Method             : TDA/CIS
Type of density    : Electron Density
Level              : Relaxed density
State              :   1
Multiplicity       :   3
Irrep              :   0
Energy             :     0.0000000000000000 Eh
Relativity type    :
Basis              : AO
                                X                 Y                 Z
Electronic contribution:     -3.598810913      -9.249885152      -7.766439529
Nuclear contribution   :      3.109070881       9.627034077      10.987734622
                        -----------------------------------------
Total Dipole Moment    :     -0.489740032       0.377148925       3.221295093
                        -----------------------------------------
Magnitude (a.u.)       :      3.280065348
Magnitude (Debye)      :      8.337263542

Rotational constants in cm-1:             0.016973             0.014437             0.011611
Rotational constants in MHz :           508.845136           432.820457           348.103440

                             ****ORCA TERMINATED NORMALLY****
TOTAL RUN TIME: 0 days 0 hours 5 minutes 0 seconds 357 msec
