                         Program Version 6.0.0  -   RELEASE  -
|  1> ! opt def2-TZVPPD wB97M-D3BJ
|  2> %pal nprocs 8 end%pal nprocs 32 end
|  3> %geom Constraints
|  4> {B 9 8 2.9 C}
|  5> {A 8 9 11 52.285714285714285 C}
|  6> end
|  7> MaxIter 300
|  8> end
|  9> *xyz 0 1
| 10> O   2.98579685529314 0.88758230159078 -0.86184571092411
| 11> O   -0.03983205397054 0.68929041702508 -2.10362336723772
| 12> O   0.93431434349854 -3.13274393337945 -0.68767288184107
| 13> O   -3.75829998830163 -0.84727300865116 -0.0472717177755
| 14> N   0.21184538946282 -1.54604804365365 0.7617588924445
| 15> N   -2.13631993928911 0.03188773433438 1.27350571071531
| 16> N   2.02598672506387 -1.14318467211666 -0.64531219127023
| 17> N   -1.91814233924584 0.03137116037665 -1.04498946748291
| 18> C   1.18097737274226 0.71693507080484 0.70173889017321
| 19> C   -0.20686880480777 1.27024627933494 0.21345042231937
| 20> C   0.41441080275909 -0.34173258966541 1.52336266615173
| 21> C   -0.82922175114212 0.58960593673968 1.44434972027296
| 22> C   1.92822011286806 1.69488653817281 1.5963734975385
| 23> C   -0.37809776891576 2.77134929626422 0.04819649358288
| 24> C   2.1403947470937 0.1972384729179 -0.35038567829864
| 25> C   -0.67361678962426 0.6214190571346 -1.0793014500539
| 26> C   1.04142578622994 -2.02697492875068 -0.21027082435993
| 27> C   -2.68467002550422 -0.30396816036989 0.07167054343891
| 28> H   0.80817443950001 -0.54572267081061 2.51895215321335
| 29> H   -0.83785272399001 1.27240685039143 2.28901317073582
| 30> H   2.31167340578204 2.52284411740894 1.00913016264629
| 31> H   1.28982602448342 2.08257620823614 2.38710022492991
| 32> H   2.77390820759972 1.19140411795486 2.06045858523949
| 33> H   -1.41857211141493 3.00964947214868 -0.16882755561625
| 34> H   -0.09065531563179 3.29799318042223 0.95389844358819
| 35> H   0.23426221611057 3.12492645074476 -0.77764887675592
| 36> H   -0.46772570547622 -2.21560145172536 1.0787081584806
| 37> H   -2.71769301149571 -0.17090724573546 2.06627440900372
| 38> H   2.60065167263658 -1.49057255715425 -1.3966820077142
| 39> H   -2.27169977231386 -0.32388339999036 -1.91951041514436
| 40> *
| 41>
| 42>                          ****END OF INPUT****
 Total Charge           Charge          ....    0
 Multiplicity           Mult            ....    1
 Number of Electrons    NEL             ....  132
Dispersion correction           -0.053450741
FINAL SINGLE POINT ENERGY      -908.669756170756
Dispersion correction             ... done (  0.0 sec)
Dispersion correction           -0.054242482
FINAL SINGLE POINT ENERGY      -908.703037088651
Dispersion correction             ... done (  0.0 sec)
Dispersion correction           -0.055001170
FINAL SINGLE POINT ENERGY      -908.726862388949
Dispersion correction             ... done (  0.0 sec)
FINAL SINGLE POINT ENERGY      -908.750939748104
FINAL SINGLE POINT ENERGY      -908.767794480211
FINAL SINGLE POINT ENERGY      -908.774266430863
FINAL SINGLE POINT ENERGY      -908.776790404311
FINAL SINGLE POINT ENERGY      -908.777723342704
FINAL SINGLE POINT ENERGY      -908.778343124554
FINAL SINGLE POINT ENERGY      -908.778756285488
FINAL SINGLE POINT ENERGY      -908.780387754632
FINAL SINGLE POINT ENERGY      -908.779068522878
FINAL SINGLE POINT ENERGY      -908.780551895912
FINAL SINGLE POINT ENERGY      -908.780521678942
FINAL SINGLE POINT ENERGY      -908.780598712832
FINAL SINGLE POINT ENERGY      -908.780755668735
FINAL SINGLE POINT ENERGY      -908.780770886261
Dispersion correction             ... done (  0.0 sec)
Dispersion correction           -0.058084303
FINAL SINGLE POINT ENERGY      -908.780777470213
Dispersion correction             ... done (  0.0 sec)
Dispersion correction           -0.058072073
FINAL SINGLE POINT ENERGY      -908.780779415750
Dispersion correction             ... done (  0.0 sec)
                    ***********************HURRAY********************

CARTESIAN COORDINATES (ANGSTROEM)
---------------------------------
  O      3.658551    0.570323   -0.117541
  O     -1.118524    1.038587   -2.502136
  O      0.866929   -2.820318   -1.251617
  O     -3.570791   -1.196719    0.548139
  N      0.267369   -1.497033    0.484465
  N     -1.995243    0.251581    1.329663
  N      2.257104   -1.126773   -0.656867
  N     -2.116844   -0.282512   -0.941310
  C      1.664680    0.387493    1.124046
  C     -0.670736    1.469305   -0.212187
  C      0.409648   -0.356189    1.348965
  C     -0.615309    0.730461    1.141316
  C      2.065725    1.484992    2.025736
  C     -0.575432    2.937597   -0.248611
  C      2.613145   -0.017959    0.088169
  C     -1.269915    0.747546   -1.335633
  C      1.099382   -1.880391   -0.526154
  C     -2.629130   -0.464938    0.342348
  H      0.348013   -0.691363    2.394509
  H     -0.446929    1.484567    1.906102
  H      3.149561    1.556729    2.058744
  H      1.708549    2.457564    1.660636
  H      1.661175    1.348861    3.028629
  H     -1.413608    3.391828    0.294504
  H      0.334555    3.286792    0.249654
  H     -0.595294    3.295915   -1.273364
  H     -0.547698   -2.076588    0.577800
  H     -2.365099    0.068065    2.247413
  H      2.870005   -1.392188   -1.409809
  H     -2.591240   -0.790231   -1.671008

 Multiplicity           Mult            ....    1
 Number of Electrons    NEL             ....  132
 Basis Dimension        Dim             ....  882

ORBITAL ENERGIES
----------------

  NO   OCC          E(Eh)            E(eV)
   0   2.0000     -19.335828      -526.1546
   1   2.0000     -19.328606      -525.9581
   2   2.0000     -19.328393      -525.9523
   3   2.0000     -19.314581      -525.5765
   4   2.0000     -14.564879      -396.3305
   5   2.0000     -14.561980      -396.2516
   6   2.0000     -14.559796      -396.1922
   7   2.0000     -14.557801      -396.1379
   8   2.0000     -10.510592      -286.0078
   9   2.0000     -10.502676      -285.7923
  10   2.0000     -10.486841      -285.3614
  11   2.0000     -10.483052      -285.2584
  12   2.0000     -10.444446      -284.2078
  13   2.0000     -10.440495      -284.1003
  14   2.0000     -10.432098      -283.8718
  15   2.0000     -10.431095      -283.8445
  16   2.0000     -10.382888      -282.5328
  17   2.0000     -10.379853      -282.4502
  18   2.0000      -1.224638       -33.3241
  19   2.0000      -1.215964       -33.0881
  20   2.0000      -1.200119       -32.6569
  21   2.0000      -1.192691       -32.4548
  22   2.0000      -1.120012       -30.4771
  23   2.0000      -1.097528       -29.8652
  24   2.0000      -1.066998       -29.0345
  25   2.0000      -1.057259       -28.7695
  26   2.0000      -0.987917       -26.8826
  27   2.0000      -0.951109       -25.8810
  28   2.0000      -0.895452       -24.3665
  29   2.0000      -0.841860       -22.9082
  30   2.0000      -0.828707       -22.5503
  31   2.0000      -0.800371       -21.7792
  32   2.0000      -0.785378       -21.3712
  33   2.0000      -0.784842       -21.3566
  34   2.0000      -0.704267       -19.1641
  35   2.0000      -0.695915       -18.9368
  36   2.0000      -0.692218       -18.8362
  37   2.0000      -0.673843       -18.3362
  38   2.0000      -0.650828       -17.7099
  39   2.0000      -0.636028       -17.3072
  40   2.0000      -0.625015       -17.0075
  41   2.0000      -0.601489       -16.3673
  42   2.0000      -0.593287       -16.1442
  43   2.0000      -0.586481       -15.9590
  44   2.0000      -0.577270       -15.7083
  45   2.0000      -0.573176       -15.5969
  46   2.0000      -0.565756       -15.3950
  47   2.0000      -0.562526       -15.3071
  48   2.0000      -0.558027       -15.1847
  49   2.0000      -0.551436       -15.0053
  50   2.0000      -0.549975       -14.9656
  51   2.0000      -0.546130       -14.8610
  52   2.0000      -0.532523       -14.4907
  53   2.0000      -0.521724       -14.1968
  54   2.0000      -0.514101       -13.9894
  55   2.0000      -0.509162       -13.8550
  56   2.0000      -0.492434       -13.3998
  57   2.0000      -0.423199       -11.5158
  58   2.0000      -0.420428       -11.4404
  59   2.0000      -0.408672       -11.1205
  60   2.0000      -0.397393       -10.8136
  61   2.0000      -0.395541       -10.7632
  62   2.0000      -0.392652       -10.6846
  63   2.0000      -0.387482       -10.5439
  64   2.0000      -0.377464       -10.2713
  65   2.0000      -0.289528        -7.8785
  66   0.0000      -0.109256        -2.9730
  67   0.0000       0.007086         0.1928
  68   0.0000       0.027905         0.7593
  69   0.0000       0.032538         0.8854
  70   0.0000       0.034579         0.9410

MULLIKEN ATOMIC CHARGES
-----------------------
   0 O :   -0.676006
   1 O :   -0.642177
   2 O :   -0.665983
   3 O :   -0.636349
   4 N :   -0.192337
   5 N :   -0.324343
   6 N :   -0.044112
   7 N :    0.069721
   8 C :    0.348530
   9 C :    0.441198
  10 C :    0.331480
  11 C :    0.394812
  12 C :   -1.574612
  13 C :   -1.494565
  14 C :    0.558311
  15 C :    0.077881
  16 C :    0.516765
  17 C :    0.343061
  18 H :    0.422604
  19 H :    0.624061
  20 H :    0.379809
  21 H :    0.250211
  22 H :    0.351247
  23 H :    0.356790
  24 H :    0.216868
  25 H :    0.386355
  26 H :    0.023639
  27 H :    0.096908
  28 H :    0.030171
  29 H :    0.030063
Sum of atomic charges:   -0.0000000

LOEWDIN ATOMIC CHARGES
----------------------
   0 O :    0.089906
   1 O :    0.109882
   2 O :    0.090089
   3 O :    0.091670
   4 N :    0.296601
   5 N :    0.288909
   6 N :    0.328383
   7 N :    0.323800
   8 C :   -0.001014
   9 C :    0.022554
  10 C :   -0.160780
  11 C :   -0.143551
  12 C :    0.187066
  13 C :    0.185423
  14 C :   -0.392690
  15 C :   -0.400994
  16 C :   -0.476832
  17 C :   -0.493372
  18 H :    0.067624
  19 H :    0.040756
  20 H :    0.005041
  21 H :   -0.000346
  22 H :    0.008610
  23 H :    0.019437
  24 H :   -0.010522
  25 H :    0.003460
  26 H :   -0.029365
  27 H :   -0.031801
  28 H :   -0.010164
  29 H :   -0.007777

  Mayer bond orders larger than 0.100000
B(  0-O , 12-C ) :   0.1104 B(  0-O , 14-C ) :   1.2399 B(  1-O , 15-C ) :   1.4339
B(  2-O , 16-C ) :   1.5450 B(  3-O , 17-C ) :   1.5966 B(  4-N , 10-C ) :   0.6414
B(  4-N , 16-C ) :   1.0415 B(  4-N , 26-H ) :   1.1201 B(  5-N ,  9-C ) :   0.2573
B(  5-N , 10-C ) :   0.1756 B(  5-N , 17-C ) :   1.2103 B(  5-N , 27-H ) :   1.0374
B(  6-N , 14-C ) :   1.0291 B(  6-N , 16-C ) :   0.9195 B(  6-N , 28-H ) :   1.1220
B(  7-N , 10-C ) :  -0.1085 B(  7-N , 11-C ) :   0.1055 B(  7-N , 15-C ) :   1.0051
B(  7-N , 17-C ) :   0.9735 B(  7-N , 29-H ) :   1.0946 B(  8-C ,  9-C ) :   0.5456
B(  8-C , 10-C ) :   0.4899 B(  8-C , 11-C ) :   0.3481 B(  8-C , 12-C ) :   0.1499
B(  8-C , 14-C ) :   0.7182 B(  8-C , 18-H ) :  -0.2283 B(  8-C , 22-H ) :  -0.1387
B(  9-C , 10-C ) :   0.2346 B(  9-C , 11-C ) :   0.2502 B(  9-C , 13-C ) :   0.2307
B(  9-C , 15-C ) :   0.7047 B(  9-C , 24-H ) :  -0.1146 B(  9-C , 25-H ) :  -0.1125
B( 10-C , 11-C ) :   0.5784 B( 10-C , 12-C ) :  -0.2683 B( 10-C , 14-C ) :   0.1269
B( 10-C , 18-H ) :   1.0321 B( 10-C , 19-H ) :  -0.1408 B( 11-C , 12-C ) :   0.1715
B( 11-C , 13-C ) :  -0.1280 B( 11-C , 15-C ) :  -0.1910 B( 11-C , 17-C ) :  -0.2048
B( 11-C , 19-H ) :   0.7174 B( 12-C , 20-H ) :   0.9076 B( 12-C , 21-H ) :   0.9197
B( 12-C , 22-H ) :   1.0267 B( 13-C , 23-H ) :   0.8547 B( 13-C , 24-H ) :   1.1168
B( 13-C , 25-H ) :   0.9225 B( 18-H , 19-H ) :   0.1062

Dispersion correction           -0.058069151
FINAL SINGLE POINT ENERGY      -908.780779737001

DIPOLE MOMENT
-------------

Method             : SCF
Type of density    : Electron Density
Multiplicity       :   1
Irrep              :   0
Energy             :  -908.7227105864863006 Eh
Relativity type    :
Basis              : AO
                                X                 Y                 Z
Electronic contribution:     -1.971546564      -9.882796950      -6.731981733
Nuclear contribution   :      1.862462177      11.293905567       9.168028742
                        -----------------------------------------
Total Dipole Moment    :     -0.109084387       1.411108617       2.436047010
                        -----------------------------------------
Magnitude (a.u.)       :      2.817348393
Magnitude (Debye)      :      7.161130510

Rotational constants in cm-1:             0.020195             0.012910             0.011262
Rotational constants in MHz :           605.425218           387.029537           337.612975

                             ****ORCA TERMINATED NORMALLY****
TOTAL RUN TIME: 0 days 1 hours 45 minutes 26 seconds 772 msec
