                         Program Version 6.0.0  -   RELEASE  -
|  1> ! Engrad def2-TZVPPD wB97M-D3BJ
|  2> %pal nprocs 8 end%pal nprocs 64 end
|  3> %tddft
|  4>  Iroot 2 Nroots 3
|  5> sf true
|  6> end
|  7> *xyz 0 3
|  8> O   1.44335067 0.20503105 0.67719833
|  9> C   0.51407494 -0.13748534 -0.39652829
| 10> C   -0.88681803 0.1487046 -0.09323914
| 11> H   0.66255353 -1.26029064 -0.57534604
| 12> H   0.8603989 0.29240682 -1.36517423
| 13> H   -1.60136028 0.51500839 -0.78868071
| 14> H   -1.22441661 -0.30683595 0.86668285
| 15> *
| 16>
| 17>                          ****END OF INPUT****

CARTESIAN COORDINATES (ANGSTROEM)
---------------------------------
  O      1.443351    0.205031    0.677198
  C      0.514075   -0.137485   -0.396528
  C     -0.886818    0.148705   -0.093239
  H      0.662554   -1.260291   -0.575346
  H      0.860399    0.292407   -1.365174
  H     -1.601360    0.515008   -0.788681
  H     -1.224417   -0.306836    0.866683

 Total Charge           Charge          ....    0
 Multiplicity           Mult            ....    3
 Number of Electrons    NEL             ....   24
 Basis Dimension        Dim             ....  182

ORBITAL ENERGIES
----------------
                 SPIN UP ORBITALS
  NO   OCC          E(Eh)            E(eV)
   0   1.0000     -19.394188      -527.7427
   1   1.0000     -10.420576      -283.5583
   2   1.0000     -10.372055      -282.2380
   3   1.0000      -1.139363       -31.0036
   4   1.0000      -0.885553       -24.0971
   5   1.0000      -0.730983       -19.8911
   6   1.0000      -0.603551       -16.4234
   7   1.0000      -0.582988       -15.8639
   8   1.0000      -0.543041       -14.7769
   9   1.0000      -0.507823       -13.8186
  10   1.0000      -0.450002       -12.2452
  11   1.0000      -0.419616       -11.4183
  12   1.0000      -0.327528        -8.9125
  13   0.0000       0.039984         1.0880
  14   0.0000       0.061448         1.6721
  15   0.0000       0.078460         2.1350
  16   0.0000       0.086375         2.3504
  17   0.0000       0.110114         2.9964

                 SPIN DOWN ORBITALS
  NO   OCC          E(Eh)            E(eV)
   0   1.0000     -19.369290      -527.0652
   1   1.0000     -10.422177      -283.6018
   2   1.0000     -10.358955      -281.8815
   3   1.0000      -1.080065       -29.3901
   4   1.0000      -0.853985       -23.2381
   5   1.0000      -0.705601       -19.2004
   6   1.0000      -0.585050       -15.9200
   7   1.0000      -0.539470       -14.6797
   8   1.0000      -0.515879       -14.0378
   9   1.0000      -0.483268       -13.1504
  10   1.0000      -0.389591       -10.6013
  11   0.0000      -0.051477        -1.4008
  12   0.0000      -0.006401        -0.1742
  13   0.0000       0.039383         1.0717
  14   0.0000       0.061271         1.6673
  15   0.0000       0.078693         2.1413

----------------------------------------------------------------------------------------------------
          SPIN FLIP ABSORPTION SPECTRUM VIA TRANSITION ELECTRIC DIPOLE MOMENTS
----------------------------------------------------------------------------------------------------
     Transition      Energy     Energy  Wavelength fosc(D2)      D2        DX        DY        DZ
                      (eV)      (cm-1)    (nm)                 (au**2)    (au)      (au)      (au)
----------------------------------------------------------------------------------------------------
  1-3A  ->  2-3A    0.087610     706.6  14151.8   0.000189096   0.08810   0.26854  -0.07854   0.09909
  1-3A  ->  3-1A    0.816637    6586.6  1518.2   0.008871452   0.44341   0.59497   0.03347   0.29716

Dispersion correction             ... done (  0.2 sec)

MULLIKEN ATOMIC CHARGES AND SPIN DENSITIES
------------------------------------------
   0 O :   -0.323988   -0.192273
   1 C :   -0.013762    0.009040
   2 C :   -0.527325    0.224431
   3 H :    0.205725    0.038594
   4 H :    0.214484   -0.073113
   5 H :    0.236045    0.004931
   6 H :    0.208822   -0.011610
Sum of atomic charges       :    0.0000000

LOEWDIN ATOMIC CHARGES AND SPIN DENSITIES
-----------------------------------------
   0 O :   -0.014207   -0.193082
   1 C :   -0.250139   -0.008637
   2 C :    0.283499    0.193581
   3 H :    0.049579    0.019859
   4 H :    0.015903   -0.048642
   5 H :   -0.065277    0.021443
   6 H :   -0.019357    0.015479

  Mayer bond orders larger than 0.100000
B(  0-O ,  1-C ) :   0.8420 B(  0-O ,  2-C ) :   0.2661 B(  1-C ,  2-C ) :   0.8098
B(  1-C ,  3-H ) :   0.9552 B(  1-C ,  4-H ) :   0.9935 B(  2-C ,  5-H ) :   0.9559
B(  2-C ,  6-H ) :   0.9993

Dispersion correction           -0.005470149
FINAL SINGLE POINT ENERGY      -153.744499985456

DIPOLE MOMENT
-------------

Method             : TDA/CIS
Type of density    : Electron Density
Level              : Relaxed density
State              :   2
Multiplicity       :   3
Irrep              :   0
Energy             :     0.0000000000000000 Eh
Relativity type    :
Basis              : AO
                                X                 Y                 Z
Electronic contribution:      1.897389530       0.593278516       1.312124153
Nuclear contribution   :     -2.680624154      -0.936280469      -2.000290680
                        -----------------------------------------
Total Dipole Moment    :     -0.783234624      -0.343001953      -0.688166527
                        -----------------------------------------
Magnitude (a.u.)       :      1.097579147
Magnitude (Debye)      :      2.789824482

Rotational constants in cm-1:             1.410082             0.332666             0.291733
Rotational constants in MHz :         42273.180571          9973.065465          8745.950000

                             ****ORCA TERMINATED NORMALLY****
TOTAL RUN TIME: 0 days 0 hours 0 minutes 27 seconds 195 msec
