                         Program Version 6.0.0  -   RELEASE  -
|  1> ! Engrad def2-TZVPPD wB97M-D3BJ
|  2> %pal nprocs 8 end%pal nprocs 64 end
|  3> %tddft
|  4>  Iroot 2 Nroots 3
|  5> sf true
|  6> end
|  7> *xyz 0 3
|  8> O   1.21190176 -0.81042039 0.27344327
|  9> C   0.57253333 0.40929643 0.34928023
| 10> C   -0.67810549 0.64102085 -0.45427722
| 11> H   1.30769907 1.14834915 0.21461554
| 12> H   0.28619308 0.5367062 1.41650268
| 13> H   -1.61240455 0.60095243 -0.04341322
| 14> H   -0.57317097 0.90614114 -1.53330732
| 15> *
| 16>
| 17>                          ****END OF INPUT****

CARTESIAN COORDINATES (ANGSTROEM)
---------------------------------
  O      1.211902   -0.810420    0.273443
  C      0.572533    0.409296    0.349280
  C     -0.678105    0.641021   -0.454277
  H      1.307699    1.148349    0.214616
  H      0.286193    0.536706    1.416503
  H     -1.612405    0.600952   -0.043413
  H     -0.573171    0.906141   -1.533307

 Total Charge           Charge          ....    0
 Multiplicity           Mult            ....    3
 Number of Electrons    NEL             ....   24
 Basis Dimension        Dim             ....  182

ORBITAL ENERGIES
----------------
                 SPIN UP ORBITALS
  NO   OCC          E(Eh)            E(eV)
   0   1.0000     -19.387011      -527.5474
   1   1.0000     -10.409611      -283.2599
   2   1.0000     -10.368878      -282.1515
   3   1.0000      -1.162826       -31.6421
   4   1.0000      -0.878843       -23.9145
   5   1.0000      -0.741914       -20.1885
   6   1.0000      -0.620542       -16.8858
   7   1.0000      -0.577561       -15.7162
   8   1.0000      -0.554927       -15.1003
   9   1.0000      -0.527721       -14.3600
  10   1.0000      -0.430728       -11.7207
  11   1.0000      -0.411111       -11.1869
  12   1.0000      -0.335907        -9.1405
  13   0.0000       0.040456         1.1009
  14   0.0000       0.061397         1.6707
  15   0.0000       0.076880         2.0920
  16   0.0000       0.089545         2.4367
  17   0.0000       0.114348         3.1116

                 SPIN DOWN ORBITALS
  NO   OCC          E(Eh)            E(eV)
   0   1.0000     -19.362712      -526.8862
   1   1.0000     -10.410931      -283.2958
   2   1.0000     -10.355902      -281.7984
   3   1.0000      -1.107967       -30.1493
   4   1.0000      -0.845852       -23.0168
   5   1.0000      -0.715036       -19.4571
   6   1.0000      -0.587709       -15.9924
   7   1.0000      -0.556849       -15.1526
   8   1.0000      -0.526250       -14.3200
   9   1.0000      -0.488380       -13.2895
  10   1.0000      -0.381662       -10.3856
  11   0.0000      -0.050715        -1.3800
  12   0.0000      -0.008960        -0.2438
  13   0.0000       0.039460         1.0738
  14   0.0000       0.061322         1.6687
  15   0.0000       0.076859         2.0914

----------------------------------------------------------------------------------------------------
          SPIN FLIP ABSORPTION SPECTRUM VIA TRANSITION ELECTRIC DIPOLE MOMENTS
----------------------------------------------------------------------------------------------------
     Transition      Energy     Energy  Wavelength fosc(D2)      D2        DX        DY        DZ
                      (eV)      (cm-1)    (nm)                 (au**2)    (au)      (au)      (au)
----------------------------------------------------------------------------------------------------
  1-3A  ->  2-3A    0.126093    1017.0  9832.8   0.000023560   0.00763   0.07911  -0.01971   0.03129
  1-3A  ->  3-3A    0.820912    6621.1  1510.3   0.000166514   0.00828   0.08036  -0.04267   0.00022

Dispersion correction             ... done (  0.2 sec)

MULLIKEN ATOMIC CHARGES AND SPIN DENSITIES
------------------------------------------
   0 O :   -0.342602   -0.791011
   1 C :   -0.010265    0.003923
   2 C :   -0.568508    0.666434
   3 H :    0.202809    0.035152
   4 H :    0.195008    0.030895
   5 H :    0.294873    0.031481
   6 H :    0.228686    0.023126
Sum of atomic charges       :    0.0000000

LOEWDIN ATOMIC CHARGES AND SPIN DENSITIES
-----------------------------------------
   0 O :    0.026568   -0.760139
   1 C :   -0.251275    0.038821
   2 C :    0.326985    0.561362
   3 H :   -0.012856    0.018622
   4 H :    0.025501    0.000600
   5 H :   -0.100308    0.082111
   6 H :   -0.014615    0.058623

  Mayer bond orders larger than 0.100000
B(  0-O ,  1-C ) :   0.8636 B(  0-O ,  2-C ) :   0.2037 B(  1-C ,  2-C ) :   0.7672
B(  1-C ,  3-H ) :   0.9628 B(  1-C ,  4-H ) :   0.9833 B(  2-C ,  5-H ) :   0.8955
B(  2-C ,  6-H ) :   0.9595

Dispersion correction           -0.005460587
FINAL SINGLE POINT ENERGY      -153.742320913013

DIPOLE MOMENT
-------------

Method             : TDA/CIS
Type of density    : Electron Density
Level              : Relaxed density
State              :   2
Multiplicity       :   3
Irrep              :   0
Energy             :     0.0000000000000000 Eh
Relativity type    :
Basis              : AO
                                X                 Y                 Z
Electronic contribution:      1.455405874      -1.862731204       0.162220345
Nuclear contribution   :     -2.035931508       2.737610867      -0.215900205
                        -----------------------------------------
Total Dipole Moment    :     -0.580525633       0.874879664      -0.053679860
                        -----------------------------------------
Magnitude (a.u.)       :      1.051335324
Magnitude (Debye)      :      2.672282025

Rotational constants in cm-1:             1.572010             0.320922             0.295215
Rotational constants in MHz :         47127.683797          9620.992879          8850.336214

                             ****ORCA TERMINATED NORMALLY****
TOTAL RUN TIME: 0 days 0 hours 0 minutes 26 seconds 652 msec
