                         Program Version 6.0.0  -   RELEASE  -
|  1> ! opt def2-TZVPPD wB97M-D3BJ
|  2> %pal nprocs 8 end%pal nprocs 32 end
|  3> %geom Constraints
|  4> {B 9 8 3.1 C}
|  5> {A 8 9 11 43.14285714285714 C}
|  6> end
|  7> MaxIter 300
|  8> end
|  9> *xyz 0 1
| 10> O   2.98579685529314 0.88758230159078 -0.86184571092411
| 11> O   -0.03983205397054 0.68929041702508 -2.10362336723772
| 12> O   0.93431434349854 -3.13274393337945 -0.68767288184107
| 13> O   -3.75829998830163 -0.84727300865116 -0.0472717177755
| 14> N   0.21184538946282 -1.54604804365365 0.7617588924445
| 15> N   -2.13631993928911 0.03188773433438 1.27350571071531
| 16> N   2.02598672506387 -1.14318467211666 -0.64531219127023
| 17> N   -1.91814233924584 0.03137116037665 -1.04498946748291
| 18> C   1.18097737274226 0.71693507080484 0.70173889017321
| 19> C   -0.20686880480777 1.27024627933494 0.21345042231937
| 20> C   0.41441080275909 -0.34173258966541 1.52336266615173
| 21> C   -0.82922175114212 0.58960593673968 1.44434972027296
| 22> C   1.92822011286806 1.69488653817281 1.5963734975385
| 23> C   -0.37809776891576 2.77134929626422 0.04819649358288
| 24> C   2.1403947470937 0.1972384729179 -0.35038567829864
| 25> C   -0.67361678962426 0.6214190571346 -1.0793014500539
| 26> C   1.04142578622994 -2.02697492875068 -0.21027082435993
| 27> C   -2.68467002550422 -0.30396816036989 0.07167054343891
| 28> H   0.80817443950001 -0.54572267081061 2.51895215321335
| 29> H   -0.83785272399001 1.27240685039143 2.28901317073582
| 30> H   2.31167340578204 2.52284411740894 1.00913016264629
| 31> H   1.28982602448342 2.08257620823614 2.38710022492991
| 32> H   2.77390820759972 1.19140411795486 2.06045858523949
| 33> H   -1.41857211141493 3.00964947214868 -0.16882755561625
| 34> H   -0.09065531563179 3.29799318042223 0.95389844358819
| 35> H   0.23426221611057 3.12492645074476 -0.77764887675592
| 36> H   -0.46772570547622 -2.21560145172536 1.0787081584806
| 37> H   -2.71769301149571 -0.17090724573546 2.06627440900372
| 38> H   2.60065167263658 -1.49057255715425 -1.3966820077142
| 39> H   -2.27169977231386 -0.32388339999036 -1.91951041514436
| 40> *
| 41>
| 42>                          ****END OF INPUT****
 Total Charge           Charge          ....    0
 Multiplicity           Mult            ....    1
 Number of Electrons    NEL             ....  132
Dispersion correction           -0.053026762
FINAL SINGLE POINT ENERGY      -908.575112821237
Dispersion correction             ... done (  0.0 sec)
Dispersion correction           -0.053482462
FINAL SINGLE POINT ENERGY      -908.618468342208
Dispersion correction             ... done (  0.0 sec)
Dispersion correction           -0.054012442
FINAL SINGLE POINT ENERGY      -908.649330645975
Dispersion correction             ... done (  0.0 sec)
FINAL SINGLE POINT ENERGY      -908.683334327015
FINAL SINGLE POINT ENERGY      -908.716764545371
FINAL SINGLE POINT ENERGY      -908.733237651303
FINAL SINGLE POINT ENERGY      -908.742292331612
FINAL SINGLE POINT ENERGY      -908.747097897652
FINAL SINGLE POINT ENERGY      -908.748832816691
FINAL SINGLE POINT ENERGY      -908.749785998120
FINAL SINGLE POINT ENERGY      -908.752667773476
FINAL SINGLE POINT ENERGY      -908.752692848777
FINAL SINGLE POINT ENERGY      -908.752715000111
FINAL SINGLE POINT ENERGY      -908.752725113549
FINAL SINGLE POINT ENERGY      -908.752732043499
FINAL SINGLE POINT ENERGY      -908.752736183508
FINAL SINGLE POINT ENERGY      -908.752740000226
Dispersion correction             ... done (  0.0 sec)
Dispersion correction           -0.057235409
FINAL SINGLE POINT ENERGY      -908.752742576381
Dispersion correction             ... done (  0.0 sec)
Dispersion correction           -0.057235844
FINAL SINGLE POINT ENERGY      -908.752743885604
Dispersion correction             ... done (  0.0 sec)
                    ***********************HURRAY********************

CARTESIAN COORDINATES (ANGSTROEM)
---------------------------------
  O      3.872341    0.437760    0.431618
  O     -1.519763    0.779013   -2.550196
  O      1.193958   -2.642340   -1.548504
  O     -3.783277   -0.667537    1.027793
  N      0.295820   -1.359844    0.089257
  N     -1.906627    0.576783    1.399215
  N      2.528622   -1.134569   -0.497958
  N     -2.366406   -0.276309   -0.714665
  C      1.669681    0.274087    1.253813
  C     -0.688464    1.400808   -0.413416
  C      0.374116   -0.401838    1.156314
  C     -0.493435    0.809411    0.972874
  C      1.978491    1.208989    2.358616
  C     -0.566341    2.854311   -0.636465
  C      2.777574   -0.096901    0.385801
  C     -1.505851    0.624601   -1.349706
  C      1.320120   -1.779316   -0.710340
  C     -2.762818   -0.159165    0.624189
  H      0.125946   -0.882499    2.114067
  H     -0.150191    1.605877    1.618533
  H      1.911290    2.254482    2.037783
  H      1.305560    1.074548    3.204367
  H      3.009469    1.064948    2.674010
  H     -1.451635    3.381378   -0.255513
  H      0.304805    3.268505   -0.132693
  H     -0.514359    3.056627   -1.703970
  H     -0.568456   -1.845709   -0.066577
  H     -2.185041    0.634192    2.364628
  H      3.276994   -1.396970   -1.118268
  H     -3.029522   -0.748323   -1.310007

 Multiplicity           Mult            ....    1
 Number of Electrons    NEL             ....  132
 Basis Dimension        Dim             ....  882

ORBITAL ENERGIES
----------------

  NO   OCC          E(Eh)            E(eV)
   0   2.0000     -19.340169      -526.2727
   1   2.0000     -19.330615      -526.0128
   2   2.0000     -19.325555      -525.8751
   3   2.0000     -19.313734      -525.5534
   4   2.0000     -14.568051      -396.4168
   5   2.0000     -14.561129      -396.2285
   6   2.0000     -14.560702      -396.2169
   7   2.0000     -14.559044      -396.1717
   8   2.0000     -10.511522      -286.0331
   9   2.0000     -10.502250      -285.7807
  10   2.0000     -10.489515      -285.4342
  11   2.0000     -10.480034      -285.1762
  12   2.0000     -10.447016      -284.2778
  13   2.0000     -10.440689      -284.1056
  14   2.0000     -10.433413      -283.9076
  15   2.0000     -10.427481      -283.7462
  16   2.0000     -10.384167      -282.5676
  17   2.0000     -10.379819      -282.4492
  18   2.0000      -1.226583       -33.3770
  19   2.0000      -1.215295       -33.0698
  20   2.0000      -1.203357       -32.7450
  21   2.0000      -1.190267       -32.3888
  22   2.0000      -1.121559       -30.5192
  23   2.0000      -1.099312       -29.9138
  24   2.0000      -1.066830       -29.0299
  25   2.0000      -1.058367       -28.7996
  26   2.0000      -0.990245       -26.9459
  27   2.0000      -0.956361       -26.0239
  28   2.0000      -0.895715       -24.3737
  29   2.0000      -0.845878       -23.0175
  30   2.0000      -0.827720       -22.5234
  31   2.0000      -0.802315       -21.8321
  32   2.0000      -0.785367       -21.3709
  33   2.0000      -0.784560       -21.3490
  34   2.0000      -0.704759       -19.1775
  35   2.0000      -0.696264       -18.9463
  36   2.0000      -0.693291       -18.8654
  37   2.0000      -0.679965       -18.5028
  38   2.0000      -0.650626       -17.7044
  39   2.0000      -0.633689       -17.2435
  40   2.0000      -0.625973       -17.0336
  41   2.0000      -0.603152       -16.4126
  42   2.0000      -0.595625       -16.2078
  43   2.0000      -0.588794       -16.0219
  44   2.0000      -0.578558       -15.7434
  45   2.0000      -0.573031       -15.5930
  46   2.0000      -0.565361       -15.3842
  47   2.0000      -0.564146       -15.3512
  48   2.0000      -0.557764       -15.1775
  49   2.0000      -0.555527       -15.1167
  50   2.0000      -0.548974       -14.9383
  51   2.0000      -0.541778       -14.7425
  52   2.0000      -0.532177       -14.4813
  53   2.0000      -0.518462       -14.1081
  54   2.0000      -0.518064       -14.0972
  55   2.0000      -0.509149       -13.8547
  56   2.0000      -0.499428       -13.5901
  57   2.0000      -0.428563       -11.6618
  58   2.0000      -0.419528       -11.4159
  59   2.0000      -0.406544       -11.0626
  60   2.0000      -0.399132       -10.8609
  61   2.0000      -0.396266       -10.7830
  62   2.0000      -0.394595       -10.7375
  63   2.0000      -0.385557       -10.4915
  64   2.0000      -0.380825       -10.3628
  65   2.0000      -0.279083        -7.5942
  66   0.0000      -0.121144        -3.2965
  67   0.0000       0.008321         0.2264
  68   0.0000       0.028313         0.7704
  69   0.0000       0.031531         0.8580
  70   0.0000       0.032526         0.8851

MULLIKEN ATOMIC CHARGES
-----------------------
   0 O :   -0.681902
   1 O :   -0.631067
   2 O :   -0.662370
   3 O :   -0.645603
   4 N :   -0.111309
   5 N :   -0.290606
   6 N :   -0.046506
   7 N :   -0.029355
   8 C :    0.139127
   9 C :    0.263105
  10 C :    0.672624
  11 C :    0.384947
  12 C :   -1.837228
  13 C :   -1.474138
  14 C :    0.568486
  15 C :    0.208912
  16 C :    0.490955
  17 C :    0.367955
  18 H :    0.363403
  19 H :    0.615970
  20 H :    0.331659
  21 H :    0.359842
  22 H :    0.402896
  23 H :    0.357848
  24 H :    0.302615
  25 H :    0.356065
  26 H :    0.062211
  27 H :    0.059963
  28 H :    0.037178
  29 H :    0.064323
Sum of atomic charges:    0.0000000

LOEWDIN ATOMIC CHARGES
----------------------
   0 O :    0.082254
   1 O :    0.115193
   2 O :    0.090079
   3 O :    0.093277
   4 N :    0.301036
   5 N :    0.293212
   6 N :    0.330621
   7 N :    0.310937
   8 C :   -0.016934
   9 C :    0.023279
  10 C :   -0.156667
  11 C :   -0.139344
  12 C :    0.182747
  13 C :    0.188358
  14 C :   -0.394819
  15 C :   -0.403404
  16 C :   -0.471801
  17 C :   -0.487531
  18 H :    0.075444
  19 H :    0.018423
  20 H :    0.016054
  21 H :    0.006915
  22 H :    0.008852
  23 H :    0.020326
  24 H :   -0.002433
  25 H :    0.005015
  26 H :   -0.034490
  27 H :   -0.032671
  28 H :   -0.010371
  29 H :   -0.011556

  Mayer bond orders larger than 0.100000
B(  0-O , 12-C ) :   0.1127 B(  0-O , 14-C ) :   1.2353 B(  1-O ,  9-C ) :  -0.1065
B(  1-O , 15-C ) :   1.5075 B(  2-O , 16-C ) :   1.5845 B(  3-O , 17-C ) :   1.5753
B(  4-N ,  8-C ) :   0.1483 B(  4-N , 10-C ) :   0.5210 B(  4-N , 16-C ) :   1.0340
B(  4-N , 26-H ) :   1.1345 B(  5-N ,  9-C ) :   0.2931 B(  5-N , 10-C ) :   0.1567
B(  5-N , 17-C ) :   1.2370 B(  5-N , 27-H ) :   1.0593 B(  6-N , 14-C ) :   0.9914
B(  6-N , 16-C ) :   0.9390 B(  6-N , 28-H ) :   1.1187 B(  7-N , 15-C ) :   0.9892
B(  7-N , 17-C ) :   0.9663 B(  7-N , 29-H ) :   1.0619 B(  8-C ,  9-C ) :   0.4558
B(  8-C , 10-C ) :  -0.1170 B(  8-C , 11-C ) :   0.5427 B(  8-C , 14-C ) :   0.8686
B(  8-C , 18-H ) :  -0.2116 B(  8-C , 21-H ) :  -0.1713 B(  9-C , 10-C ) :   0.4034
B(  9-C , 13-C ) :   0.2695 B(  9-C , 15-C ) :   0.8429 B( 10-C , 11-C ) :   0.3668
B( 10-C , 12-C ) :  -0.3377 B( 10-C , 18-H ) :   1.1189 B( 10-C , 19-H ) :  -0.1106
B( 11-C , 12-C ) :   0.1628 B( 11-C , 15-C ) :  -0.2333 B( 11-C , 17-C ) :  -0.1844
B( 11-C , 19-H ) :   0.6962 B( 12-C , 14-C ) :  -0.1013 B( 12-C , 20-H ) :   0.9254
B( 12-C , 21-H ) :   1.0567 B( 12-C , 22-H ) :   0.8609 B( 13-C , 23-H ) :   0.8506
B( 13-C , 24-H ) :   1.0134 B( 13-C , 25-H ) :   0.9702

Dispersion correction           -0.057227918
FINAL SINGLE POINT ENERGY      -908.752744413321

DIPOLE MOMENT
-------------

Method             : SCF
Type of density    : Electron Density
Multiplicity       :   1
Irrep              :   0
Energy             :  -908.6955164948429911 Eh
Relativity type    :
Basis              : AO
                                X                 Y                 Z
Electronic contribution:     -1.908766768      -9.148774030      -6.027149013
Nuclear contribution   :      1.752229854      10.525700015       8.137133985
                        -----------------------------------------
Total Dipole Moment    :     -0.156536914       1.376925984       2.109984972
                        -----------------------------------------
Magnitude (a.u.)       :      2.524374289
Magnitude (Debye)      :      6.416449520

Rotational constants in cm-1:             0.021081             0.011590             0.010424
Rotational constants in MHz :           632.005968           347.445766           312.512956

                             ****ORCA TERMINATED NORMALLY****
TOTAL RUN TIME: 0 days 1 hours 17 minutes 53 seconds 704 msec
