                         Program Version 6.0.0  -   RELEASE  -
|  1> ! EnGrad wB97M-D3BJ def2-TZVPPD
|  2> %pal nprocs 8 end%pal nprocs 16 end
|  3> %tddft
|  4>  sf true
|  5>  nroots 2 Iroot 1 end
|  6> *xyz 0 3
|  7> O   0.34279350952834 1.01304419054807 -0.0025277566887
|  8> C   0.62833855454141 -0.29522909457235 -0.00056018124177
|  9> C   -0.74054123096797 -0.71002382525433 0.00059792711867
| 10> H   1.18377699549981 -0.63452672862078 0.88483488630986
| 11> H   1.18425091482056 -0.63698552174394 -0.88463504844033
| 12> H   -1.29905428521057 -0.7292249749802 -0.92392419334547
| 13> H   -1.29736445821158 -0.72545404537647 0.92621436628774
| 14> *
| 15>
| 16>                          ****END OF INPUT****

CARTESIAN COORDINATES (ANGSTROEM)
---------------------------------
  O      0.342794    1.013044   -0.002528
  C      0.628339   -0.295229   -0.000560
  C     -0.740541   -0.710024    0.000598
  H      1.183777   -0.634527    0.884835
  H      1.184251   -0.636986   -0.884635
  H     -1.299054   -0.729225   -0.923924
  H     -1.297364   -0.725454    0.926214

 Total Charge           Charge          ....    0
 Multiplicity           Mult            ....    3
 Number of Electrons    NEL             ....   24
 Basis Dimension        Dim             ....  182

ORBITAL ENERGIES
----------------
                 SPIN UP ORBITALS
  NO   OCC          E(Eh)            E(eV)
   0   1.0000     -19.401968      -527.9544
   1   1.0000     -10.406790      -283.1832
   2   1.0000     -10.344017      -281.4750
   3   1.0000      -1.204224       -32.7686
   4   1.0000      -0.870212       -23.6797
   5   1.0000      -0.738160       -20.0864
   6   1.0000      -0.640269       -17.4226
   7   1.0000      -0.601678       -16.3725
   8   1.0000      -0.552768       -15.0416
   9   1.0000      -0.510091       -13.8803
  10   1.0000      -0.446256       -12.1432
  11   1.0000      -0.431557       -11.7433
  12   1.0000      -0.290038        -7.8923
  13   0.0000       0.041140         1.1195
  14   0.0000       0.063594         1.7305
  15   0.0000       0.073276         1.9939
  16   0.0000       0.086373         2.3503
  17   0.0000       0.117287         3.1915

                 SPIN DOWN ORBITALS
  NO   OCC          E(Eh)            E(eV)
   0   1.0000     -19.374795      -527.2150
   1   1.0000     -10.408035      -283.2170
   2   1.0000     -10.331281      -281.1285
   3   1.0000      -1.145866       -31.1806
   4   1.0000      -0.836205       -22.7543
   5   1.0000      -0.715786       -19.4775
   6   1.0000      -0.599224       -16.3057
   7   1.0000      -0.566338       -15.4108
   8   1.0000      -0.530282       -14.4297
   9   1.0000      -0.475280       -12.9330
  10   1.0000      -0.386915       -10.5285
  11   0.0000      -0.070779        -1.9260
  12   0.0000       0.022368         0.6087
  13   0.0000       0.039848         1.0843
  14   0.0000       0.064277         1.7491
  15   0.0000       0.072394         1.9699

----------------------------------------------------------------------------------------------------
          SPIN FLIP ABSORPTION SPECTRUM VIA TRANSITION ELECTRIC DIPOLE MOMENTS
----------------------------------------------------------------------------------------------------
     Transition      Energy     Energy  Wavelength fosc(D2)      D2        DX        DY        DZ
                      (eV)      (cm-1)    (nm)                 (au**2)    (au)      (au)      (au)
----------------------------------------------------------------------------------------------------
  1-3A  ->  2-3A    1.820500   14683.3   681.0   0.000450570   0.01010  -0.00041  -0.00057  -0.10051

Dispersion correction             ... done (  0.0 sec)

MULLIKEN ATOMIC CHARGES AND SPIN DENSITIES
------------------------------------------
   0 O :   -0.532352   -0.232410
   1 C :   -0.132395   -0.052181
   2 C :   -0.292390    0.154662
   3 H :    0.234141    0.037079
   4 H :    0.234272    0.036911
   5 H :    0.244348    0.027889
   6 H :    0.244375    0.028051
Sum of atomic charges       :    0.0000000

LOEWDIN ATOMIC CHARGES AND SPIN DENSITIES
-----------------------------------------
   0 O :   -0.057451   -0.248995
   1 C :   -0.374676    0.005974
   2 C :    0.379319    0.190996
   3 H :    0.029092    0.006411
   4 H :    0.029070    0.006354
   5 H :   -0.002675    0.019623
   6 H :   -0.002678    0.019638

  Mayer bond orders larger than 0.100000
B(  0-O ,  1-C ) :   0.7512 B(  0-O ,  2-C ) :   0.8315 B(  1-C ,  2-C ) :   0.7743
B(  1-C ,  3-H ) :   1.0233 B(  1-C ,  4-H ) :   1.0230 B(  2-C ,  5-H ) :   0.9397
B(  2-C ,  6-H ) :   0.9399

Dispersion correction           -0.005672618
FINAL SINGLE POINT ENERGY      -153.796602296818

DIPOLE MOMENT
-------------

Method             : TDA/CIS
Type of density    : Electron Density
Level              : Relaxed density
State              :   1
Multiplicity       :   3
Irrep              :   0
Energy             :     0.0000000000000000 Eh
Relativity type    :
Basis              : AO
                                X                 Y                 Z
Electronic contribution:      0.010640037       1.218662173      -0.002879771
Nuclear contribution   :     -0.543289759      -2.661165281       0.005503899
                        -----------------------------------------
Total Dipole Moment    :     -0.532649721      -1.442503108       0.002624127
                        -----------------------------------------
Magnitude (a.u.)       :      1.537705378
Magnitude (Debye)      :      3.908536453

Rotational constants in cm-1:             1.113827             0.469351             0.379289
Rotational constants in MHz :         33391.695809         14070.776218         11370.805785

                             ****ORCA TERMINATED NORMALLY****
TOTAL RUN TIME: 0 days 0 hours 0 minutes 16 seconds 655 msec
