                         Program Version 6.0.0  -   RELEASE  -
|  1> ! Engrad def2-TZVPPD wB97M-D3BJ
|  2> %pal nprocs 8 end%pal nprocs 64 end
|  3> %tddft
|  4>  Iroot 1 Nroots 3
|  5> sf true
|  6> end
|  7> *xyz 0 3
|  8> O   2.4621364 -0.46026153 -2.31277699
|  9> O   -1.71811069 1.69969945 -1.69899495
| 10> O   -1.4300614 -2.39633109 -0.8849238
| 11> O   -2.83780632 0.59351462 2.58571779
| 12> N   0.06469332 -1.78141196 0.66824031
| 13> N   -0.70111942 0.76265865 2.13043406
| 14> N   0.55769139 -1.5818805 -1.57433621
| 15> N   -2.20548953 0.66098962 0.3301278
| 16> C   2.13510234 -0.64282545 0.04200554
| 17> C   0.0125866 1.23039021 -0.17604638
| 18> C   1.07506673 -0.81539222 1.00654569
| 19> C   0.43945551 0.66093211 1.16964735
| 20> C   3.43344162 0.17183464 0.3622824
| 21> C   0.99858828 1.98257379 -0.98354892
| 22> C   1.78548488 -0.89964596 -1.38857688
| 23> C   -1.36189208 1.2493079 -0.61807823
| 24> C   -0.39570488 -1.9953308 -0.64075023
| 25> C   -1.99172044 0.64577417 1.71557408
| 26> H   1.31123332 -1.04147995 2.03849563
| 27> H   1.19052918 1.2996584 1.56609967
| 28> H   3.93351065 0.54910977 -0.54747736
| 29> H   3.07926822 1.13034247 0.9142249
| 30> H   4.03645105 -0.44855772 0.96397962
| 31> H   0.64145137 3.0367848 -0.9879135
| 32> H   1.99547528 1.86641286 -0.54310185
| 33> H   1.04039996 1.60297068 -2.01386975
| 34> H   -0.58895429 -2.05030058 1.39385402
| 35> H   -0.64776469 1.12415794 3.05796942
| 36> H   0.19955437 -1.72909564 -2.47418518
| 37> H   -3.09783883 0.35996302 -0.03940591
| 38> *
| 39>
| 40>                          ****END OF INPUT****

CARTESIAN COORDINATES (ANGSTROEM)
---------------------------------
  O      2.462136   -0.460262   -2.312777
  O     -1.718111    1.699699   -1.698995
  O     -1.430061   -2.396331   -0.884924
  O     -2.837806    0.593515    2.585718
  N      0.064693   -1.781412    0.668240
  N     -0.701119    0.762659    2.130434
  N      0.557691   -1.581881   -1.574336
  N     -2.205490    0.660990    0.330128
  C      2.135102   -0.642825    0.042006
  C      0.012587    1.230390   -0.176046
  C      1.075067   -0.815392    1.006546
  C      0.439456    0.660932    1.169647
  C      3.433442    0.171835    0.362282
  C      0.998588    1.982574   -0.983549
  C      1.785485   -0.899646   -1.388577
  C     -1.361892    1.249308   -0.618078
  C     -0.395705   -1.995331   -0.640750
  C     -1.991720    0.645774    1.715574
  H      1.311233   -1.041480    2.038496
  H      1.190529    1.299658    1.566100
  H      3.933511    0.549110   -0.547477
  H      3.079268    1.130342    0.914225
  H      4.036451   -0.448558    0.963980
  H      0.641451    3.036785   -0.987913
  H      1.995475    1.866413   -0.543102
  H      1.040400    1.602971   -2.013870
  H     -0.588954   -2.050301    1.393854
  H     -0.647765    1.124158    3.057969
  H      0.199554   -1.729096   -2.474185
  H     -3.097839    0.359963   -0.039406

 Total Charge           Charge          ....    0
 Multiplicity           Mult            ....    3
 Number of Electrons    NEL             ....  132
 Basis Dimension        Dim             ....  882

ORBITAL ENERGIES
----------------
                 SPIN UP ORBITALS
  NO   OCC          E(Eh)            E(eV)
   0   1.0000     -19.342097      -526.3252
   1   1.0000     -19.334954      -526.1308
   2   1.0000     -19.334334      -526.1140
   3   1.0000     -19.315420      -525.5993
   4   1.0000     -14.563593      -396.2955
   5   1.0000     -14.560931      -396.2231
   6   1.0000     -14.556541      -396.1036
   7   1.0000     -14.550490      -395.9390
   8   1.0000     -10.503042      -285.8023
   9   1.0000     -10.502984      -285.8007
  10   1.0000     -10.496007      -285.6109
  11   1.0000     -10.477672      -285.1120
  12   1.0000     -10.443871      -284.1922
  13   1.0000     -10.442108      -284.1442
  14   1.0000     -10.425461      -283.6912
  15   1.0000     -10.409932      -283.2686
  16   1.0000     -10.390374      -282.7365
  17   1.0000     -10.364446      -282.0309
  18   1.0000      -1.257528       -34.2191
  19   1.0000      -1.212823       -33.0026
  20   1.0000      -1.201782       -32.7021
  21   1.0000      -1.191600       -32.4251
  22   1.0000      -1.117168       -30.3997
  23   1.0000      -1.094133       -29.7729
  24   1.0000      -1.064046       -28.9542
  25   1.0000      -1.051037       -28.6002
  26   1.0000      -0.982427       -26.7332
  27   1.0000      -0.944672       -25.7058
  28   1.0000      -0.880597       -23.9623
  29   1.0000      -0.840921       -22.8826
  30   1.0000      -0.822000       -22.3678
  31   1.0000      -0.800634       -21.7864
  32   1.0000      -0.783312       -21.3150
  33   1.0000      -0.780063       -21.2266
  34   1.0000      -0.695241       -18.9185
  35   1.0000      -0.689248       -18.7554
  36   1.0000      -0.685241       -18.6464
  37   1.0000      -0.673903       -18.3378
  38   1.0000      -0.649906       -17.6848
  39   1.0000      -0.635586       -17.2952
  40   1.0000      -0.631272       -17.1778
  41   1.0000      -0.602475       -16.3942
  42   1.0000      -0.596877       -16.2418
  43   1.0000      -0.588248       -16.0071
  44   1.0000      -0.581591       -15.8259
  45   1.0000      -0.573029       -15.5929
  46   1.0000      -0.567086       -15.4312
  47   1.0000      -0.566377       -15.4119
  48   1.0000      -0.561772       -15.2866
  49   1.0000      -0.554801       -15.0969
  50   1.0000      -0.549000       -14.9391
  51   1.0000      -0.538063       -14.6414
  52   1.0000      -0.523666       -14.2497
  53   1.0000      -0.515619       -14.0307
  54   1.0000      -0.511304       -13.9133
  55   1.0000      -0.507038       -13.7972
  56   1.0000      -0.486848       -13.2478
  57   1.0000      -0.432680       -11.7738
  58   1.0000      -0.418335       -11.3835
  59   1.0000      -0.413780       -11.2595
  60   1.0000      -0.408708       -11.1215
  61   1.0000      -0.403983       -10.9929
  62   1.0000      -0.397912       -10.8277
  63   1.0000      -0.392227       -10.6730
  64   1.0000      -0.381675       -10.3859
  65   1.0000      -0.339356        -9.2344
  66   1.0000      -0.323644        -8.8068
  67   0.0000       0.010633         0.2893
  68   0.0000       0.030769         0.8373
  69   0.0000       0.033188         0.9031
  70   0.0000       0.036863         1.0031
  71   0.0000       0.055829         1.5192

                 SPIN DOWN ORBITALS
  NO   OCC          E(Eh)            E(eV)
   0   1.0000     -19.338266      -526.2210
   1   1.0000     -19.334351      -526.1144
   2   1.0000     -19.330611      -526.0127
   3   1.0000     -19.315068      -525.5897
   4   1.0000     -14.562691      -396.2710
   5   1.0000     -14.560342      -396.2070
   6   1.0000     -14.556112      -396.0919
   7   1.0000     -14.550398      -395.9365
   8   1.0000     -10.503092      -285.8037
   9   1.0000     -10.503015      -285.8016
  10   1.0000     -10.496989      -285.6376
  11   1.0000     -10.478567      -285.1363
  12   1.0000     -10.442666      -284.1594
  13   1.0000     -10.442001      -284.1413
  14   1.0000     -10.413942      -283.3778
  15   1.0000     -10.398802      -282.9658
  16   1.0000     -10.390941      -282.7519
  17   1.0000     -10.364851      -282.0419
  18   1.0000      -1.257369       -34.2148
  19   1.0000      -1.211182       -32.9579
  20   1.0000      -1.196157       -32.5491
  21   1.0000      -1.186106       -32.2756
  22   1.0000      -1.114293       -30.3215
  23   1.0000      -1.091568       -29.7031
  24   1.0000      -1.061891       -28.8955
  25   1.0000      -1.049536       -28.5593
  26   1.0000      -0.969429       -26.3795
  27   1.0000      -0.927265       -25.2322
  28   1.0000      -0.874973       -23.8092
  29   1.0000      -0.835727       -22.7413
  30   1.0000      -0.814219       -22.1560
  31   1.0000      -0.795677       -21.6515
  32   1.0000      -0.781539       -21.2668
  33   1.0000      -0.778304       -21.1787
  34   1.0000      -0.687996       -18.7213
  35   1.0000      -0.684567       -18.6280
  36   1.0000      -0.679733       -18.4965
  37   1.0000      -0.665453       -18.1079
  38   1.0000      -0.642986       -17.4965
  39   1.0000      -0.631364       -17.1803
  40   1.0000      -0.622464       -16.9381
  41   1.0000      -0.599062       -16.3013
  42   1.0000      -0.592588       -16.1251
  43   1.0000      -0.581579       -15.8256
  44   1.0000      -0.577646       -15.7185
  45   1.0000      -0.565196       -15.3798
  46   1.0000      -0.561189       -15.2707
  47   1.0000      -0.558645       -15.2015
  48   1.0000      -0.552315       -15.0293
  49   1.0000      -0.547537       -14.8992
  50   1.0000      -0.544702       -14.8221
  51   1.0000      -0.526454       -14.3255
  52   1.0000      -0.517342       -14.0776
  53   1.0000      -0.506076       -13.7710
  54   1.0000      -0.505790       -13.7633
  55   1.0000      -0.496983       -13.5236
  56   1.0000      -0.482438       -13.1278
  57   1.0000      -0.430012       -11.7012
  58   1.0000      -0.410100       -11.1594
  59   1.0000      -0.405099       -11.0233
  60   1.0000      -0.402004       -10.9391
  61   1.0000      -0.397060       -10.8045
  62   1.0000      -0.387611       -10.5474
  63   1.0000      -0.384017       -10.4496
  64   1.0000      -0.368813       -10.0359
  65   0.0000      -0.058738        -1.5983
  66   0.0000      -0.051488        -1.4011
  67   0.0000       0.010350         0.2817
  68   0.0000       0.030427         0.8280
  69   0.0000       0.033319         0.9067

----------------------------------------------------------------------------------------------------
          SPIN FLIP ABSORPTION SPECTRUM VIA TRANSITION ELECTRIC DIPOLE MOMENTS
----------------------------------------------------------------------------------------------------
     Transition      Energy     Energy  Wavelength fosc(D2)      D2        DX        DY        DZ
                      (eV)      (cm-1)    (nm)                 (au**2)    (au)      (au)      (au)
----------------------------------------------------------------------------------------------------
  1-3A  ->  2-3A    0.009507      76.7  130407.8   0.000000095   0.00041   0.01292  -0.01063  -0.01132
  1-3A  ->  3-1A    2.064166   16648.6   600.7   0.000630524   0.01247  -0.03102   0.07901  -0.07255

Dispersion correction             ... done (  0.1 sec)

MULLIKEN ATOMIC CHARGES AND SPIN DENSITIES
------------------------------------------
   0 O :   -0.640481    0.142180
   1 O :   -0.684905   -0.163861
   2 O :   -0.511044   -0.000620
   3 O :   -0.659422   -0.004121
   4 N :   -0.214719    0.019350
   5 N :   -0.218745    0.007592
   6 N :    0.052824   -0.004245
   7 N :    0.086424   -0.031699
   8 C :   -0.398599    0.485331
   9 C :    1.101638    0.239995
  10 C :    0.313989    0.010183
  11 C :   -0.347895   -0.449723
  12 C :   -1.249727   -0.003167
  13 C :   -1.328950    0.063867
  14 C :    0.654206    0.099688
  15 C :    0.002833   -0.403866
  16 C :    0.382609   -0.029658
  17 C :    0.397279    0.017142
  18 H :    0.527456    0.039318
  19 H :    0.721120   -0.008783
  20 H :    0.280282    0.001966
  21 H :    0.333524    0.013899
  22 H :    0.390470    0.015590
  23 H :    0.459292   -0.025710
  24 H :    0.190194   -0.002240
  25 H :    0.256145   -0.021357
  26 H :    0.040823   -0.002949
  27 H :    0.051718   -0.004379
  28 H :   -0.038147   -0.006512
  29 H :    0.049805    0.006788
Sum of atomic charges       :   -0.0000000

LOEWDIN ATOMIC CHARGES AND SPIN DENSITIES
-----------------------------------------
   0 O :    0.074689    0.124764
   1 O :    0.084357   -0.140053
   2 O :    0.180002   -0.000385
   3 O :    0.075196   -0.004167
   4 N :    0.279749    0.000566
   5 N :    0.290012    0.003951
   6 N :    0.358172   -0.000749
   7 N :    0.327994   -0.028247
   8 C :   -0.023934    0.512664
   9 C :   -0.006306   -0.465449
  10 C :   -0.125953    0.045467
  11 C :   -0.056706    0.001654
  12 C :    0.210753    0.050184
  13 C :    0.191247   -0.065000
  14 C :   -0.366702    0.066720
  15 C :   -0.423087   -0.089538
  16 C :   -0.534158   -0.002240
  17 C :   -0.486120   -0.002093
  18 H :    0.052385    0.008434
  19 H :    0.011043   -0.004088
  20 H :    0.004865   -0.000976
  21 H :    0.019636    0.014164
  22 H :   -0.037206    0.012795
  23 H :    0.040544   -0.024465
  24 H :   -0.029382    0.003262
  25 H :    0.017151   -0.016310
  26 H :   -0.026029    0.000294
  27 H :   -0.042936    0.000562
  28 H :   -0.049761    0.000281
  29 H :   -0.009516   -0.002003

  Mayer bond orders larger than 0.100000
B(  0-O , 14-C ) :   1.5446 B(  1-O ,  9-C ) :   0.1504 B(  1-O , 15-C ) :   1.2816
B(  2-O , 16-C ) :   1.5722 B(  3-O , 17-C ) :   1.5894 B(  4-N ,  8-C ) :   0.1930
B(  4-N , 10-C ) :   0.4200 B(  4-N , 16-C ) :   0.9518 B(  4-N , 26-H ) :   1.0752
B(  5-N ,  9-C ) :   0.1609 B(  5-N , 10-C ) :   0.1748 B(  5-N , 11-C ) :   0.3451
B(  5-N , 17-C ) :   1.1570 B(  5-N , 19-H ) :  -0.1038 B(  5-N , 27-H ) :   1.0874
B(  6-N ,  8-C ) :  -0.1304 B(  6-N , 10-C ) :   0.1326 B(  6-N , 14-C ) :   1.0869
B(  6-N , 16-C ) :   0.8619 B(  6-N , 28-H ) :   1.1506 B(  7-N ,  9-C ) :  -0.1513
B(  7-N , 11-C ) :   0.1600 B(  7-N , 15-C ) :   1.0311 B(  7-N , 17-C ) :   0.9678
B(  7-N , 29-H ) :   1.1076 B(  8-C ,  9-C ) :   0.1008 B(  8-C , 10-C ) :   0.4329
B(  8-C , 11-C ) :   0.3101 B(  8-C , 12-C ) :   0.5332 B(  8-C , 14-C ) :   0.6665
B(  8-C , 18-H ) :  -0.1341 B(  8-C , 20-H ) :  -0.1027 B(  9-C , 11-C ) :   0.3956
B(  9-C , 13-C ) :   0.3944 B(  9-C , 15-C ) :   0.4326 B(  9-C , 17-C ) :   0.1022
B(  9-C , 19-H ) :  -0.1117 B(  9-C , 24-H ) :  -0.1242 B( 10-C , 11-C ) :   0.3005
B( 10-C , 18-H ) :   0.7691 B( 11-C , 12-C ) :   0.1341 B( 11-C , 13-C ) :  -0.2735
B( 11-C , 15-C ) :   0.1694 B( 11-C , 17-C ) :  -0.2286 B( 11-C , 18-H ) :  -0.1019
B( 11-C , 19-H ) :   0.6059 B( 12-C , 20-H ) :   1.0685 B( 12-C , 21-H ) :   0.8453
B( 12-C , 22-H ) :   0.9441 B( 13-C , 23-H ) :   0.7593 B( 13-C , 24-H ) :   1.1310
B( 13-C , 25-H ) :   1.0134 B( 15-C , 17-C ) :  -0.1129

Dispersion correction           -0.060824273
FINAL SINGLE POINT ENERGY      -908.762323338834

DIPOLE MOMENT
-------------

Method             : TDA/CIS
Type of density    : Electron Density
Level              : Relaxed density
State              :   1
Multiplicity       :   3
Irrep              :   0
Energy             :     0.0000000000000000 Eh
Relativity type    :
Basis              : AO
                                X                 Y                 Z
Electronic contribution:    -10.127783122      -5.740384741      -1.883914118
Nuclear contribution   :     12.288499245       5.839606599       3.365677027
                        -----------------------------------------
Total Dipole Moment    :      2.160716124       0.099221858       1.481762909
                        -----------------------------------------
Magnitude (a.u.)       :      2.621862022
Magnitude (Debye)      :      6.664243645

Rotational constants in cm-1:             0.021582             0.012936             0.012547
Rotational constants in MHz :           647.023312           387.801985           376.158937

                             ****ORCA TERMINATED NORMALLY****
TOTAL RUN TIME: 0 days 0 hours 4 minutes 37 seconds 775 msec
