                         Program Version 6.0.0  -   RELEASE  -
|  1> ! Engrad def2-TZVPPD wB97M-D3BJ
|  2> %pal nprocs 8 end%pal nprocs 64 end
|  3> %tddft Nroots 2 Iroot 2
|  4> sf true
|  5> end
|  6> *xyz 0 3
|  7> O   3.43893923 0.5714854 -0.52118523
|  8> O   -1.40649082 1.27622094 -2.51383578
|  9> O   0.52726648 -2.86885047 -0.95410389
| 10> O   -3.15547241 -1.67338703 0.37582474
| 11> N   0.29158846 -1.43188671 0.87565592
| 12> N   -2.03737504 0.14763083 1.19008686
| 13> N   1.7133405 -0.86126618 -0.83808204
| 14> N   -1.84093267 -0.39437445 -1.02160701
| 15> C   1.8183693 0.42616152 1.21193957
| 16> C   -0.6604624 1.51945397 -0.26335416
| 17> C   0.44687392 -0.13779714 1.50976108
| 18> C   -0.8068208 0.91871797 1.06492932
| 19> C   2.35144891 1.50321073 2.03133933
| 20> C   -0.03764343 2.86559752 -0.4744193
| 21> C   2.40958444 0.07691262 -0.05915634
| 22> C   -1.34791652 0.87214963 -1.34896506
| 23> C   0.7845489 -1.8561257 -0.34624457
| 24> C   -2.40638192 -0.72529442 0.20775527
| 25> H   0.28510928 -0.26060749 2.59065436
| 26> H   -0.75162875 1.71033328 1.83077593
| 27> H   2.90108572 2.24469802 1.45603469
| 28> H   1.54135582 2.09864529 2.58725458
| 29> H   3.02143613 1.14543254 2.77478691
| 30> H   -0.64961655 3.55246378 0.12491097
| 31> H   0.98110665 2.94479273 -0.05517187
| 32> H   0.03744644 3.08115739 -1.57601541
| 33> H   -0.48961109 -1.97983063 1.16073646
| 34> H   -2.46660441 0.05316753 2.09648809
| 35> H   2.31224657 -1.12343808 -1.62985438
| 36> H   -2.224194 -0.99818274 -1.79498904
| 37> *
| 38>
| 39>                          ****END OF INPUT****

CARTESIAN COORDINATES (ANGSTROEM)
---------------------------------
  O      3.438939    0.571485   -0.521185
  O     -1.406491    1.276221   -2.513836
  O      0.527266   -2.868850   -0.954104
  O     -3.155472   -1.673387    0.375825
  N      0.291588   -1.431887    0.875656
  N     -2.037375    0.147631    1.190087
  N      1.713340   -0.861266   -0.838082
  N     -1.840933   -0.394374   -1.021607
  C      1.818369    0.426162    1.211940
  C     -0.660462    1.519454   -0.263354
  C      0.446874   -0.137797    1.509761
  C     -0.806821    0.918718    1.064929
  C      2.351449    1.503211    2.031339
  C     -0.037643    2.865598   -0.474419
  C      2.409584    0.076913   -0.059156
  C     -1.347917    0.872150   -1.348965
  C      0.784549   -1.856126   -0.346245
  C     -2.406382   -0.725294    0.207755
  H      0.285109   -0.260607    2.590654
  H     -0.751629    1.710333    1.830776
  H      2.901086    2.244698    1.456035
  H      1.541356    2.098645    2.587255
  H      3.021436    1.145433    2.774787
  H     -0.649617    3.552464    0.124911
  H      0.981107    2.944793   -0.055172
  H      0.037446    3.081157   -1.576015
  H     -0.489611   -1.979831    1.160736
  H     -2.466604    0.053168    2.096488
  H      2.312247   -1.123438   -1.629854
  H     -2.224194   -0.998183   -1.794989

 Total Charge           Charge          ....    0
 Multiplicity           Mult            ....    3
 Number of Electrons    NEL             ....  132
 Basis Dimension        Dim             ....  882

ORBITAL ENERGIES
----------------
                 SPIN UP ORBITALS
  NO   OCC          E(Eh)            E(eV)
   0   1.0000     -19.334578      -526.1206
   1   1.0000     -19.333918      -526.1027
   2   1.0000     -19.331049      -526.0246
   3   1.0000     -19.325072      -525.8619
   4   1.0000     -14.567522      -396.4024
   5   1.0000     -14.562020      -396.2527
   6   1.0000     -14.561423      -396.2365
   7   1.0000     -14.556983      -396.1157
   8   1.0000     -10.513464      -286.0859
   9   1.0000     -10.508617      -285.9540
  10   1.0000     -10.480869      -285.1990
  11   1.0000     -10.479319      -285.1568
  12   1.0000     -10.456265      -284.5294
  13   1.0000     -10.453863      -284.4641
  14   1.0000     -10.423446      -283.6364
  15   1.0000     -10.417865      -283.4845
  16   1.0000     -10.381827      -282.5039
  17   1.0000     -10.379879      -282.4509
  18   1.0000      -1.218308       -33.1518
  19   1.0000      -1.212477       -32.9932
  20   1.0000      -1.192614       -32.4527
  21   1.0000      -1.188146       -32.3311
  22   1.0000      -1.120552       -30.4918
  23   1.0000      -1.099553       -29.9204
  24   1.0000      -1.056432       -28.7470
  25   1.0000      -1.043589       -28.3975
  26   1.0000      -0.983979       -26.7754
  27   1.0000      -0.961981       -26.1768
  28   1.0000      -0.883575       -24.0433
  29   1.0000      -0.845865       -23.0172
  30   1.0000      -0.827029       -22.5046
  31   1.0000      -0.802820       -21.8458
  32   1.0000      -0.783315       -21.3151
  33   1.0000      -0.773961       -21.0606
  34   1.0000      -0.696657       -18.9570
  35   1.0000      -0.688728       -18.7412
  36   1.0000      -0.683805       -18.6073
  37   1.0000      -0.670230       -18.2379
  38   1.0000      -0.653875       -17.7928
  39   1.0000      -0.635460       -17.2917
  40   1.0000      -0.616086       -16.7646
  41   1.0000      -0.596479       -16.2310
  42   1.0000      -0.593380       -16.1467
  43   1.0000      -0.586719       -15.9654
  44   1.0000      -0.575480       -15.6596
  45   1.0000      -0.570515       -15.5245
  46   1.0000      -0.563628       -15.3371
  47   1.0000      -0.561765       -15.2864
  48   1.0000      -0.558047       -15.1852
  49   1.0000      -0.553276       -15.0554
  50   1.0000      -0.550595       -14.9824
  51   1.0000      -0.539008       -14.6672
  52   1.0000      -0.530724       -14.4417
  53   1.0000      -0.524821       -14.2811
  54   1.0000      -0.518567       -14.1109
  55   1.0000      -0.504743       -13.7347
  56   1.0000      -0.494692       -13.4613
  57   1.0000      -0.428002       -11.6465
  58   1.0000      -0.422494       -11.4966
  59   1.0000      -0.417617       -11.3639
  60   1.0000      -0.403167       -10.9707
  61   1.0000      -0.401603       -10.9282
  62   1.0000      -0.395639       -10.7659
  63   1.0000      -0.391857       -10.6630
  64   1.0000      -0.385507       -10.4902
  65   1.0000      -0.348959        -9.4957
  66   1.0000      -0.321772        -8.7559
  67   0.0000       0.004219         0.1148
  68   0.0000       0.028883         0.7859
  69   0.0000       0.031174         0.8483
  70   0.0000       0.037466         1.0195
  71   0.0000       0.054782         1.4907

                 SPIN DOWN ORBITALS
  NO   OCC          E(Eh)            E(eV)
   0   1.0000     -19.330969      -526.0224
   1   1.0000     -19.330021      -525.9966
   2   1.0000     -19.329041      -525.9700
   3   1.0000     -19.324850      -525.8559
   4   1.0000     -14.567063      -396.3899
   5   1.0000     -14.561455      -396.2373
   6   1.0000     -14.561163      -396.2294
   7   1.0000     -14.556266      -396.0961
   8   1.0000     -10.513516      -286.0873
   9   1.0000     -10.508672      -285.9555
  10   1.0000     -10.481882      -285.2265
  11   1.0000     -10.480416      -285.1866
  12   1.0000     -10.455634      -284.5123
  13   1.0000     -10.453358      -284.4503
  14   1.0000     -10.412317      -283.3336
  15   1.0000     -10.406930      -283.1870
  16   1.0000     -10.382376      -282.5188
  17   1.0000     -10.380322      -282.4629
  18   1.0000      -1.216977       -33.1156
  19   1.0000      -1.211170       -32.9576
  20   1.0000      -1.186989       -32.2996
  21   1.0000      -1.182020       -32.1644
  22   1.0000      -1.117985       -30.4219
  23   1.0000      -1.097315       -29.8595
  24   1.0000      -1.054366       -28.6908
  25   1.0000      -1.041669       -28.3453
  26   1.0000      -0.969865       -26.3914
  27   1.0000      -0.945037       -25.7158
  28   1.0000      -0.878771       -23.9126
  29   1.0000      -0.841090       -22.8872
  30   1.0000      -0.817689       -22.2505
  31   1.0000      -0.796797       -21.6820
  32   1.0000      -0.781761       -21.2728
  33   1.0000      -0.772183       -21.0122
  34   1.0000      -0.690994       -18.8029
  35   1.0000      -0.684420       -18.6240
  36   1.0000      -0.677930       -18.4474
  37   1.0000      -0.664608       -18.0849
  38   1.0000      -0.641703       -17.4616
  39   1.0000      -0.630877       -17.1670
  40   1.0000      -0.610347       -16.6084
  41   1.0000      -0.591739       -16.1020
  42   1.0000      -0.587377       -15.9833
  43   1.0000      -0.577362       -15.7108
  44   1.0000      -0.568408       -15.4672
  45   1.0000      -0.565689       -15.3932
  46   1.0000      -0.559968       -15.2375
  47   1.0000      -0.555406       -15.1134
  48   1.0000      -0.550985       -14.9931
  49   1.0000      -0.545389       -14.8408
  50   1.0000      -0.538790       -14.6612
  51   1.0000      -0.533463       -14.5163
  52   1.0000      -0.523217       -14.2374
  53   1.0000      -0.512994       -13.9593
  54   1.0000      -0.505778       -13.7629
  55   1.0000      -0.500736       -13.6257
  56   1.0000      -0.490165       -13.3381
  57   1.0000      -0.424096       -11.5402
  58   1.0000      -0.418244       -11.3810
  59   1.0000      -0.411555       -11.1990
  60   1.0000      -0.390115       -10.6156
  61   1.0000      -0.388928       -10.5833
  62   1.0000      -0.388168       -10.5626
  63   1.0000      -0.385777       -10.4975
  64   1.0000      -0.371543       -10.1102
  65   0.0000      -0.069605        -1.8941
  66   0.0000      -0.053438        -1.4541
  67   0.0000       0.003884         0.1057
  68   0.0000       0.028469         0.7747
  69   0.0000       0.030875         0.8401

----------------------------------------------------------------------------------------------------
          SPIN FLIP ABSORPTION SPECTRUM VIA TRANSITION ELECTRIC DIPOLE MOMENTS
----------------------------------------------------------------------------------------------------
     Transition      Energy     Energy  Wavelength fosc(D2)      D2        DX        DY        DZ
                      (eV)      (cm-1)    (nm)                 (au**2)    (au)      (au)      (au)
----------------------------------------------------------------------------------------------------
  1-3A  ->  2-3A    0.090694     731.5  13670.5   0.000041369   0.01862   0.12951  -0.02223   0.03676

Dispersion correction             ... done (  0.1 sec)

MULLIKEN ATOMIC CHARGES AND SPIN DENSITIES
------------------------------------------
   0 O :   -0.686554   -0.024124
   1 O :   -0.684292    0.027065
   2 O :   -0.623218   -0.000312
   3 O :   -0.650272    0.000451
   4 N :   -0.237637    0.000186
   5 N :   -0.273630    0.000135
   6 N :    0.015386   -0.003386
   7 N :    0.062157    0.002010
   8 C :    0.404872    0.319714
   9 C :    0.328825    0.339123
  10 C :    0.115741   -0.186549
  11 C :    0.345808   -0.158979
  12 C :   -1.338575   -0.016520
  13 C :   -1.160125    0.008912
  14 C :    0.252640   -0.217780
  15 C :    0.218294   -0.130561
  16 C :    0.377770    0.010167
  17 C :    0.269016    0.004889
  18 H :    0.550471   -0.012437
  19 H :    0.519808    0.000599
  20 H :    0.289602    0.000244
  21 H :    0.317135    0.000764
  22 H :    0.387336    0.005897
  23 H :    0.361403    0.013085
  24 H :    0.193591    0.015151
  25 H :    0.291680   -0.001814
  26 H :    0.057806    0.000292
  27 H :    0.068481    0.000507
  28 H :    0.112904    0.001617
  29 H :    0.113579    0.001652
Sum of atomic charges       :    0.0000000

LOEWDIN ATOMIC CHARGES AND SPIN DENSITIES
-----------------------------------------
   0 O :    0.068943   -0.021271
   1 O :    0.076757    0.024332
   2 O :    0.102124   -0.000504
   3 O :    0.081053    0.000443
   4 N :    0.268878    0.000374
   5 N :    0.269497   -0.000788
   6 N :    0.312116   -0.006623
   7 N :    0.298334    0.001612
   8 C :   -0.036949   -0.061211
   9 C :   -0.042135    0.079367
  10 C :   -0.058229   -0.003603
  11 C :   -0.078288    0.000599
  12 C :    0.163258   -0.010696
  13 C :    0.204943    0.008558
  14 C :   -0.411032   -0.017479
  15 C :   -0.393390    0.008078
  16 C :   -0.442523   -0.000133
  17 C :   -0.508393   -0.000308
  18 H :    0.055701   -0.001375
  19 H :    0.052285    0.000523
  20 H :    0.000006   -0.000698
  21 H :    0.043580   -0.000979
  22 H :   -0.012141   -0.003078
  23 H :    0.008133    0.003722
  24 H :   -0.004043    0.001956
  25 H :    0.028314   -0.000220
  26 H :   -0.057245    0.000019
  27 H :   -0.024269   -0.000131
  28 H :   -0.006940   -0.000593
  29 H :    0.041656    0.000107

  Mayer bond orders larger than 0.100000
B(  0-O , 14-C ) :   1.3857 B(  1-O , 15-C ) :   1.2941 B(  2-O , 16-C ) :   1.6020
B(  3-O , 17-C ) :   1.5986 B(  4-N ,  8-C ) :   0.1996 B(  4-N ,  9-C ) :   0.1202
B(  4-N , 10-C ) :   0.2707 B(  4-N , 16-C ) :   0.9916 B(  4-N , 26-H ) :   1.0896
B(  5-N ,  9-C ) :   0.2602 B(  5-N , 10-C ) :   0.1046 B(  5-N , 11-C ) :   0.1599
B(  5-N , 17-C ) :   1.1683 B(  5-N , 27-H ) :   1.0490 B(  6-N , 10-C ) :   0.1228
B(  6-N , 14-C ) :   1.1179 B(  6-N , 16-C ) :   0.9515 B(  6-N , 28-H ) :   1.0110
B(  7-N ,  9-C ) :  -0.1039 B(  7-N , 11-C ) :   0.1678 B(  7-N , 15-C ) :   1.0120
B(  7-N , 17-C ) :   0.9802 B(  7-N , 29-H ) :   1.0223 B(  8-C , 10-C ) :   0.3988
B(  8-C , 11-C ) :   0.2051 B(  8-C , 12-C ) :   0.4369 B(  8-C , 14-C ) :   0.7371
B(  8-C , 18-H ) :  -0.1664 B(  9-C , 10-C ) :   0.1373 B(  9-C , 11-C ) :   0.1137
B(  9-C , 13-C ) :   0.6503 B(  9-C , 15-C ) :   0.8959 B(  9-C , 19-H ) :  -0.1613
B( 10-C , 11-C ) :   0.6131 B( 10-C , 16-C ) :  -0.1583 B( 10-C , 18-H ) :   0.7402
B( 11-C , 13-C ) :  -0.1416 B( 11-C , 17-C ) :  -0.2227 B( 11-C , 19-H ) :   0.8634
B( 12-C , 20-H ) :   1.0036 B( 12-C , 21-H ) :   0.9067 B( 12-C , 22-H ) :   0.8619
B( 13-C , 23-H ) :   0.8115 B( 13-C , 24-H ) :   1.0326 B( 13-C , 25-H ) :   1.0120

Dispersion correction           -0.058719702
FINAL SINGLE POINT ENERGY      -908.787460290728

DIPOLE MOMENT
-------------

Method             : TDA/CIS
Type of density    : Electron Density
Level              : Relaxed density
State              :   2
Multiplicity       :   3
Irrep              :   0
Energy             :     0.0000000000000000 Eh
Relativity type    :
Basis              : AO
                                X                 Y                 Z
Electronic contribution:     -4.114236062     -10.001676747      -6.287080341
Nuclear contribution   :      4.227463244      11.666499517       9.049556582
                        -----------------------------------------
Total Dipole Moment    :      0.113227182       1.664822770       2.762476241
                        -----------------------------------------
Magnitude (a.u.)       :      3.227341047
Magnitude (Debye)      :      8.203249017

Rotational constants in cm-1:             0.019871             0.013689             0.012060
Rotational constants in MHz :           595.717391           410.372197           361.552659

                             ****ORCA TERMINATED NORMALLY****
TOTAL RUN TIME: 0 days 0 hours 4 minutes 29 seconds 800 msec
