                         Program Version 6.0.0  -   RELEASE  -
|  1> ! Engrad def2-TZVPPD wB97M-D3BJ
|  2> %pal nprocs 8 end%pal nprocs 64 end
|  3> %tddft
|  4>  Iroot 2 Nroots 3
|  5> sf true
|  6> end
|  7> *xyz 0 3
|  8> O   1.13879415 -0.82341818 0.14473841
|  9> C   0.54871836 0.43360074 0.46050725
| 10> C   -0.57414514 0.67484843 -0.41245282
| 11> H   1.39782145 1.03565941 0.23952799
| 12> H   0.38159548 0.46944903 1.55497949
| 13> H   -1.68090631 0.58597415 -0.03154503
| 14> H   -0.42600209 0.59227609 -1.50756983
| 15> *
| 16>
| 17>                          ****END OF INPUT****

CARTESIAN COORDINATES (ANGSTROEM)
---------------------------------
  O      1.138794   -0.823418    0.144738
  C      0.548718    0.433601    0.460507
  C     -0.574145    0.674848   -0.412453
  H      1.397821    1.035659    0.239528
  H      0.381595    0.469449    1.554979
  H     -1.680906    0.585974   -0.031545
  H     -0.426002    0.592276   -1.507570

 Total Charge           Charge          ....    0
 Multiplicity           Mult            ....    3
 Number of Electrons    NEL             ....   24
 Basis Dimension        Dim             ....  182

ORBITAL ENERGIES
----------------
                 SPIN UP ORBITALS
  NO   OCC          E(Eh)            E(eV)
   0   1.0000     -19.388693      -527.5932
   1   1.0000     -10.409592      -283.2594
   2   1.0000     -10.378652      -282.4175
   3   1.0000      -1.155184       -31.4342
   4   1.0000      -0.880532       -23.9605
   5   1.0000      -0.733736       -19.9660
   6   1.0000      -0.619963       -16.8700
   7   1.0000      -0.574828       -15.6419
   8   1.0000      -0.548638       -14.9292
   9   1.0000      -0.506618       -13.7858
  10   1.0000      -0.439401       -11.9567
  11   1.0000      -0.421806       -11.4779
  12   1.0000      -0.329791        -8.9741
  13   0.0000       0.041987         1.1425
  14   0.0000       0.060621         1.6496
  15   0.0000       0.076532         2.0825
  16   0.0000       0.088538         2.4092
  17   0.0000       0.114717         3.1216

                 SPIN DOWN ORBITALS
  NO   OCC          E(Eh)            E(eV)
   0   1.0000     -19.362660      -526.8848
   1   1.0000     -10.410692      -283.2893
   2   1.0000     -10.365457      -282.0584
   3   1.0000      -1.096612       -29.8403
   4   1.0000      -0.846411       -23.0320
   5   1.0000      -0.707651       -19.2562
   6   1.0000      -0.590667       -16.0729
   7   1.0000      -0.545403       -14.8412
   8   1.0000      -0.517395       -14.0790
   9   1.0000      -0.477280       -12.9874
  10   1.0000      -0.387417       -10.5422
  11   0.0000      -0.047011        -1.2792
  12   0.0000      -0.006922        -0.1884
  13   0.0000       0.041346         1.1251
  14   0.0000       0.061688         1.6786
  15   0.0000       0.077252         2.1021

----------------------------------------------------------------------------------------------------
          SPIN FLIP ABSORPTION SPECTRUM VIA TRANSITION ELECTRIC DIPOLE MOMENTS
----------------------------------------------------------------------------------------------------
     Transition      Energy     Energy  Wavelength fosc(D2)      D2        DX        DY        DZ
                      (eV)      (cm-1)    (nm)                 (au**2)    (au)      (au)      (au)
----------------------------------------------------------------------------------------------------
  1-3A  ->  2-3A    0.137012    1105.1  9049.1   0.000189097   0.05633   0.20352  -0.12108   0.01594
  1-3A  ->  3-3A    1.092975    8815.4  1134.4   0.001109086   0.04142  -0.08196   0.17902   0.05151

Dispersion correction             ... done (  0.2 sec)

MULLIKEN ATOMIC CHARGES AND SPIN DENSITIES
------------------------------------------
   0 O :   -0.333575    0.642279
   1 C :   -0.018694    0.126958
   2 C :   -0.325219   -0.683646
   3 H :    0.165343    0.015748
   4 H :    0.238297    0.023504
   5 H :    0.123206   -0.059414
   6 H :    0.150642   -0.065430
Sum of atomic charges       :    0.0000000

LOEWDIN ATOMIC CHARGES AND SPIN DENSITIES
-----------------------------------------
   0 O :    0.023495    0.602904
   1 C :   -0.246726   -0.008440
   2 C :    0.235919   -0.519283
   3 H :   -0.001075    0.020564
   4 H :    0.042010    0.016500
   5 H :   -0.004743   -0.053678
   6 H :   -0.048879   -0.058568

  Mayer bond orders larger than 0.100000
B(  0-O ,  1-C ) :   0.8579 B(  1-C ,  2-C ) :   0.7512 B(  1-C ,  3-H ) :   0.9711
B(  1-C ,  4-H ) :   0.9414 B(  2-C ,  5-H ) :   1.0510 B(  2-C ,  6-H ) :   1.0485

Dispersion correction           -0.005501104
FINAL SINGLE POINT ENERGY      -153.742446041218

DIPOLE MOMENT
-------------

Method             : TDA/CIS
Type of density    : Electron Density
Level              : Relaxed density
State              :   2
Multiplicity       :   3
Irrep              :   0
Energy             :     0.0000000000000000 Eh
Relativity type    :
Basis              : AO
                                X                 Y                 Z
Electronic contribution:      1.523560280      -1.724852684       0.226987831
Nuclear contribution   :     -1.794224096       2.262015580      -0.027674554
                        -----------------------------------------
Total Dipole Moment    :     -0.270663816       0.537162896       0.199313277
                        -----------------------------------------
Magnitude (a.u.)       :      0.633662892
Magnitude (Debye)      :      1.610643071

Rotational constants in cm-1:             1.312006             0.362718             0.316008
Rotational constants in MHz :         39332.956665         10873.998346          9473.681030

                             ****ORCA TERMINATED NORMALLY****
TOTAL RUN TIME: 0 days 0 hours 0 minutes 26 seconds 903 msec
