                         Program Version 6.0.0  -   RELEASE  -
|  1> ! Engrad def2-TZVPPD wB97M-D3BJ
|  2> %pal nprocs 8 end%pal nprocs 64 end
|  3> %tddft
|  4>  Iroot 2 Nroots 3
|  5> sf true
|  6> end
|  7> *xyz 0 3
|  8> O   0.72188639 0.31886577 -1.07943263
|  9> C   0.41520229 -0.41740548 0.0403798
| 10> C   0.07767919 0.32968606 1.35656199
| 11> H   1.20687593 -1.00273542 0.37283826
| 12> H   -0.32398081 -1.2234558 -0.19426861
| 13> H   0.71426614 1.27562449 1.47533843
| 14> H   -0.25617251 -0.35029804 2.12580024
| 15> *
| 16>
| 17>                          ****END OF INPUT****

CARTESIAN COORDINATES (ANGSTROEM)
---------------------------------
  O      0.721886    0.318866   -1.079433
  C      0.415202   -0.417405    0.040380
  C      0.077679    0.329686    1.356562
  H      1.206876   -1.002735    0.372838
  H     -0.323981   -1.223456   -0.194269
  H      0.714266    1.275624    1.475338
  H     -0.256173   -0.350298    2.125800

 Total Charge           Charge          ....    0
 Multiplicity           Mult            ....    3
 Number of Electrons    NEL             ....   24
 Basis Dimension        Dim             ....  182

ORBITAL ENERGIES
----------------
                 SPIN UP ORBITALS
  NO   OCC          E(Eh)            E(eV)
   0   1.0000     -19.395441      -527.7768
   1   1.0000     -10.411428      -283.3094
   2   1.0000     -10.379062      -282.4286
   3   1.0000      -1.167100       -31.7584
   4   1.0000      -0.877136       -23.8681
   5   1.0000      -0.734059       -19.9748
   6   1.0000      -0.606776       -16.5112
   7   1.0000      -0.593502       -16.1500
   8   1.0000      -0.542075       -14.7506
   9   1.0000      -0.517368       -14.0783
  10   1.0000      -0.453696       -12.3457
  11   1.0000      -0.409608       -11.1460
  12   1.0000      -0.324569        -8.8320
  13   0.0000       0.038207         1.0397
  14   0.0000       0.060879         1.6566
  15   0.0000       0.078648         2.1401
  16   0.0000       0.084079         2.2879
  17   0.0000       0.108776         2.9599

                 SPIN DOWN ORBITALS
  NO   OCC          E(Eh)            E(eV)
   0   1.0000     -19.372467      -527.1516
   1   1.0000     -10.412458      -283.3374
   2   1.0000     -10.365173      -282.0507
   3   1.0000      -1.113769       -30.3072
   4   1.0000      -0.847339       -23.0573
   5   1.0000      -0.704613       -19.1735
   6   1.0000      -0.577291       -15.7089
   7   1.0000      -0.552857       -15.0440
   8   1.0000      -0.515202       -14.0194
   9   1.0000      -0.500849       -13.6288
  10   1.0000      -0.382998       -10.4219
  11   0.0000      -0.061493        -1.6733
  12   0.0000       0.005145         0.1400
  13   0.0000       0.038144         1.0380
  14   0.0000       0.061059         1.6615
  15   0.0000       0.079481         2.1628

----------------------------------------------------------------------------------------------------
          SPIN FLIP ABSORPTION SPECTRUM VIA TRANSITION ELECTRIC DIPOLE MOMENTS
----------------------------------------------------------------------------------------------------
     Transition      Energy     Energy  Wavelength fosc(D2)      D2        DX        DY        DZ
                      (eV)      (cm-1)    (nm)                 (au**2)    (au)      (au)      (au)
----------------------------------------------------------------------------------------------------
  1-3A  ->  2-3A    0.247856    1999.1  5002.3   0.000044331   0.00730  -0.07324  -0.02069  -0.03883
  1-3A  ->  3-3A    0.684385    5519.9  1811.6   0.015976153   0.95283  -0.31089  -0.04677   0.92411

Dispersion correction             ... done (  0.2 sec)

MULLIKEN ATOMIC CHARGES AND SPIN DENSITIES
------------------------------------------
   0 O :   -0.330943   -0.812267
   1 C :   -0.045065   -0.056890
   2 C :   -0.603923    0.767965
   3 H :    0.249199    0.095146
   4 H :    0.223638   -0.029264
   5 H :    0.240568    0.018137
   6 H :    0.266525    0.017173
Sum of atomic charges       :   -0.0000000

LOEWDIN ATOMIC CHARGES AND SPIN DENSITIES
-----------------------------------------
   0 O :    0.036511   -0.784865
   1 C :   -0.237034    0.011381
   2 C :    0.273270    0.625889
   3 H :   -0.041109    0.043061
   4 H :    0.042524   -0.026134
   5 H :   -0.008051    0.060028
   6 H :   -0.066111    0.070640

  Mayer bond orders larger than 0.100000
B(  0-O ,  1-C ) :   0.9743 B(  0-O ,  2-C ) :   0.1019 B(  1-C ,  2-C ) :   0.7140
B(  1-C ,  3-H ) :   0.9592 B(  1-C ,  4-H ) :   0.9519 B(  2-C ,  5-H ) :   0.9974
B(  2-C ,  6-H ) :   0.9810

Dispersion correction           -0.005524287
FINAL SINGLE POINT ENERGY      -153.735862781776

DIPOLE MOMENT
-------------

Method             : TDA/CIS
Type of density    : Electron Density
Level              : Relaxed density
State              :   2
Multiplicity       :   3
Irrep              :   0
Energy             :     0.0000000000000000 Eh
Relativity type    :
Basis              : AO
                                X                 Y                 Z
Electronic contribution:      0.299611736       0.909480685      -2.428302558
Nuclear contribution   :     -0.340862005      -1.449769456       3.246241637
                        -----------------------------------------
Total Dipole Moment    :     -0.041250269      -0.540288770       0.817939078
                        -----------------------------------------
Magnitude (a.u.)       :      0.981141109
Magnitude (Debye)      :      2.493862509

Rotational constants in cm-1:             1.547243             0.324807             0.283047
Rotational constants in MHz :         46385.166169          9737.473794          8485.520886

                             ****ORCA TERMINATED NORMALLY****
TOTAL RUN TIME: 0 days 0 hours 0 minutes 27 seconds 548 msec
