                         Program Version 6.0.0  -   RELEASE  -
|  1> ! Engrad def2-TZVPPD wB97M-D3BJ
|  2> %pal nprocs 8 end%pal nprocs 64 end
|  3> %tddft
|  4>  Iroot 2 Nroots 3
|  5> sf true
|  6> end
|  7> *xyz 0 3
|  8> O   3.20694553 -0.6985081 -1.88687118
|  9> O   -2.23923746 1.77470065 -1.20883543
| 10> O   -1.08966861 -2.30575672 -2.1084187
| 11> O   -2.55457717 0.98441198 3.28690546
| 12> N   -0.3237928 -1.40510996 -0.1393482
| 13> N   -0.56952678 0.67374636 2.17126916
| 14> N   1.09964139 -1.5524715 -2.01469191
| 15> N   -2.40649635 1.16589008 0.93193529
| 16> C   2.02836456 -0.94478573 0.12772137
| 17> C   -0.21656011 1.28633496 -0.14963385
| 18> C   0.69468031 -0.87399753 0.72819326
| 19> C   0.29192474 0.60373253 1.05098805
| 20> C   3.2303796 -0.65045518 1.02911414
| 21> C   0.55918725 1.58324354 -1.41126196
| 22> C   2.18101161 -1.05376187 -1.30971418
| 23> C   -1.65176371 1.45201769 -0.18429067
| 24> C   -0.1469952 -1.86638736 -1.4470459
| 25> C   -1.91871215 0.94193052 2.22380348
| 26> H   0.61778447 -1.40175206 1.70746669
| 27> H   1.21681059 1.02111797 1.33380996
| 28> H   3.31981409 0.40068701 1.23033199
| 29> H   3.07403163 -1.18818122 1.90956592
| 30> H   4.22742221 -0.97041196 0.72243858
| 31> H   0.53440263 0.74609631 -2.06998893
| 32> H   -0.05181062 2.32920058 -1.93628783
| 33> H   1.62264449 1.74634475 -1.13656716
| 34> H   -1.21627315 -1.66356219 0.2840149
| 35> H   -0.15018322 0.72060972 3.08840772
| 36> H   1.19506704 -1.67174467 -3.03959759
| 37> H   -3.3141725 1.64131778 0.85066254
| 38> *
| 39>
| 40>                          ****END OF INPUT****

CARTESIAN COORDINATES (ANGSTROEM)
---------------------------------
  O      3.206946   -0.698508   -1.886871
  O     -2.239237    1.774701   -1.208835
  O     -1.089669   -2.305757   -2.108419
  O     -2.554577    0.984412    3.286905
  N     -0.323793   -1.405110   -0.139348
  N     -0.569527    0.673746    2.171269
  N      1.099641   -1.552472   -2.014692
  N     -2.406496    1.165890    0.931935
  C      2.028365   -0.944786    0.127721
  C     -0.216560    1.286335   -0.149634
  C      0.694680   -0.873998    0.728193
  C      0.291925    0.603733    1.050988
  C      3.230380   -0.650455    1.029114
  C      0.559187    1.583244   -1.411262
  C      2.181012   -1.053762   -1.309714
  C     -1.651764    1.452018   -0.184291
  C     -0.146995   -1.866387   -1.447046
  C     -1.918712    0.941931    2.223803
  H      0.617784   -1.401752    1.707467
  H      1.216811    1.021118    1.333810
  H      3.319814    0.400687    1.230332
  H      3.074032   -1.188181    1.909566
  H      4.227422   -0.970412    0.722439
  H      0.534403    0.746096   -2.069989
  H     -0.051811    2.329201   -1.936288
  H      1.622644    1.746345   -1.136567
  H     -1.216273   -1.663562    0.284015
  H     -0.150183    0.720610    3.088408
  H      1.195067   -1.671745   -3.039598
  H     -3.314172    1.641318    0.850663

 Total Charge           Charge          ....    0
 Multiplicity           Mult            ....    3
 Number of Electrons    NEL             ....  132
 Basis Dimension        Dim             ....  882

ORBITAL ENERGIES
----------------
                 SPIN UP ORBITALS
  NO   OCC          E(Eh)            E(eV)
   0   1.0000     -19.339917      -526.2659
   1   1.0000     -19.331928      -526.0485
   2   1.0000     -19.328621      -525.9585
   3   1.0000     -19.323898      -525.8300
   4   1.0000     -14.576366      -396.6431
   5   1.0000     -14.567473      -396.4011
   6   1.0000     -14.564506      -396.3203
   7   1.0000     -14.563215      -396.2852
   8   1.0000     -10.516702      -286.1740
   9   1.0000     -10.516481      -286.1680
  10   1.0000     -10.490083      -285.4497
  11   1.0000     -10.476593      -285.0826
  12   1.0000     -10.443692      -284.1873
  13   1.0000     -10.437578      -284.0209
  14   1.0000     -10.428591      -283.7764
  15   1.0000     -10.417686      -283.4797
  16   1.0000     -10.379820      -282.4493
  17   1.0000     -10.371489      -282.2226
  18   1.0000      -1.217211       -33.1220
  19   1.0000      -1.214457       -33.0470
  20   1.0000      -1.192045       -32.4372
  21   1.0000      -1.191561       -32.4240
  22   1.0000      -1.123023       -30.5590
  23   1.0000      -1.101233       -29.9661
  24   1.0000      -1.070987       -29.1430
  25   1.0000      -1.059109       -28.8198
  26   1.0000      -0.982949       -26.7474
  27   1.0000      -0.959602       -26.1121
  28   1.0000      -0.891790       -24.2668
  29   1.0000      -0.854676       -23.2569
  30   1.0000      -0.829518       -22.5723
  31   1.0000      -0.806974       -21.9589
  32   1.0000      -0.790150       -21.5011
  33   1.0000      -0.785654       -21.3787
  34   1.0000      -0.703159       -19.1339
  35   1.0000      -0.699049       -19.0221
  36   1.0000      -0.697478       -18.9793
  37   1.0000      -0.688842       -18.7443
  38   1.0000      -0.648473       -17.6458
  39   1.0000      -0.641046       -17.4438
  40   1.0000      -0.630054       -17.1446
  41   1.0000      -0.604127       -16.4391
  42   1.0000      -0.601513       -16.3680
  43   1.0000      -0.591251       -16.0888
  44   1.0000      -0.578360       -15.7380
  45   1.0000      -0.574272       -15.6267
  46   1.0000      -0.566327       -15.4106
  47   1.0000      -0.562509       -15.3067
  48   1.0000      -0.562005       -15.2929
  49   1.0000      -0.555012       -15.1026
  50   1.0000      -0.549958       -14.9651
  51   1.0000      -0.537499       -14.6261
  52   1.0000      -0.526565       -14.3285
  53   1.0000      -0.519162       -14.1271
  54   1.0000      -0.514851       -14.0098
  55   1.0000      -0.513136       -13.9631
  56   1.0000      -0.502058       -13.6617
  57   1.0000      -0.423977       -11.5370
  58   1.0000      -0.419877       -11.4254
  59   1.0000      -0.412976       -11.2377
  60   1.0000      -0.408784       -11.1236
  61   1.0000      -0.402549       -10.9539
  62   1.0000      -0.395165       -10.7530
  63   1.0000      -0.394004       -10.7214
  64   1.0000      -0.381531       -10.3820
  65   1.0000      -0.354076        -9.6349
  66   1.0000      -0.327774        -8.9192
  67   0.0000       0.008828         0.2402
  68   0.0000       0.028117         0.7651
  69   0.0000       0.032052         0.8722
  70   0.0000       0.034069         0.9271
  71   0.0000       0.051582         1.4036

                 SPIN DOWN ORBITALS
  NO   OCC          E(Eh)            E(eV)
   0   1.0000     -19.335651      -526.1498
   1   1.0000     -19.328532      -525.9561
   2   1.0000     -19.327087      -525.9168
   3   1.0000     -19.323906      -525.8302
   4   1.0000     -14.575678      -396.6244
   5   1.0000     -14.567137      -396.3920
   6   1.0000     -14.564415      -396.3179
   7   1.0000     -14.563058      -396.2810
   8   1.0000     -10.516710      -286.1742
   9   1.0000     -10.516532      -286.1694
  10   1.0000     -10.491130      -285.4782
  11   1.0000     -10.477552      -285.1087
  12   1.0000     -10.443329      -284.1774
  13   1.0000     -10.436964      -284.0042
  14   1.0000     -10.417146      -283.4650
  15   1.0000     -10.406449      -283.1739
  16   1.0000     -10.380365      -282.4641
  17   1.0000     -10.371946      -282.2350
  18   1.0000      -1.214334       -33.0437
  19   1.0000      -1.211428       -32.9646
  20   1.0000      -1.188481       -32.3402
  21   1.0000      -1.187381       -32.3103
  22   1.0000      -1.120295       -30.4848
  23   1.0000      -1.099087       -29.9077
  24   1.0000      -1.068841       -29.0846
  25   1.0000      -1.057636       -28.7797
  26   1.0000      -0.970999       -26.4222
  27   1.0000      -0.941817       -25.6281
  28   1.0000      -0.885695       -24.1010
  29   1.0000      -0.849529       -23.1169
  30   1.0000      -0.820484       -22.3265
  31   1.0000      -0.802463       -21.8361
  32   1.0000      -0.788616       -21.4593
  33   1.0000      -0.783260       -21.3136
  34   1.0000      -0.698402       -19.0045
  35   1.0000      -0.693020       -18.8580
  36   1.0000      -0.690782       -18.7971
  37   1.0000      -0.683757       -18.6060
  38   1.0000      -0.639304       -17.3963
  39   1.0000      -0.632049       -17.1989
  40   1.0000      -0.625388       -17.0177
  41   1.0000      -0.598264       -16.2796
  42   1.0000      -0.594995       -16.1906
  43   1.0000      -0.585493       -15.9321
  44   1.0000      -0.570729       -15.5303
  45   1.0000      -0.565638       -15.3918
  46   1.0000      -0.562876       -15.3166
  47   1.0000      -0.558382       -15.1944
  48   1.0000      -0.556538       -15.1442
  49   1.0000      -0.548124       -14.9152
  50   1.0000      -0.538196       -14.6451
  51   1.0000      -0.530576       -14.4377
  52   1.0000      -0.519358       -14.1325
  53   1.0000      -0.511336       -13.9142
  54   1.0000      -0.509812       -13.8727
  55   1.0000      -0.503021       -13.6879
  56   1.0000      -0.495546       -13.4845
  57   1.0000      -0.419213       -11.4074
  58   1.0000      -0.416034       -11.3209
  59   1.0000      -0.404022       -10.9940
  60   1.0000      -0.396582       -10.7915
  61   1.0000      -0.394084       -10.7236
  62   1.0000      -0.391147       -10.6437
  63   1.0000      -0.388517       -10.5721
  64   1.0000      -0.372180       -10.1275
  65   0.0000      -0.071086        -1.9343
  66   0.0000      -0.049469        -1.3461
  67   0.0000       0.008056         0.2192
  68   0.0000       0.027321         0.7435
  69   0.0000       0.031842         0.8665

----------------------------------------------------------------------------------------------------
          SPIN FLIP ABSORPTION SPECTRUM VIA TRANSITION ELECTRIC DIPOLE MOMENTS
----------------------------------------------------------------------------------------------------
     Transition      Energy     Energy  Wavelength fosc(D2)      D2        DX        DY        DZ
                      (eV)      (cm-1)    (nm)                 (au**2)    (au)      (au)      (au)
----------------------------------------------------------------------------------------------------
  1-3A  ->  2-3A    0.127535    1028.6  9721.6   0.000063773   0.02041   0.10731  -0.06812  -0.06522
  1-3A  ->  3-3A    2.269850   18307.6   546.2   0.001799493   0.03236  -0.08433   0.06696  -0.14410

Dispersion correction             ... done (  0.1 sec)

MULLIKEN ATOMIC CHARGES AND SPIN DENSITIES
------------------------------------------
   0 O :   -0.681088   -0.004851
   1 O :   -0.687496    0.003630
   2 O :   -0.665471   -0.000344
   3 O :   -0.665126   -0.000134
   4 N :   -0.170100   -0.008665
   5 N :   -0.196641   -0.001460
   6 N :   -0.049016   -0.000652
   7 N :   -0.086320   -0.000028
   8 C :    0.441685    0.376786
   9 C :    0.707075    0.268030
  10 C :    0.411759   -0.159931
  11 C :   -0.200546   -0.154857
  12 C :   -1.420131    0.001566
  13 C :   -1.363603   -0.029365
  14 C :    0.061730   -0.196506
  15 C :    0.112556   -0.095452
  16 C :    0.441044    0.006528
  17 C :    0.415009    0.005981
  18 H :    0.503293   -0.027874
  19 H :    0.768937   -0.013972
  20 H :    0.308546    0.009955
  21 H :    0.386806    0.004994
  22 H :    0.305253   -0.001565
  23 H :    0.295256    0.010092
  24 H :    0.362273   -0.001040
  25 H :    0.339146    0.008418
  26 H :    0.060838   -0.000580
  27 H :    0.046761   -0.000177
  28 H :    0.093947    0.002394
  29 H :    0.123624   -0.000920
Sum of atomic charges       :    0.0000000

LOEWDIN ATOMIC CHARGES AND SPIN DENSITIES
-----------------------------------------
   0 O :    0.075866   -0.005011
   1 O :    0.084983    0.001955
   2 O :    0.066710   -0.000516
   3 O :    0.060318   -0.000240
   4 N :    0.271310   -0.000021
   5 N :    0.273616   -0.000338
   6 N :    0.294541   -0.001432
   7 N :    0.309762   -0.001491
   8 C :    0.005528   -0.000342
   9 C :    0.017160    0.018447
  10 C :   -0.131009   -0.001529
  11 C :   -0.140516    0.000742
  12 C :    0.224824   -0.001404
  13 C :    0.236702    0.000936
  14 C :   -0.437080   -0.005989
  15 C :   -0.418566   -0.003206
  16 C :   -0.426578   -0.000281
  17 C :   -0.434964   -0.000297
  18 H :    0.076110   -0.000786
  19 H :    0.015140    0.000230
  20 H :   -0.009555   -0.000122
  21 H :   -0.039669   -0.000010
  22 H :    0.012837   -0.000064
  23 H :   -0.031272    0.000769
  24 H :    0.009728   -0.000023
  25 H :    0.026863    0.000321
  26 H :   -0.005134   -0.000019
  27 H :   -0.018863   -0.000053
  28 H :    0.024026   -0.000115
  29 H :    0.007180   -0.000112

  Mayer bond orders larger than 0.100000
B(  0-O ,  8-C ) :  -0.1898 B(  0-O , 14-C ) :   1.5232 B(  1-O , 15-C ) :   1.3209
B(  2-O , 16-C ) :   1.5496 B(  3-O , 17-C ) :   1.6315 B(  4-N , 10-C ) :   0.5107
B(  4-N , 16-C ) :   1.0839 B(  4-N , 26-H ) :   1.1088 B(  5-N , 10-C ) :   0.2270
B(  5-N , 11-C ) :   0.4350 B(  5-N , 17-C ) :   1.1037 B(  5-N , 19-H ) :  -0.1243
B(  5-N , 27-H ) :   1.1452 B(  6-N , 14-C ) :   0.9979 B(  6-N , 16-C ) :   0.9481
B(  6-N , 28-H ) :   1.0719 B(  7-N , 15-C ) :   1.0340 B(  7-N , 17-C ) :   0.9660
B(  7-N , 29-H ) :   1.0148 B(  8-C , 10-C ) :   0.3025 B(  8-C , 11-C ) :   0.4325
B(  8-C , 12-C ) :   0.4956 B(  8-C , 14-C ) :   0.6590 B(  8-C , 18-H ) :  -0.1869
B(  8-C , 21-H ) :  -0.1175 B(  9-C , 10-C ) :   0.1119 B(  9-C , 11-C ) :   0.7823
B(  9-C , 13-C ) :   0.1523 B(  9-C , 15-C ) :   1.0437 B(  9-C , 19-H ) :  -0.1762
B(  9-C , 25-H ) :  -0.1271 B( 10-C , 11-C ) :   0.2911 B( 10-C , 12-C ) :  -0.2066
B( 10-C , 16-C ) :  -0.1306 B( 10-C , 18-H ) :   0.8015 B( 11-C , 12-C ) :   0.1614
B( 11-C , 13-C ) :   0.1187 B( 11-C , 15-C ) :  -0.2349 B( 11-C , 18-H ) :  -0.1105
B( 11-C , 19-H ) :   0.4860 B( 12-C , 20-H ) :   0.8473 B( 12-C , 21-H ) :   0.9470
B( 12-C , 22-H ) :   1.0259 B( 13-C , 14-C ) :   0.1174 B( 13-C , 23-H ) :   0.8682
B( 13-C , 24-H ) :   0.9320 B( 13-C , 25-H ) :   1.0187

Dispersion correction           -0.058772680
FINAL SINGLE POINT ENERGY      -908.774930478773

DIPOLE MOMENT
-------------

Method             : TDA/CIS
Type of density    : Electron Density
Level              : Relaxed density
State              :   2
Multiplicity       :   3
Irrep              :   0
Energy             :     0.0000000000000000 Eh
Relativity type    :
Basis              : AO
                                X                 Y                 Z
Electronic contribution:     -8.575011383      -2.076928409      -1.655259711
Nuclear contribution   :     10.420113293       2.139024141       3.031730070
                        -----------------------------------------
Total Dipole Moment    :      1.845101910       0.062095732       1.376470359
                        -----------------------------------------
Magnitude (a.u.)       :      2.302808630
Magnitude (Debye)      :      5.853274371

Rotational constants in cm-1:             0.022748             0.011466             0.009979
Rotational constants in MHz :           681.978502           343.728024           299.149996

                             ****ORCA TERMINATED NORMALLY****
TOTAL RUN TIME: 0 days 0 hours 5 minutes 30 seconds 398 msec
