                         Program Version 6.0.0  -   RELEASE  -
|  1> ! EnGrad wB97M-D3BJ def2-TZVPPD
|  2> %pal nprocs 8 end%pal nprocs 16 end
|  3> %tddft
|  4>  sf true
|  5>  nroots 2 Iroot 1 end
|  6> *xyz 0 3
|  7> O   0.07772357862703 0.83328810661002 -9.368995172e-05
|  8> C   0.69343753893028 -0.39660844549029 0.00011615651376
|  9> C   -0.72786630404429 -0.51534425736905 -0.00015342663738
| 10> H   1.24073159586715 -0.65348005682021 0.90498775695527
| 11> H   1.24047545748823 -0.65374029650741 -0.90488486395896
| 12> H   -1.26134706727597 -0.66648081662314 -0.9244863216086
| 13> H   -1.26095479959242 -0.66603423379992 0.92451438868763
| 14> *
| 15>
| 16>                          ****END OF INPUT****

CARTESIAN COORDINATES (ANGSTROEM)
---------------------------------
  O      0.077724    0.833288   -0.000094
  C      0.693438   -0.396608    0.000116
  C     -0.727866   -0.515344   -0.000153
  H      1.240732   -0.653480    0.904988
  H      1.240475   -0.653740   -0.904885
  H     -1.261347   -0.666481   -0.924486
  H     -1.260955   -0.666034    0.924514

 Total Charge           Charge          ....    0
 Multiplicity           Mult            ....    3
 Number of Electrons    NEL             ....   24
 Basis Dimension        Dim             ....  182

ORBITAL ENERGIES
----------------
                 SPIN UP ORBITALS
  NO   OCC          E(Eh)            E(eV)
   0   1.0000     -19.461630      -529.5779
   1   1.0000     -10.420495      -283.5561
   2   1.0000     -10.357965      -281.8546
   3   1.0000      -1.285337       -34.9758
   4   1.0000      -0.862532       -23.4707
   5   1.0000      -0.773919       -21.0594
   6   1.0000      -0.682385       -18.5686
   7   1.0000      -0.645427       -17.5630
   8   1.0000      -0.567266       -15.4361
   9   1.0000      -0.503859       -13.7107
  10   1.0000      -0.494571       -13.4580
  11   1.0000      -0.470298       -12.7975
  12   1.0000      -0.157627        -4.2892
  13   0.0000       0.037374         1.0170
  14   0.0000       0.061644         1.6774
  15   0.0000       0.070807         1.9268
  16   0.0000       0.087288         2.3752
  17   0.0000       0.110407         3.0043

                 SPIN DOWN ORBITALS
  NO   OCC          E(Eh)            E(eV)
   0   1.0000     -19.428763      -528.6835
   1   1.0000     -10.420798      -283.5643
   2   1.0000     -10.348796      -281.6051
   3   1.0000      -1.218453       -33.1558
   4   1.0000      -0.828570       -22.5465
   5   1.0000      -0.755108       -20.5475
   6   1.0000      -0.627990       -17.0885
   7   1.0000      -0.612495       -16.6668
   8   1.0000      -0.529199       -14.4002
   9   1.0000      -0.480472       -13.0743
  10   1.0000      -0.435986       -11.8638
  11   0.0000      -0.111745        -3.0407
  12   0.0000       0.033265         0.9052
  13   0.0000       0.057247         1.5578
  14   0.0000       0.062406         1.6982
  15   0.0000       0.064837         1.7643

----------------------------------------------------------------------------------------------------
          SPIN FLIP ABSORPTION SPECTRUM VIA TRANSITION ELECTRIC DIPOLE MOMENTS
----------------------------------------------------------------------------------------------------
     Transition      Energy     Energy  Wavelength fosc(D2)      D2        DX        DY        DZ
                      (eV)      (cm-1)    (nm)                 (au**2)    (au)      (au)      (au)
----------------------------------------------------------------------------------------------------
  1-3A  ->  2-3A    6.092358   49138.2   203.5   0.007773210   0.05208  -0.00024  -0.00016   0.22821

Dispersion correction             ... done (  0.0 sec)

MULLIKEN ATOMIC CHARGES AND SPIN DENSITIES
------------------------------------------
   0 O :   -0.383552    0.067680
   1 C :   -0.103136   -0.111528
   2 C :   -0.475149    0.044980
   3 H :    0.193200    0.021951
   4 H :    0.193090    0.022021
   5 H :    0.287824   -0.022582
   6 H :    0.287723   -0.022522
Sum of atomic charges       :    0.0000000

LOEWDIN ATOMIC CHARGES AND SPIN DENSITIES
-----------------------------------------
   0 O :   -0.066397    0.035433
   1 C :   -0.137666   -0.009009
   2 C :    0.135826   -0.019180
   3 H :    0.023071    0.003748
   4 H :    0.023076    0.003752
   5 H :    0.011053   -0.007372
   6 H :    0.011036   -0.007374

  Mayer bond orders larger than 0.100000
B(  0-O ,  1-C ) :   0.8041 B(  0-O ,  2-C ) :   0.8809 B(  1-C ,  2-C ) :   0.7097
B(  1-C ,  3-H ) :   1.0267 B(  1-C ,  4-H ) :   1.0267 B(  2-C ,  5-H ) :   0.9155
B(  2-C ,  6-H ) :   0.9157

Dispersion correction           -0.005237788
FINAL SINGLE POINT ENERGY      -153.864238035484

DIPOLE MOMENT
-------------

Method             : TDA/CIS
Type of density    : Electron Density
Level              : Relaxed density
State              :   1
Multiplicity       :   3
Irrep              :   0
Energy             :     0.0000000000000000 Eh
Relativity type    :
Basis              : AO
                                X                 Y                 Z
Electronic contribution:     -0.080441167       1.207501794      -0.000234063
Nuclear contribution   :     -0.104843155      -2.440050339       0.000276665
                        -----------------------------------------
Total Dipole Moment    :     -0.185284322      -1.232548545       0.000042602
                        -----------------------------------------
Magnitude (a.u.)       :      1.246397287
Magnitude (Debye)      :      3.168090132

Rotational constants in cm-1:             0.873929             0.704400             0.462190
Rotational constants in MHz :         26199.741524         21117.388699         13856.112114

                             ****ORCA TERMINATED NORMALLY****
TOTAL RUN TIME: 0 days 0 hours 0 minutes 18 seconds 622 msec
