                         Program Version 6.0.0  -   RELEASE  -
|  1> ! Engrad def2-TZVPPD wB97M-D3BJ
|  2> %pal nprocs 8 end%pal nprocs 64 end
|  3> %tddft Nroots 2 Iroot 2
|  4> sf true
|  5> end
|  6> *xyz 0 3
|  7> O   3.27428701 0.27979375 -0.92001842
|  8> O   -0.77364316 1.6335434 -2.32451693
|  9> O   0.40191359 -3.07434921 -0.22387721
| 10> O   -2.95529207 -1.84894249 -0.5035081
| 11> N   0.3709954 -1.37952509 1.27827694
| 12> N   -2.15703397 -0.26366794 0.91384147
| 13> N   1.535357 -1.16599315 -0.7293528
| 14> N   -1.53332555 -0.26844402 -1.30994807
| 15> C   1.83458431 0.49985733 0.95903917
| 16> C   -0.99083049 1.63548175 0.02353112
| 17> C   0.4186364 0.0260148 1.5470161
| 18> C   -1.15176599 0.72791738 1.18573323
| 19> C   2.59133115 1.55567513 1.65046171
| 20> C   -0.7518741 3.0841355 0.21144802
| 21> C   2.29872137 -0.0807686 -0.28216663
| 22> C   -1.07019069 1.05468952 -1.29210086
| 23> C   0.73546468 -1.9531259 0.07883551
| 24> C   -2.26287328 -0.87760151 -0.30158229
| 25> H   0.4600699 0.17579403 2.6116595
| 26> H   -1.45183673 1.27142411 2.07161435
| 27> H   3.57130224 1.67092872 1.23047163
| 28> H   2.07237229 2.50870095 1.57264102
| 29> H   2.64144075 1.326172 2.70638934
| 30> H   -1.61408485 3.55488935 0.67604
| 31> H   0.09202163 3.26897878 0.84413613
| 32> H   -0.56479259 3.5500375 -0.7465977
| 33> H   -0.2243561 -1.97295081 1.81243765
| 34> H   -2.66937412 -0.70895665 1.65374974
| 35> H   1.85513494 -1.61726423 -1.57635374
| 36> H   -1.62966521 -0.69246075 -2.21892318
| 37> *
| 38>
| 39>                          ****END OF INPUT****

CARTESIAN COORDINATES (ANGSTROEM)
---------------------------------
  O      3.274287    0.279794   -0.920018
  O     -0.773643    1.633543   -2.324517
  O      0.401914   -3.074349   -0.223877
  O     -2.955292   -1.848942   -0.503508
  N      0.370995   -1.379525    1.278277
  N     -2.157034   -0.263668    0.913841
  N      1.535357   -1.165993   -0.729353
  N     -1.533326   -0.268444   -1.309948
  C      1.834584    0.499857    0.959039
  C     -0.990830    1.635482    0.023531
  C      0.418636    0.026015    1.547016
  C     -1.151766    0.727917    1.185733
  C      2.591331    1.555675    1.650462
  C     -0.751874    3.084135    0.211448
  C      2.298721   -0.080769   -0.282167
  C     -1.070191    1.054690   -1.292101
  C      0.735465   -1.953126    0.078836
  C     -2.262873   -0.877602   -0.301582
  H      0.460070    0.175794    2.611660
  H     -1.451837    1.271424    2.071614
  H      3.571302    1.670929    1.230472
  H      2.072372    2.508701    1.572641
  H      2.641441    1.326172    2.706389
  H     -1.614085    3.554889    0.676040
  H      0.092022    3.268979    0.844136
  H     -0.564793    3.550037   -0.746598
  H     -0.224356   -1.972951    1.812438
  H     -2.669374   -0.708957    1.653750
  H      1.855135   -1.617264   -1.576354
  H     -1.629665   -0.692461   -2.218923

 Total Charge           Charge          ....    0
 Multiplicity           Mult            ....    3
 Number of Electrons    NEL             ....  132
 Basis Dimension        Dim             ....  882

ORBITAL ENERGIES
----------------
                 SPIN UP ORBITALS
  NO   OCC          E(Eh)            E(eV)
   0   1.0000     -19.335606      -526.1486
   1   1.0000     -19.331910      -526.0480
   2   1.0000     -19.314999      -525.5879
   3   1.0000     -19.314888      -525.5848
   4   1.0000     -14.564747      -396.3269
   5   1.0000     -14.557530      -396.1305
   6   1.0000     -14.557416      -396.1274
   7   1.0000     -14.556718      -396.1084
   8   1.0000     -10.500364      -285.7294
   9   1.0000     -10.499230      -285.6986
  10   1.0000     -10.481012      -285.2028
  11   1.0000     -10.476840      -285.0893
  12   1.0000     -10.452636      -284.4307
  13   1.0000     -10.448784      -284.3259
  14   1.0000     -10.428792      -283.7819
  15   1.0000     -10.412114      -283.3280
  16   1.0000     -10.373026      -282.2644
  17   1.0000     -10.369494      -282.1683
  18   1.0000      -1.218375       -33.1537
  19   1.0000      -1.214279       -33.0422
  20   1.0000      -1.194755       -32.5109
  21   1.0000      -1.192332       -32.4450
  22   1.0000      -1.114206       -30.3191
  23   1.0000      -1.096700       -29.8427
  24   1.0000      -1.063137       -28.9294
  25   1.0000      -1.053768       -28.6745
  26   1.0000      -0.971977       -26.4488
  27   1.0000      -0.954940       -25.9852
  28   1.0000      -0.878601       -23.9079
  29   1.0000      -0.842264       -22.9192
  30   1.0000      -0.830000       -22.5854
  31   1.0000      -0.806645       -21.9499
  32   1.0000      -0.783939       -21.3321
  33   1.0000      -0.775475       -21.1017
  34   1.0000      -0.697606       -18.9828
  35   1.0000      -0.692009       -18.8305
  36   1.0000      -0.682358       -18.5679
  37   1.0000      -0.660383       -17.9699
  38   1.0000      -0.648247       -17.6397
  39   1.0000      -0.645858       -17.5747
  40   1.0000      -0.617669       -16.8076
  41   1.0000      -0.603549       -16.4234
  42   1.0000      -0.592229       -16.1154
  43   1.0000      -0.585491       -15.9320
  44   1.0000      -0.581014       -15.8102
  45   1.0000      -0.568689       -15.4748
  46   1.0000      -0.560958       -15.2645
  47   1.0000      -0.557787       -15.1782
  48   1.0000      -0.554756       -15.0957
  49   1.0000      -0.553167       -15.0524
  50   1.0000      -0.546319       -14.8661
  51   1.0000      -0.538034       -14.6406
  52   1.0000      -0.533408       -14.5148
  53   1.0000      -0.525672       -14.3043
  54   1.0000      -0.517106       -14.0712
  55   1.0000      -0.507043       -13.7973
  56   1.0000      -0.491676       -13.3792
  57   1.0000      -0.421688       -11.4747
  58   1.0000      -0.416673       -11.3383
  59   1.0000      -0.410117       -11.1598
  60   1.0000      -0.406563       -11.0631
  61   1.0000      -0.393789       -10.7156
  62   1.0000      -0.391431       -10.6514
  63   1.0000      -0.387656       -10.5486
  64   1.0000      -0.380810       -10.3624
  65   1.0000      -0.338656        -9.2153
  66   1.0000      -0.325212        -8.8495
  67   0.0000       0.006201         0.1687
  68   0.0000       0.028071         0.7638
  69   0.0000       0.031825         0.8660
  70   0.0000       0.039555         1.0763
  71   0.0000       0.056092         1.5263

                 SPIN DOWN ORBITALS
  NO   OCC          E(Eh)            E(eV)
   0   1.0000     -19.330843      -526.0190
   1   1.0000     -19.327114      -525.9175
   2   1.0000     -19.314794      -525.5823
   3   1.0000     -19.314566      -525.5761
   4   1.0000     -14.564296      -396.3146
   5   1.0000     -14.557137      -396.1198
   6   1.0000     -14.557084      -396.1184
   7   1.0000     -14.556078      -396.0910
   8   1.0000     -10.500400      -285.7304
   9   1.0000     -10.499263      -285.6995
  10   1.0000     -10.482094      -285.2323
  11   1.0000     -10.477832      -285.1163
  12   1.0000     -10.451926      -284.4114
  13   1.0000     -10.448847      -284.3276
  14   1.0000     -10.417322      -283.4698
  15   1.0000     -10.401038      -283.0266
  16   1.0000     -10.373562      -282.2790
  17   1.0000     -10.370042      -282.1832
  18   1.0000      -1.216569       -33.1045
  19   1.0000      -1.212197       -32.9856
  20   1.0000      -1.189301       -32.3625
  21   1.0000      -1.186673       -32.2910
  22   1.0000      -1.111882       -30.2558
  23   1.0000      -1.094279       -29.7768
  24   1.0000      -1.061338       -28.8805
  25   1.0000      -1.052194       -28.6317
  26   1.0000      -0.957419       -26.0527
  27   1.0000      -0.938427       -25.5359
  28   1.0000      -0.874890       -23.8070
  29   1.0000      -0.837076       -22.7780
  30   1.0000      -0.820945       -22.3390
  31   1.0000      -0.801088       -21.7987
  32   1.0000      -0.782687       -21.2980
  33   1.0000      -0.773918       -21.0594
  34   1.0000      -0.691649       -18.8207
  35   1.0000      -0.686092       -18.6695
  36   1.0000      -0.677386       -18.4326
  37   1.0000      -0.654379       -17.8066
  38   1.0000      -0.643054       -17.4984
  39   1.0000      -0.636155       -17.3107
  40   1.0000      -0.615542       -16.7498
  41   1.0000      -0.598581       -16.2882
  42   1.0000      -0.584520       -15.9056
  43   1.0000      -0.575539       -15.6612
  44   1.0000      -0.569263       -15.4904
  45   1.0000      -0.564144       -15.3511
  46   1.0000      -0.556594       -15.1457
  47   1.0000      -0.554366       -15.0851
  48   1.0000      -0.545666       -14.8483
  49   1.0000      -0.542417       -14.7599
  50   1.0000      -0.541445       -14.7335
  51   1.0000      -0.531747       -14.4696
  52   1.0000      -0.526800       -14.3350
  53   1.0000      -0.515091       -14.0163
  54   1.0000      -0.504660       -13.7325
  55   1.0000      -0.501516       -13.6469
  56   1.0000      -0.485975       -13.2240
  57   1.0000      -0.416632       -11.3371
  58   1.0000      -0.412221       -11.2171
  59   1.0000      -0.402454       -10.9513
  60   1.0000      -0.392848       -10.6899
  61   1.0000      -0.386033       -10.5045
  62   1.0000      -0.383351       -10.4315
  63   1.0000      -0.379711       -10.3325
  64   1.0000      -0.367590       -10.0026
  65   0.0000      -0.060238        -1.6392
  66   0.0000      -0.051890        -1.4120
  67   0.0000       0.005803         0.1579
  68   0.0000       0.027861         0.7581
  69   0.0000       0.031521         0.8577

----------------------------------------------------------------------------------------------------
          SPIN FLIP ABSORPTION SPECTRUM VIA TRANSITION ELECTRIC DIPOLE MOMENTS
----------------------------------------------------------------------------------------------------
     Transition      Energy     Energy  Wavelength fosc(D2)      D2        DX        DY        DZ
                      (eV)      (cm-1)    (nm)                 (au**2)    (au)      (au)      (au)
----------------------------------------------------------------------------------------------------
  1-3A  ->  2-3A    0.044742     360.9  27710.9   0.000000279   0.00025  -0.01570   0.00250  -0.00116

Dispersion correction             ... done (  0.1 sec)

MULLIKEN ATOMIC CHARGES AND SPIN DENSITIES
------------------------------------------
   0 O :   -0.680620   -0.168529
   1 O :   -0.675928    0.168887
   2 O :   -0.648659   -0.007255
   3 O :   -0.652392    0.000567
   4 N :   -0.270353    0.006117
   5 N :   -0.271324    0.006270
   6 N :    0.080301   -0.012202
   7 N :    0.062871    0.022225
   8 C :    1.376835    0.423204
   9 C :   -0.213896    0.333949
  10 C :   -0.305377   -0.425500
  11 C :    0.583703    0.093665
  12 C :   -1.236029   -0.001604
  13 C :   -1.171976    0.011570
  14 C :   -0.317064   -0.644770
  15 C :    0.535018    0.134684
  16 C :    0.388435    0.042233
  17 C :    0.368488   -0.007119
  18 H :    0.511901   -0.030616
  19 H :    0.586828    0.009966
  20 H :    0.311317   -0.016512
  21 H :    0.263846    0.011257
  22 H :    0.335734    0.003575
  23 H :    0.314351    0.022186
  24 H :    0.240500    0.011094
  25 H :    0.304946    0.009514
  26 H :    0.053740   -0.000593
  27 H :    0.045977    0.000012
  28 H :    0.053300    0.005187
  29 H :    0.025526   -0.001462
Sum of atomic charges       :    0.0000000

LOEWDIN ATOMIC CHARGES AND SPIN DENSITIES
-----------------------------------------
   0 O :    0.083053   -0.152048
   1 O :    0.096241    0.150552
   2 O :    0.095680   -0.006661
   3 O :    0.095554    0.000664
   4 N :    0.251210    0.000248
   5 N :    0.270012    0.000630
   6 N :    0.318177   -0.014115
   7 N :    0.328389    0.015416
   8 C :    0.042475   -0.481668
   9 C :   -0.047610    0.466861
  10 C :   -0.006984    0.015245
  11 C :   -0.052556    0.023412
  12 C :    0.188226   -0.078861
  13 C :    0.206656    0.069492
  14 C :   -0.419175   -0.090735
  15 C :   -0.393862    0.080688
  16 C :   -0.496226    0.000504
  17 C :   -0.497441   -0.000298
  18 H :    0.014219    0.003356
  19 H :    0.038148    0.000725
  20 H :   -0.006213    0.000575
  21 H :   -0.005132   -0.023996
  22 H :    0.001888   -0.015435
  23 H :    0.007958    0.020763
  24 H :   -0.028900    0.015610
  25 H :   -0.002186   -0.001308
  26 H :   -0.040341   -0.000156
  27 H :   -0.026860    0.000203
  28 H :   -0.006180   -0.001036
  29 H :   -0.008218    0.001374

  Mayer bond orders larger than 0.100000
B(  0-O , 14-C ) :   1.3568 B(  1-O , 15-C ) :   1.3731 B(  2-O , 16-C ) :   1.5041
B(  3-O , 17-C ) :   1.5198 B(  4-N ,  5-N ) :   0.1293 B(  4-N ,  8-C ) :   0.1806
B(  4-N , 10-C ) :   0.3191 B(  4-N , 16-C ) :   1.0534 B(  4-N , 18-H ) :  -0.1030
B(  4-N , 26-H ) :   1.1020 B(  5-N ,  9-C ) :   0.3482 B(  5-N , 11-C ) :   0.1664
B(  5-N , 17-C ) :   1.1291 B(  5-N , 27-H ) :   1.0919 B(  6-N , 10-C ) :   0.1002
B(  6-N , 14-C ) :   1.0360 B(  6-N , 16-C ) :   0.9771 B(  6-N , 28-H ) :   1.0753
B(  7-N ,  9-C ) :  -0.1002 B(  7-N , 11-C ) :   0.1246 B(  7-N , 15-C ) :   1.0357
B(  7-N , 17-C ) :   0.9530 B(  7-N , 29-H ) :   1.0921 B(  8-C , 12-C ) :   0.4940
B(  8-C , 14-C ) :   0.2107 B(  8-C , 18-H ) :  -0.1130 B(  8-C , 20-H ) :  -0.1063
B(  9-C , 10-C ) :   0.4136 B(  9-C , 11-C ) :  -0.2601 B(  9-C , 13-C ) :   0.7013
B(  9-C , 15-C ) :   0.8028 B(  9-C , 19-H ) :  -0.1292 B(  9-C , 25-H ) :  -0.1096
B( 10-C , 11-C ) :   0.4632 B( 10-C , 14-C ) :   0.3057 B( 10-C , 16-C ) :  -0.1247
B( 10-C , 18-H ) :   0.7839 B( 11-C , 15-C ) :  -0.1410 B( 11-C , 17-C ) :  -0.2120
B( 11-C , 19-H ) :   0.7566 B( 12-C , 20-H ) :   1.0130 B( 12-C , 21-H ) :   0.8876
B( 12-C , 22-H ) :   0.9363 B( 13-C , 23-H ) :   0.9407 B( 13-C , 24-H ) :   0.8500
B( 13-C , 25-H ) :   1.0132 B( 14-C , 16-C ) :  -0.1158

Dispersion correction           -0.057234999
FINAL SINGLE POINT ENERGY      -908.781824451324

DIPOLE MOMENT
-------------

Method             : TDA/CIS
Type of density    : Electron Density
Level              : Relaxed density
State              :   2
Multiplicity       :   3
Irrep              :   0
Energy             :     0.0000000000000000 Eh
Relativity type    :
Basis              : AO
                                X                 Y                 Z
Electronic contribution:     -2.796016745     -10.243500972      -7.253540123
Nuclear contribution   :      2.525406620      11.992292582      10.159086498
                        -----------------------------------------
Total Dipole Moment    :     -0.270610125       1.748791610       2.905546376
                        -----------------------------------------
Magnitude (a.u.)       :      3.402014356
Magnitude (Debye)      :      8.647233285

Rotational constants in cm-1:             0.018615             0.014900             0.011850
Rotational constants in MHz :           558.071403           446.682526           355.244733

                             ****ORCA TERMINATED NORMALLY****
TOTAL RUN TIME: 0 days 0 hours 4 minutes 31 seconds 459 msec
