                         Program Version 6.0.0  -   RELEASE  -
|  1> ! opt def2-TZVPPD wB97M-D3BJ
|  2> %pal nprocs 8 end%pal nprocs 32 end
|  3> %geom Constraints
|  4> {B 9 8 3.1 C}
|  5> {A 8 9 11 61.42857142857143 C}
|  6> end
|  7> MaxIter 300
|  8> end
|  9> *xyz 0 1
| 10> O   2.98579685529314 0.88758230159078 -0.86184571092411
| 11> O   -0.03983205397054 0.68929041702508 -2.10362336723772
| 12> O   0.93431434349854 -3.13274393337945 -0.68767288184107
| 13> O   -3.75829998830163 -0.84727300865116 -0.0472717177755
| 14> N   0.21184538946282 -1.54604804365365 0.7617588924445
| 15> N   -2.13631993928911 0.03188773433438 1.27350571071531
| 16> N   2.02598672506387 -1.14318467211666 -0.64531219127023
| 17> N   -1.91814233924584 0.03137116037665 -1.04498946748291
| 18> C   1.18097737274226 0.71693507080484 0.70173889017321
| 19> C   -0.20686880480777 1.27024627933494 0.21345042231937
| 20> C   0.41441080275909 -0.34173258966541 1.52336266615173
| 21> C   -0.82922175114212 0.58960593673968 1.44434972027296
| 22> C   1.92822011286806 1.69488653817281 1.5963734975385
| 23> C   -0.37809776891576 2.77134929626422 0.04819649358288
| 24> C   2.1403947470937 0.1972384729179 -0.35038567829864
| 25> C   -0.67361678962426 0.6214190571346 -1.0793014500539
| 26> C   1.04142578622994 -2.02697492875068 -0.21027082435993
| 27> C   -2.68467002550422 -0.30396816036989 0.07167054343891
| 28> H   0.80817443950001 -0.54572267081061 2.51895215321335
| 29> H   -0.83785272399001 1.27240685039143 2.28901317073582
| 30> H   2.31167340578204 2.52284411740894 1.00913016264629
| 31> H   1.28982602448342 2.08257620823614 2.38710022492991
| 32> H   2.77390820759972 1.19140411795486 2.06045858523949
| 33> H   -1.41857211141493 3.00964947214868 -0.16882755561625
| 34> H   -0.09065531563179 3.29799318042223 0.95389844358819
| 35> H   0.23426221611057 3.12492645074476 -0.77764887675592
| 36> H   -0.46772570547622 -2.21560145172536 1.0787081584806
| 37> H   -2.71769301149571 -0.17090724573546 2.06627440900372
| 38> H   2.60065167263658 -1.49057255715425 -1.3966820077142
| 39> H   -2.27169977231386 -0.32388339999036 -1.91951041514436
| 40> *
| 41>
| 42>                          ****END OF INPUT****
 Total Charge           Charge          ....    0
 Multiplicity           Mult            ....    1
 Number of Electrons    NEL             ....  132
Dispersion correction           -0.052014411
FINAL SINGLE POINT ENERGY      -908.674333046167
Dispersion correction             ... done (  0.0 sec)
Dispersion correction           -0.052916719
FINAL SINGLE POINT ENERGY      -908.705504018331
Dispersion correction             ... done (  0.0 sec)
Dispersion correction           -0.053846495
FINAL SINGLE POINT ENERGY      -908.727385199957
Dispersion correction             ... done (  0.0 sec)
FINAL SINGLE POINT ENERGY      -908.747748649454
FINAL SINGLE POINT ENERGY      -908.758654784722
FINAL SINGLE POINT ENERGY      -908.762310114776
FINAL SINGLE POINT ENERGY      -908.764887102920
FINAL SINGLE POINT ENERGY      -908.766491690940
FINAL SINGLE POINT ENERGY      -908.767643215980
FINAL SINGLE POINT ENERGY      -908.768279395505
FINAL SINGLE POINT ENERGY      -908.772076652885
FINAL SINGLE POINT ENERGY      -908.772134474117
FINAL SINGLE POINT ENERGY      -908.772161975478
FINAL SINGLE POINT ENERGY      -908.772171780053
FINAL SINGLE POINT ENERGY      -908.772179896325
FINAL SINGLE POINT ENERGY      -908.772185860809
FINAL SINGLE POINT ENERGY      -908.772188902495
Dispersion correction             ... done (  0.0 sec)
Dispersion correction           -0.057838265
FINAL SINGLE POINT ENERGY      -908.772191005127
Dispersion correction             ... done (  0.0 sec)
Dispersion correction           -0.057830025
FINAL SINGLE POINT ENERGY      -908.772192434001
Dispersion correction             ... done (  0.0 sec)
                    ***********************HURRAY********************

CARTESIAN COORDINATES (ANGSTROEM)
---------------------------------
  O      3.365091    0.429311   -0.686933
  O     -0.775049    1.354802   -2.444793
  O      0.425152   -2.967911   -0.631924
  O     -3.089325   -1.686413   -0.097278
  N      0.306006   -1.448297    1.050542
  N     -2.098871    0.003451    1.065496
  N      1.657988   -1.065123   -0.798991
  N     -1.577442   -0.356060   -1.170795
  C      1.794092    0.450933    1.065106
  C     -0.824303    1.638194   -0.094385
  C      0.403605   -0.084788    1.520938
  C     -0.903828    0.798324    1.188780
  C      2.526048    1.409313    1.906203
  C     -0.831300    3.107339   -0.057412
  C      2.350966   -0.024682   -0.185999
  C     -1.031013    0.915531   -1.341613
  C      0.758975   -1.904365   -0.162351
  C     -2.314866   -0.762453   -0.059098
  H      0.430912   -0.142861    2.613142
  H     -1.036564    1.482293    2.024565
  H      3.478767    1.663814    1.453703
  H      1.947682    2.327586    2.057650
  H      2.692046    0.989246    2.904149
  H     -1.794460    3.469496    0.324538
  H     -0.066647    3.491173    0.621709
  H     -0.681559    3.513067   -1.053301
  H     -0.359642   -2.069299    1.477131
  H     -2.611233   -0.300357    1.875288
  H      2.055127   -1.423526   -1.651795
  H     -1.743756   -0.892739   -2.007672

 Multiplicity           Mult            ....    1
 Number of Electrons    NEL             ....  132
 Basis Dimension        Dim             ....  882

ORBITAL ENERGIES
----------------

  NO   OCC          E(Eh)            E(eV)
   0   2.0000     -19.333709      -526.0970
   1   2.0000     -19.327572      -525.9300
   2   2.0000     -19.322165      -525.7828
   3   2.0000     -19.313801      -525.5552
   4   2.0000     -14.567092      -396.3907
   5   2.0000     -14.563533      -396.2939
   6   2.0000     -14.554968      -396.0608
   7   2.0000     -14.552470      -395.9929
   8   2.0000     -10.509379      -285.9747
   9   2.0000     -10.498218      -285.6710
  10   2.0000     -10.483840      -285.2798
  11   2.0000     -10.475378      -285.0495
  12   2.0000     -10.444589      -284.2117
  13   2.0000     -10.443797      -284.1902
  14   2.0000     -10.434303      -283.9318
  15   2.0000     -10.427029      -283.7339
  16   2.0000     -10.380233      -282.4605
  17   2.0000     -10.375474      -282.3310
  18   2.0000      -1.224304       -33.3150
  19   2.0000      -1.211476       -32.9659
  20   2.0000      -1.197520       -32.5862
  21   2.0000      -1.186028       -32.2735
  22   2.0000      -1.118404       -30.4333
  23   2.0000      -1.094111       -29.7723
  24   2.0000      -1.064964       -28.9791
  25   2.0000      -1.051516       -28.6132
  26   2.0000      -0.968630       -26.3578
  27   2.0000      -0.947901       -25.7937
  28   2.0000      -0.885630       -24.0992
  29   2.0000      -0.837999       -22.8031
  30   2.0000      -0.825148       -22.4534
  31   2.0000      -0.800718       -21.7886
  32   2.0000      -0.785271       -21.3683
  33   2.0000      -0.773653       -21.0522
  34   2.0000      -0.697981       -18.9930
  35   2.0000      -0.688699       -18.7404
  36   2.0000      -0.680615       -18.5205
  37   2.0000      -0.659823       -17.9547
  38   2.0000      -0.649874       -17.6840
  39   2.0000      -0.641973       -17.4690
  40   2.0000      -0.617493       -16.8028
  41   2.0000      -0.600005       -16.3270
  42   2.0000      -0.585255       -15.9256
  43   2.0000      -0.580458       -15.7951
  44   2.0000      -0.572618       -15.5817
  45   2.0000      -0.567302       -15.4371
  46   2.0000      -0.565466       -15.3871
  47   2.0000      -0.556654       -15.1473
  48   2.0000      -0.553668       -15.0661
  49   2.0000      -0.548812       -14.9339
  50   2.0000      -0.546740       -14.8775
  51   2.0000      -0.542370       -14.7587
  52   2.0000      -0.529465       -14.4075
  53   2.0000      -0.517852       -14.0915
  54   2.0000      -0.510268       -13.8851
  55   2.0000      -0.505469       -13.7545
  56   2.0000      -0.485911       -13.2223
  57   2.0000      -0.422714       -11.5026
  58   2.0000      -0.414025       -11.2662
  59   2.0000      -0.407283       -11.0827
  60   2.0000      -0.398052       -10.8315
  61   2.0000      -0.391724       -10.6593
  62   2.0000      -0.388862       -10.5815
  63   2.0000      -0.382838       -10.4175
  64   2.0000      -0.375657       -10.2221
  65   2.0000      -0.280962        -7.6454
  66   0.0000      -0.115928        -3.1546
  67   0.0000       0.005132         0.1397
  68   0.0000       0.027297         0.7428
  69   0.0000       0.031684         0.8622
  70   0.0000       0.038862         1.0575

MULLIKEN ATOMIC CHARGES
-----------------------
   0 O :   -0.676638
   1 O :   -0.663289
   2 O :   -0.656622
   3 O :   -0.625452
   4 N :   -0.302677
   5 N :   -0.334472
   6 N :    0.077473
   7 N :    0.059714
   8 C :    0.141227
   9 C :    0.249840
  10 C :    0.067016
  11 C :    0.788212
  12 C :   -1.306989
  13 C :   -1.460793
  14 C :    0.432440
  15 C :    0.260730
  16 C :    0.401470
  17 C :    0.336872
  18 H :    0.672515
  19 H :    0.472664
  20 H :    0.304979
  21 H :    0.262413
  22 H :    0.319717
  23 H :    0.348440
  24 H :    0.254277
  25 H :    0.356637
  26 H :    0.067790
  27 H :    0.088046
  28 H :    0.034411
  29 H :    0.030051
Sum of atomic charges:    0.0000000

LOEWDIN ATOMIC CHARGES
----------------------
   0 O :    0.087167
   1 O :    0.104295
   2 O :    0.091691
   3 O :    0.106257
   4 N :    0.268383
   5 N :    0.273756
   6 N :    0.322278
   7 N :    0.329071
   8 C :    0.013593
   9 C :    0.012111
  10 C :   -0.093024
  11 C :   -0.104275
  12 C :    0.179653
  13 C :    0.184983
  14 C :   -0.414393
  15 C :   -0.407336
  16 C :   -0.499058
  17 C :   -0.486867
  18 H :    0.035986
  19 H :    0.043711
  20 H :   -0.004266
  21 H :    0.002067
  22 H :    0.010319
  23 H :    0.018261
  24 H :   -0.001493
  25 H :    0.001272
  26 H :   -0.029789
  27 H :   -0.027898
  28 H :   -0.011506
  29 H :   -0.004951

  Mayer bond orders larger than 0.100000
B(  0-O , 14-C ) :   1.3307 B(  1-O , 15-C ) :   1.3926 B(  2-O , 16-C ) :   1.5305
B(  3-O , 17-C ) :   1.5554 B(  4-N ,  8-C ) :   0.3023 B(  4-N , 10-C ) :   0.2619
B(  4-N , 16-C ) :   1.0278 B(  4-N , 26-H ) :   1.0994 B(  5-N ,  9-C ) :   0.3643
B(  5-N , 10-C ) :   0.1133 B(  5-N , 17-C ) :   1.1368 B(  5-N , 27-H ) :   1.0335
B(  6-N ,  8-C ) :  -0.1302 B(  6-N , 10-C ) :   0.1081 B(  6-N , 14-C ) :   1.0976
B(  6-N , 16-C ) :   0.9506 B(  6-N , 28-H ) :   1.0864 B(  7-N , 11-C ) :   0.1220
B(  7-N , 15-C ) :   0.9843 B(  7-N , 17-C ) :   0.9800 B(  7-N , 29-H ) :   1.0798
B(  8-C ,  9-C ) :   0.5039 B(  8-C , 12-C ) :   0.5521 B(  8-C , 14-C ) :   0.7775
B(  8-C , 16-C ) :   0.1280 B(  8-C , 18-H ) :  -0.1835 B(  8-C , 20-H ) :  -0.1206
B(  9-C , 10-C ) :   0.3166 B(  9-C , 11-C ) :  -0.1845 B(  9-C , 13-C ) :   0.4493
B(  9-C , 14-C ) :   0.1483 B(  9-C , 15-C ) :   0.8485 B(  9-C , 25-H ) :  -0.1105
B( 10-C , 11-C ) :   0.5727 B( 10-C , 16-C ) :  -0.1623 B( 10-C , 18-H ) :   0.6569
B( 11-C , 13-C ) :  -0.1456 B( 11-C , 15-C ) :  -0.2418 B( 11-C , 17-C ) :  -0.2017
B( 11-C , 19-H ) :   0.9165 B( 12-C , 20-H ) :   1.0281 B( 12-C , 21-H ) :   0.9162
B( 12-C , 22-H ) :   0.9027 B( 13-C , 23-H ) :   0.8783 B( 13-C , 24-H ) :   1.0030
B( 13-C , 25-H ) :   0.9342

Dispersion correction           -0.057834928
FINAL SINGLE POINT ENERGY      -908.772193774928

DIPOLE MOMENT
-------------

Method             : SCF
Type of density    : Electron Density
Multiplicity       :   1
Irrep              :   0
Energy             :  -908.7143588470590885 Eh
Relativity type    :
Basis              : AO
                                X                 Y                 Z
Electronic contribution:     -2.591167257      -9.952988631      -7.392251475
Nuclear contribution   :      2.142888309      11.628350095      10.086662445
                        -----------------------------------------
Total Dipole Moment    :     -0.448278947       1.675361463       2.694410970
                        -----------------------------------------
Magnitude (a.u.)       :      3.204315921
Magnitude (Debye)      :      8.144723799

Rotational constants in cm-1:             0.019127             0.014555             0.012086
Rotational constants in MHz :           573.417761           436.346572           362.320639

                             ****ORCA TERMINATED NORMALLY****
TOTAL RUN TIME: 0 days 1 hours 4 minutes 52 seconds 266 msec
