                         Program Version 6.0.0  -   RELEASE  -
|  1> ! Engrad def2-TZVPPD wB97M-D3BJ
|  2> %pal nprocs 8 end%pal nprocs 64 end
|  3> %tddft
|  4>  Iroot 2 Nroots 3
|  5> sf true
|  6> end
|  7> *xyz 0 3
|  8> O   2.80062982 -0.96819262 -2.43782438
|  9> O   -2.52359801 1.30891965 -1.32609433
| 10> O   -1.28639767 -2.3644551 -1.07381909
| 11> O   -2.38670814 0.87152788 3.23230867
| 12> N   0.13229902 -1.54832787 0.48272996
| 13> N   -0.44465462 0.89218463 2.08010409
| 14> N   0.75765317 -1.65658644 -1.7552788
| 15> N   -2.39066718 0.9505369 0.92805192
| 16> C   2.2061615 -0.53705164 -0.22726981
| 17> C   -0.38646853 1.37743404 -0.28372822
| 18> C   1.13402095 -0.47237941 0.78541851
| 19> C   0.37649345 1.00482885 0.93093132
| 20> C   3.55955795 -0.34099333 0.1840279
| 21> C   0.48525336 1.64292779 -1.49624901
| 22> C   1.93516096 -1.03863504 -1.54656277
| 23> C   -1.80324729 1.21722247 -0.33078288
| 24> C   -0.20207671 -1.9304439 -0.75797631
| 25> C   -1.7840647 0.92391263 2.19442246
| 26> H   1.50188521 -0.61705532 1.78335602
| 27> H   1.12889265 1.68074803 1.14280139
| 28> H   4.08440172 -1.37750425 0.33986599
| 29> H   4.16516752 0.04561445 -0.69580965
| 30> H   3.64623719 0.32621348 1.06415202
| 31> H   0.31106418 2.55111189 -2.06666035
| 32> H   1.52965585 1.60591216 -1.09614677
| 33> H   0.20246474 0.81596026 -2.24595677
| 34> H   -0.63913713 -1.61405484 1.16095305
| 35> H   0.08460844 1.03527871 2.97640261
| 36> H   0.54540927 -2.13553992 -2.60935473
| 37> H   -3.35270378 0.78607893 1.05616875
| 38> *
| 39>
| 40>                          ****END OF INPUT****

CARTESIAN COORDINATES (ANGSTROEM)
---------------------------------
  O      2.800630   -0.968193   -2.437824
  O     -2.523598    1.308920   -1.326094
  O     -1.286398   -2.364455   -1.073819
  O     -2.386708    0.871528    3.232309
  N      0.132299   -1.548328    0.482730
  N     -0.444655    0.892185    2.080104
  N      0.757653   -1.656586   -1.755279
  N     -2.390667    0.950537    0.928052
  C      2.206161   -0.537052   -0.227270
  C     -0.386469    1.377434   -0.283728
  C      1.134021   -0.472379    0.785419
  C      0.376493    1.004829    0.930931
  C      3.559558   -0.340993    0.184028
  C      0.485253    1.642928   -1.496249
  C      1.935161   -1.038635   -1.546563
  C     -1.803247    1.217222   -0.330783
  C     -0.202077   -1.930444   -0.757976
  C     -1.784065    0.923913    2.194422
  H      1.501885   -0.617055    1.783356
  H      1.128893    1.680748    1.142801
  H      4.084402   -1.377504    0.339866
  H      4.165168    0.045614   -0.695810
  H      3.646237    0.326213    1.064152
  H      0.311064    2.551112   -2.066660
  H      1.529656    1.605912   -1.096147
  H      0.202465    0.815960   -2.245957
  H     -0.639137   -1.614055    1.160953
  H      0.084608    1.035279    2.976403
  H      0.545409   -2.135540   -2.609355
  H     -3.352704    0.786079    1.056169

 Total Charge           Charge          ....    0
 Multiplicity           Mult            ....    3
 Number of Electrons    NEL             ....  132
 Basis Dimension        Dim             ....  882

ORBITAL ENERGIES
----------------
                 SPIN UP ORBITALS
  NO   OCC          E(Eh)            E(eV)
   0   1.0000     -19.334355      -526.1146
   1   1.0000     -19.327916      -525.9393
   2   1.0000     -19.325281      -525.8676
   3   1.0000     -19.322126      -525.7818
   4   1.0000     -14.568094      -396.4180
   5   1.0000     -14.566523      -396.3752
   6   1.0000     -14.566398      -396.3718
   7   1.0000     -14.556302      -396.0971
   8   1.0000     -10.506933      -285.9082
   9   1.0000     -10.506379      -285.8931
  10   1.0000     -10.485099      -285.3140
  11   1.0000     -10.479388      -285.1586
  12   1.0000     -10.451921      -284.4112
  13   1.0000     -10.447424      -284.2889
  14   1.0000     -10.423867      -283.6478
  15   1.0000     -10.413383      -283.3625
  16   1.0000     -10.387021      -282.6452
  17   1.0000     -10.385383      -282.6006
  18   1.0000      -1.224634       -33.3240
  19   1.0000      -1.221830       -33.2477
  20   1.0000      -1.190583       -32.3974
  21   1.0000      -1.187672       -32.3182
  22   1.0000      -1.125305       -30.6211
  23   1.0000      -1.103141       -30.0180
  24   1.0000      -1.067348       -29.0440
  25   1.0000      -1.056953       -28.7612
  26   1.0000      -0.988742       -26.9050
  27   1.0000      -0.966522       -26.3004
  28   1.0000      -0.889937       -24.2164
  29   1.0000      -0.848134       -23.0789
  30   1.0000      -0.831550       -22.6276
  31   1.0000      -0.815925       -22.2024
  32   1.0000      -0.784959       -21.3598
  33   1.0000      -0.778561       -21.1857
  34   1.0000      -0.706096       -19.2138
  35   1.0000      -0.702892       -19.1267
  36   1.0000      -0.690905       -18.8005
  37   1.0000      -0.679633       -18.4938
  38   1.0000      -0.652944       -17.7675
  39   1.0000      -0.644288       -17.5320
  40   1.0000      -0.626038       -17.0354
  41   1.0000      -0.608760       -16.5652
  42   1.0000      -0.593412       -16.1476
  43   1.0000      -0.589686       -16.0462
  44   1.0000      -0.572776       -15.5860
  45   1.0000      -0.571307       -15.5461
  46   1.0000      -0.566468       -15.4144
  47   1.0000      -0.563460       -15.3325
  48   1.0000      -0.562730       -15.3127
  49   1.0000      -0.557890       -15.1810
  50   1.0000      -0.552263       -15.0279
  51   1.0000      -0.536005       -14.5854
  52   1.0000      -0.530861       -14.4455
  53   1.0000      -0.525377       -14.2962
  54   1.0000      -0.513309       -13.9678
  55   1.0000      -0.504405       -13.7256
  56   1.0000      -0.494289       -13.4503
  57   1.0000      -0.424597       -11.5539
  58   1.0000      -0.422702       -11.5023
  59   1.0000      -0.408529       -11.1167
  60   1.0000      -0.407453       -11.0874
  61   1.0000      -0.404909       -11.0181
  62   1.0000      -0.393133       -10.6977
  63   1.0000      -0.391722       -10.6593
  64   1.0000      -0.384304       -10.4574
  65   1.0000      -0.354475        -9.6458
  66   1.0000      -0.317755        -8.6466
  67   0.0000       0.003319         0.0903
  68   0.0000       0.029386         0.7996
  69   0.0000       0.029633         0.8064
  70   0.0000       0.033938         0.9235
  71   0.0000       0.053015         1.4426

                 SPIN DOWN ORBITALS
  NO   OCC          E(Eh)            E(eV)
   0   1.0000     -19.329601      -525.9852
   1   1.0000     -19.325186      -525.8650
   2   1.0000     -19.323997      -525.8327
   3   1.0000     -19.321972      -525.7776
   4   1.0000     -14.567983      -396.4150
   5   1.0000     -14.566274      -396.3685
   6   1.0000     -14.565861      -396.3572
   7   1.0000     -14.555588      -396.0777
   8   1.0000     -10.506973      -285.9093
   9   1.0000     -10.506431      -285.8945
  10   1.0000     -10.486190      -285.3437
  11   1.0000     -10.480300      -285.1835
  12   1.0000     -10.451224      -284.3923
  13   1.0000     -10.446995      -284.2772
  14   1.0000     -10.412891      -283.3492
  15   1.0000     -10.402237      -283.0593
  16   1.0000     -10.387707      -282.6639
  17   1.0000     -10.385616      -282.6070
  18   1.0000      -1.223762       -33.3002
  19   1.0000      -1.220888       -33.2220
  20   1.0000      -1.184086       -32.2206
  21   1.0000      -1.182811       -32.1859
  22   1.0000      -1.122916       -30.5561
  23   1.0000      -1.100779       -29.9537
  24   1.0000      -1.065225       -28.9862
  25   1.0000      -1.055091       -28.7105
  26   1.0000      -0.975614       -26.5478
  27   1.0000      -0.949595       -25.8398
  28   1.0000      -0.883695       -24.0466
  29   1.0000      -0.843290       -22.9471
  30   1.0000      -0.824019       -22.4227
  31   1.0000      -0.810547       -22.0561
  32   1.0000      -0.783080       -21.3087
  33   1.0000      -0.776538       -21.1307
  34   1.0000      -0.701624       -19.0922
  35   1.0000      -0.697148       -18.9704
  36   1.0000      -0.684312       -18.6211
  37   1.0000      -0.673433       -18.3250
  38   1.0000      -0.641938       -17.4680
  39   1.0000      -0.639471       -17.4009
  40   1.0000      -0.619336       -16.8530
  41   1.0000      -0.603487       -16.4217
  42   1.0000      -0.588583       -16.0162
  43   1.0000      -0.585249       -15.9254
  44   1.0000      -0.568979       -15.4827
  45   1.0000      -0.563555       -15.3351
  46   1.0000      -0.560244       -15.2450
  47   1.0000      -0.558920       -15.2090
  48   1.0000      -0.554187       -15.0802
  49   1.0000      -0.545861       -14.8536
  50   1.0000      -0.540760       -14.7148
  51   1.0000      -0.526735       -14.3332
  52   1.0000      -0.522825       -14.2268
  53   1.0000      -0.516612       -14.0577
  54   1.0000      -0.506948       -13.7947
  55   1.0000      -0.496446       -13.5090
  56   1.0000      -0.485263       -13.2047
  57   1.0000      -0.421753       -11.4765
  58   1.0000      -0.420030       -11.4296
  59   1.0000      -0.405342       -11.0299
  60   1.0000      -0.394198       -10.7267
  61   1.0000      -0.391137       -10.6434
  62   1.0000      -0.387457       -10.5432
  63   1.0000      -0.384810       -10.4712
  64   1.0000      -0.375030       -10.2051
  65   0.0000      -0.075555        -2.0559
  66   0.0000      -0.046273        -1.2591
  67   0.0000       0.003047         0.0829
  68   0.0000       0.028991         0.7889
  69   0.0000       0.029593         0.8053

----------------------------------------------------------------------------------------------------
          SPIN FLIP ABSORPTION SPECTRUM VIA TRANSITION ELECTRIC DIPOLE MOMENTS
----------------------------------------------------------------------------------------------------
     Transition      Energy     Energy  Wavelength fosc(D2)      D2        DX        DY        DZ
                      (eV)      (cm-1)    (nm)                 (au**2)    (au)      (au)      (au)
----------------------------------------------------------------------------------------------------
  1-3A  ->  2-3A    0.245417    1979.4  5052.0   0.000076329   0.01269   0.08951  -0.05408  -0.04192
  1-3A  ->  3-3A    2.240033   18067.1   553.5   0.004749684   0.08655  -0.23659   0.14562  -0.09678

Dispersion correction             ... done (  0.1 sec)

MULLIKEN ATOMIC CHARGES AND SPIN DENSITIES
------------------------------------------
   0 O :   -0.721484   -0.005661
   1 O :   -0.673079    0.001777
   2 O :   -0.649074   -0.000299
   3 O :   -0.642916   -0.000183
   4 N :   -0.286242   -0.006082
   5 N :   -0.256518    0.005225
   6 N :    0.062690   -0.002361
   7 N :    0.060057    0.003380
   8 C :    0.387671    0.296124
   9 C :    0.552825    0.328363
  10 C :    0.304190   -0.187740
  11 C :   -0.153541   -0.156746
  12 C :   -1.455466    0.021629
  13 C :   -1.262718   -0.027186
  14 C :    0.285049   -0.161693
  15 C :    0.261010   -0.134208
  16 C :    0.392265    0.006041
  17 C :    0.485055    0.004967
  18 H :    0.611063   -0.004540
  19 H :    0.660633   -0.002555
  20 H :    0.322797    0.007539
  21 H :    0.295981    0.002049
  22 H :    0.357407    0.001975
  23 H :    0.395848    0.002036
  24 H :    0.274164   -0.002478
  25 H :    0.193992    0.006299
  26 H :    0.087574    0.000468
  27 H :    0.100552    0.000522
  28 H :    0.020587    0.001672
  29 H :   -0.010369    0.001663
Sum of atomic charges       :   -0.0000000

LOEWDIN ATOMIC CHARGES AND SPIN DENSITIES
-----------------------------------------
   0 O :    0.058206   -0.005011
   1 O :    0.086228    0.006837
   2 O :    0.097618   -0.000046
   3 O :    0.100165   -0.000131
   4 N :    0.286934   -0.000810
   5 N :    0.236404   -0.000538
   6 N :    0.328840   -0.002476
   7 N :    0.341474   -0.000958
   8 C :   -0.110837   -0.014150
   9 C :   -0.000085    0.028045
  10 C :   -0.038842   -0.000856
  11 C :   -0.093866    0.000902
  12 C :    0.145255   -0.002963
  13 C :    0.212543    0.001041
  14 C :   -0.449397   -0.007320
  15 C :   -0.387262   -0.000549
  16 C :   -0.488217   -0.000192
  17 C :   -0.505612   -0.000273
  18 H :    0.031905   -0.000302
  19 H :    0.011666    0.000277
  20 H :    0.075035   -0.000887
  21 H :    0.030331   -0.000100
  22 H :    0.010413   -0.000169
  23 H :    0.001944    0.000403
  24 H :    0.007493   -0.000633
  25 H :    0.047572    0.001311
  26 H :   -0.008074   -0.000069
  27 H :    0.029204   -0.000073
  28 H :   -0.009592   -0.000231
  29 H :   -0.047447   -0.000078

  Mayer bond orders larger than 0.100000
B(  0-O , 14-C ) :   1.2387 B(  1-O , 15-C ) :   1.2686 B(  2-O , 16-C ) :   1.5124
B(  3-O , 17-C ) :   1.6234 B(  4-N ,  8-C ) :   0.2928 B(  4-N ,  9-C ) :   0.1001
B(  4-N , 10-C ) :   0.2645 B(  4-N , 16-C ) :   1.0795 B(  4-N , 18-H ) :  -0.1058
B(  4-N , 26-H ) :   1.0490 B(  5-N , 10-C ) :   0.1157 B(  5-N , 11-C ) :   0.4460
B(  5-N , 17-C ) :   1.1090 B(  5-N , 27-H ) :   1.1241 B(  6-N , 10-C ) :   0.1068
B(  6-N , 14-C ) :   1.0740 B(  6-N , 16-C ) :   0.9289 B(  6-N , 28-H ) :   1.1108
B(  7-N ,  9-C ) :  -0.1056 B(  7-N , 11-C ) :   0.1209 B(  7-N , 15-C ) :   1.0393
B(  7-N , 17-C ) :   0.9251 B(  7-N , 29-H ) :   1.1296 B(  8-C , 10-C ) :   0.2601
B(  8-C , 11-C ) :   0.1205 B(  8-C , 12-C ) :   0.3981 B(  8-C , 14-C ) :   0.8101
B(  8-C , 18-H ) :  -0.1582 B(  8-C , 21-H ) :  -0.1126 B(  9-C , 10-C ) :   0.1914
B(  9-C , 11-C ) :   0.5135 B(  9-C , 13-C ) :   0.3193 B(  9-C , 15-C ) :   0.8097
B(  9-C , 19-H ) :  -0.2013 B(  9-C , 24-H ) :  -0.1791 B( 10-C , 11-C ) :   0.4857
B( 10-C , 13-C ) :  -0.1148 B( 10-C , 14-C ) :  -0.2460 B( 10-C , 18-H ) :   0.6846
B( 11-C , 17-C ) :  -0.1126 B( 11-C , 19-H ) :   0.5622 B( 11-C , 27-H ) :  -0.1081
B( 12-C , 20-H ) :   0.8905 B( 12-C , 21-H ) :   1.0239 B( 12-C , 22-H ) :   0.9090
B( 13-C , 14-C ) :   0.1112 B( 13-C , 23-H ) :   0.8757 B( 13-C , 24-H ) :   1.0790
B( 13-C , 25-H ) :   1.0096

Dispersion correction           -0.058822320
FINAL SINGLE POINT ENERGY      -908.768563822592

DIPOLE MOMENT
-------------

Method             : TDA/CIS
Type of density    : Electron Density
Level              : Relaxed density
State              :   2
Multiplicity       :   3
Irrep              :   0
Energy             :     0.0000000000000000 Eh
Relativity type    :
Basis              : AO
                                X                 Y                 Z
Electronic contribution:    -10.177935223      -2.781691074       0.303607883
Nuclear contribution   :     12.418503262       3.435066798       1.066402688
                        -----------------------------------------
Total Dipole Moment    :      2.240568039       0.653375724       1.370010571
                        -----------------------------------------
Magnitude (a.u.)       :      2.706284157
Magnitude (Debye)      :      6.878827657

Rotational constants in cm-1:             0.023430             0.011554             0.010589
Rotational constants in MHz :           702.420388           346.378669           317.435989

                             ****ORCA TERMINATED NORMALLY****
TOTAL RUN TIME: 0 days 0 hours 4 minutes 59 seconds 206 msec
