                         Program Version 6.0.0  -   RELEASE  -
|  1> ! EnGrad wB97M-D3BJ def2-TZVPPD
|  2> %pal nprocs 8 end%pal nprocs 16 end
|  3> %tddft
|  4>  sf true
|  5>  nroots 2 Iroot 2 end
|  6> *xyz 0 3
|  7> O   0.03865170457021 0.80652673777582 -6.306565825e-05
|  8> C   0.71035895207283 -0.41599233485268 0.00017932186809
|  9> C   -0.728024099612 -0.47685067203322 -0.00021295130844
| 10> H   1.25116550472761 -0.65425571100133 0.9107571161915
| 11> H   1.25077369483586 -0.65491143185282 -0.91052295742097
| 12> H   -1.26062092912046 -0.6612756753803 -0.92119685943286
| 13> H   -1.26010482747406 -0.66164091265547 0.92105939576092
| 14> *
| 15>
| 16>                          ****END OF INPUT****

CARTESIAN COORDINATES (ANGSTROEM)
---------------------------------
  O      0.038652    0.806527   -0.000063
  C      0.710359   -0.415992    0.000179
  C     -0.728024   -0.476851   -0.000213
  H      1.251166   -0.654256    0.910757
  H      1.250774   -0.654911   -0.910523
  H     -1.260621   -0.661276   -0.921197
  H     -1.260105   -0.661641    0.921059

 Total Charge           Charge          ....    0
 Multiplicity           Mult            ....    3
 Number of Electrons    NEL             ....   24
 Basis Dimension        Dim             ....  182

ORBITAL ENERGIES
----------------
                 SPIN UP ORBITALS
  NO   OCC          E(Eh)            E(eV)
   0   1.0000     -19.488067      -530.2973
   1   1.0000     -10.432586      -283.8851
   2   1.0000     -10.388867      -282.6955
   3   1.0000      -1.313850       -35.7517
   4   1.0000      -0.871523       -23.7154
   5   1.0000      -0.793979       -21.6053
   6   1.0000      -0.700926       -19.0732
   7   1.0000      -0.663170       -18.0458
   8   1.0000      -0.586058       -15.9474
   9   1.0000      -0.518988       -14.1224
  10   1.0000      -0.509451       -13.8629
  11   1.0000      -0.481017       -13.0891
  12   1.0000      -0.131723        -3.5844
  13   0.0000       0.034448         0.9374
  14   0.0000       0.058378         1.5885
  15   0.0000       0.068928         1.8756
  16   0.0000       0.086495         2.3536
  17   0.0000       0.105973         2.8837

                 SPIN DOWN ORBITALS
  NO   OCC          E(Eh)            E(eV)
   0   1.0000     -19.455751      -529.4179
   1   1.0000     -10.432462      -283.8817
   2   1.0000     -10.382458      -282.5211
   3   1.0000      -1.248262       -33.9669
   4   1.0000      -0.838922       -22.8282
   5   1.0000      -0.776501       -21.1297
   6   1.0000      -0.643263       -17.5041
   7   1.0000      -0.632440       -17.2096
   8   1.0000      -0.548753       -14.9323
   9   1.0000      -0.495847       -13.4927
  10   1.0000      -0.456217       -12.4143
  11   0.0000      -0.130608        -3.5540
  12   0.0000       0.032938         0.8963
  13   0.0000       0.056033         1.5247
  14   0.0000       0.064255         1.7485
  15   0.0000       0.068786         1.8718

----------------------------------------------------------------------------------------------------
          SPIN FLIP ABSORPTION SPECTRUM VIA TRANSITION ELECTRIC DIPOLE MOMENTS
----------------------------------------------------------------------------------------------------
     Transition      Energy     Energy  Wavelength fosc(D2)      D2        DX        DY        DZ
                      (eV)      (cm-1)    (nm)                 (au**2)    (au)      (au)      (au)
----------------------------------------------------------------------------------------------------
  1-3A  ->  2-3A    6.727482   54260.8   184.3   0.000593117   0.00360   0.00004  -0.00008   0.05999

Dispersion correction             ... done (  0.0 sec)

MULLIKEN ATOMIC CHARGES AND SPIN DENSITIES
------------------------------------------
   0 O :    0.650915    1.256434
   1 C :   -1.476812   -1.592205
   2 C :   -2.062756   -1.687864
   3 H :    0.564500    0.403713
   4 H :    0.564714    0.404107
   5 H :    0.879288    0.607683
   6 H :    0.880151    0.608132
Sum of atomic charges       :    0.0000000

LOEWDIN ATOMIC CHARGES AND SPIN DENSITIES
-----------------------------------------
   0 O :    0.335736    0.567314
   1 C :   -0.174780   -0.198870
   2 C :   -0.131056   -0.198294
   3 H :    0.010352   -0.029819
   4 H :    0.010418   -0.029729
   5 H :   -0.025308   -0.055270
   6 H :   -0.025361   -0.055331

  Mayer bond orders larger than 0.100000
B(  0-O ,  1-C ) :  -0.3347 B(  0-O ,  2-C ) :  -0.8909 B(  0-O ,  3-H ) :   0.2889
B(  0-O ,  4-H ) :   0.2889 B(  0-O ,  5-H ) :   0.5458 B(  0-O ,  6-H ) :   0.5461
B(  1-C ,  2-C ) :   7.0059 B(  1-C ,  3-H ) :   0.1502 B(  1-C ,  4-H ) :   0.1499
B(  1-C ,  5-H ) :  -2.1133 B(  1-C ,  6-H ) :  -2.1143 B(  2-C ,  3-H ) :  -1.5877
B(  2-C ,  4-H ) :  -1.5885 B(  2-C ,  5-H ) :  -1.1433 B(  2-C ,  6-H ) :  -1.1453
B(  3-H ,  4-H ) :   0.2498 B(  3-H ,  5-H ) :   0.4424 B(  3-H ,  6-H ) :   0.5782
B(  4-H ,  5-H ) :   0.5783 B(  4-H ,  6-H ) :   0.4427 B(  5-H ,  6-H ) :   0.7177

Dispersion correction           -0.005233665
FINAL SINGLE POINT ENERGY      -153.626457887725

DIPOLE MOMENT
-------------

Method             : TDA/CIS
Type of density    : Electron Density
Level              : Relaxed density
State              :   2
Multiplicity       :   3
Irrep              :   0
Energy             :     0.0000000000000000 Eh
Relativity type    :
Basis              : AO
                                X                 Y                 Z
Electronic contribution:      0.413095073       2.389749304      -0.001646755
Nuclear contribution   :     -0.050174014      -2.416940034       0.000202283
                        -----------------------------------------
Total Dipole Moment    :      0.362921059      -0.027190730      -0.001444471
                        -----------------------------------------
Magnitude (a.u.)       :      0.363941090
Magnitude (Debye)      :      0.925064735

Rotational constants in cm-1:             0.851999             0.741290             0.471380
Rotational constants in MHz :         25542.273183         22223.322494         14131.628050

                             ****ORCA TERMINATED NORMALLY****
TOTAL RUN TIME: 0 days 0 hours 0 minutes 19 seconds 976 msec
