                         Program Version 6.0.0  -   RELEASE  -
|  1> ! SP wB97M-D3BJ def2-TZVPPD
|  2> %pal nprocs 8 end
|  3> *xyz 0 1
|  4> O   0.0 0.0 0.0
|  5> *
|  6>
|  7>                          ****END OF INPUT****

CARTESIAN COORDINATES (ANGSTROEM)
---------------------------------
  O      0.000000    0.000000    0.000000

 Total Charge           Charge          ....    0
 Multiplicity           Mult            ....    1
 Number of Electrons    NEL             ....    8
 Basis Dimension        Dim             ....   40

ORBITAL ENERGIES
----------------

  NO   OCC          E(Eh)            E(eV)
   0   2.0000     -19.492929      -530.4296
   1   2.0000      -1.085953       -29.5503
   2   2.0000      -0.489776       -13.3275
   3   2.0000      -0.489775       -13.3275
   4   0.0000      -0.179656        -4.8887
   5   0.0000       0.095775         2.6062
   6   0.0000       0.100122         2.7245
   7   0.0000       0.104636         2.8473
   8   0.0000       0.104636         2.8473

MULLIKEN ATOMIC CHARGES
-----------------------
   0 O :    0.000000
Sum of atomic charges:    0.0000000

LOEWDIN ATOMIC CHARGES
----------------------
   0 O :   -0.000000

Dispersion correction            0.000000000
FINAL SINGLE POINT ENERGY       -75.018966922874

DIPOLE MOMENT
-------------

Method             : SCF
Type of density    : Electron Density
Multiplicity       :   1
Irrep              :   0
Energy             :   -75.0189669228744691 Eh
Relativity type    :
Basis              : AO
                                X                 Y                 Z
Electronic contribution:      0.000000047       0.000000026      -0.000000008
Nuclear contribution   :      0.000000000       0.000000000       0.000000000
                        -----------------------------------------
Total Dipole Moment    :      0.000000047       0.000000026      -0.000000008
                        -----------------------------------------
Magnitude (a.u.)       :      0.000000054
Magnitude (Debye)      :      0.000000138

Rotational constants in cm-1:             0.000000             0.000000             0.000000
Rotational constants in MHz :             0.000000             0.000000             0.000000

                             ****ORCA TERMINATED NORMALLY****
TOTAL RUN TIME: 0 days 0 hours 0 minutes 2 seconds 211 msec
