                         Program Version 6.0.0  -   RELEASE  -
|  1> ! Engrad def2-TZVPPD wB97M-D3BJ
|  2> %pal nprocs 8 end%pal nprocs 64 end
|  3>  %tddft nroots 2 Iroot 1
|  4> sf true
|  5> end
|  6> *xyz 0 3
|  7> O   2.68450384375528 1.16334450604113 -0.60928585935998
|  8> O   -0.51599338301611 0.78539196182546 -2.16347635353284
|  9> O   0.87535863498584 -2.91672105333379 -1.47087462156642
| 10> O   -2.69030355178972 -1.64370398729875 0.99699983170258
| 11> N   0.58883465342968 -2.00384097777881 0.59625306124665
| 12> N   -2.05981639970697 0.48888990268011 1.48976785121639
| 13> N   1.80956408237773 -0.8871126187251 -1.00120733292369
| 14> N   -1.67852653137977 -0.37362506621387 -0.60684253488039
| 15> C   1.25925490398115 0.24539088319582 1.05308001258586
| 16> C   -0.71472017891046 1.75418864987108 -0.00377935499741
| 17> C   0.67821722732583 -0.90724788003683 1.42153138599964
| 18> C   -1.38414926716345 1.6373958888152 1.14796743524331
| 19> C   1.54233049992841 1.34370683177985 2.03058945830481
| 20> C   -0.01298810070864 3.00689138968971 -0.42625187258095
| 21> C   1.97724728143837 0.25609189103689 -0.22542335711433
| 22> C   -0.92862047520753 0.72740618961945 -1.02716121793007
| 23> C   1.07257449903613 -2.01047153002166 -0.69431453371533
| 24> C   -2.18535324181986 -0.59658809763588 0.65075741624855
| 25> H   0.2388855554198 -1.04049592446081 2.39813633252784
| 26> H   -1.37402029860168 2.40893347729601 1.90197175569562
| 27> H   1.40579458293143 2.32275372422323 1.58486405400108
| 28> H   0.89732875518273 1.25511523612408 2.90253438841058
| 29> H   2.57773534118051 1.28966793300666 2.36395452179679
| 30> H   -0.48751809618466 3.41599580531931 -1.31603912102966
| 31> H   -0.04949872232207 3.75254764208195 0.36501817506124
| 32> H   1.02523045091694 2.80751816563172 -0.67866039647037
| 33> H   -0.01611077062574 -2.77066492184062 0.83542192364638
| 34> H   -2.48682604817266 0.38491308756761 2.39238673333408
| 35> H   2.18395870258875 -0.85074444526309 -1.93628085502901
| 36> H   -1.77977394886926 -1.1299266631961 -1.26703692589095
| 37> *
| 38>
| 39>                          ****END OF INPUT****

CARTESIAN COORDINATES (ANGSTROEM)
---------------------------------
  O      2.684504    1.163345   -0.609286
  O     -0.515993    0.785392   -2.163476
  O      0.875359   -2.916721   -1.470875
  O     -2.690304   -1.643704    0.997000
  N      0.588835   -2.003841    0.596253
  N     -2.059816    0.488890    1.489768
  N      1.809564   -0.887113   -1.001207
  N     -1.678527   -0.373625   -0.606843
  C      1.259255    0.245391    1.053080
  C     -0.714720    1.754189   -0.003779
  C      0.678217   -0.907248    1.421531
  C     -1.384149    1.637396    1.147967
  C      1.542330    1.343707    2.030589
  C     -0.012988    3.006891   -0.426252
  C      1.977247    0.256092   -0.225423
  C     -0.928620    0.727406   -1.027161
  C      1.072574   -2.010472   -0.694315
  C     -2.185353   -0.596588    0.650757
  H      0.238886   -1.040496    2.398136
  H     -1.374020    2.408933    1.901972
  H      1.405795    2.322754    1.584864
  H      0.897329    1.255115    2.902534
  H      2.577735    1.289668    2.363955
  H     -0.487518    3.415996   -1.316039
  H     -0.049499    3.752548    0.365018
  H      1.025230    2.807518   -0.678660
  H     -0.016111   -2.770665    0.835422
  H     -2.486826    0.384913    2.392387
  H      2.183959   -0.850744   -1.936281
  H     -1.779774   -1.129927   -1.267037

 Total Charge           Charge          ....    0
 Multiplicity           Mult            ....    3
 Number of Electrons    NEL             ....  132
 Basis Dimension        Dim             ....  882

ORBITAL ENERGIES
----------------
                 SPIN UP ORBITALS
  NO   OCC          E(Eh)            E(eV)
   0   1.0000     -19.339190      -526.2461
   1   1.0000     -19.322480      -525.7914
   2   1.0000     -19.321855      -525.7744
   3   1.0000     -19.319045      -525.6979
   4   1.0000     -14.594015      -397.1233
   5   1.0000     -14.580477      -396.7550
   6   1.0000     -14.563892      -396.3036
   7   1.0000     -14.557045      -396.1173
   8   1.0000     -10.516567      -286.1703
   9   1.0000     -10.507883      -285.9340
  10   1.0000     -10.477964      -285.1199
  11   1.0000     -10.459885      -284.6279
  12   1.0000     -10.434218      -283.9295
  13   1.0000     -10.406777      -283.1828
  14   1.0000     -10.403185      -283.0850
  15   1.0000     -10.385148      -282.5942
  16   1.0000     -10.362805      -281.9863
  17   1.0000     -10.359796      -281.9044
  18   1.0000      -1.232451       -33.5367
  19   1.0000      -1.221708       -33.2444
  20   1.0000      -1.193264       -32.4704
  21   1.0000      -1.190865       -32.4051
  22   1.0000      -1.129703       -30.7408
  23   1.0000      -1.120504       -30.4905
  24   1.0000      -1.067144       -29.0385
  25   1.0000      -1.065049       -28.9815
  26   1.0000      -0.979321       -26.6487
  27   1.0000      -0.958289       -26.0764
  28   1.0000      -0.855681       -23.2843
  29   1.0000      -0.851563       -23.1722
  30   1.0000      -0.815082       -22.1795
  31   1.0000      -0.809054       -22.0155
  32   1.0000      -0.794051       -21.6072
  33   1.0000      -0.790729       -21.5168
  34   1.0000      -0.704110       -19.1598
  35   1.0000      -0.697098       -18.9690
  36   1.0000      -0.694752       -18.9052
  37   1.0000      -0.690011       -18.7761
  38   1.0000      -0.648656       -17.6508
  39   1.0000      -0.638641       -17.3783
  40   1.0000      -0.636725       -17.3262
  41   1.0000      -0.602058       -16.3828
  42   1.0000      -0.598742       -16.2926
  43   1.0000      -0.594354       -16.1732
  44   1.0000      -0.581593       -15.8259
  45   1.0000      -0.574196       -15.6247
  46   1.0000      -0.562263       -15.3000
  47   1.0000      -0.553285       -15.0557
  48   1.0000      -0.551366       -15.0034
  49   1.0000      -0.543734       -14.7958
  50   1.0000      -0.529653       -14.4126
  51   1.0000      -0.523771       -14.2525
  52   1.0000      -0.520986       -14.1768
  53   1.0000      -0.519029       -14.1235
  54   1.0000      -0.507588       -13.8122
  55   1.0000      -0.502337       -13.6693
  56   1.0000      -0.494612       -13.4591
  57   1.0000      -0.477006       -12.9800
  58   1.0000      -0.426350       -11.6016
  59   1.0000      -0.414196       -11.2708
  60   1.0000      -0.409566       -11.1449
  61   1.0000      -0.396277       -10.7833
  62   1.0000      -0.394400       -10.7322
  63   1.0000      -0.387881       -10.5548
  64   1.0000      -0.383424       -10.4335
  65   1.0000      -0.345080        -9.3901
  66   1.0000      -0.210000        -5.7144
  67   0.0000       0.011342         0.3086
  68   0.0000       0.018207         0.4954
  69   0.0000       0.032339         0.8800
  70   0.0000       0.038765         1.0548
  71   0.0000       0.041039         1.1167

                 SPIN DOWN ORBITALS
  NO   OCC          E(Eh)            E(eV)
   0   1.0000     -19.337484      -526.1997
   1   1.0000     -19.322504      -525.7921
   2   1.0000     -19.321594      -525.7673
   3   1.0000     -19.313570      -525.5490
   4   1.0000     -14.589896      -397.0112
   5   1.0000     -14.579793      -396.7363
   6   1.0000     -14.563921      -396.3044
   7   1.0000     -14.556200      -396.0943
   8   1.0000     -10.516812      -286.1770
   9   1.0000     -10.507893      -285.9343
  10   1.0000     -10.477903      -285.1182
  11   1.0000     -10.459384      -284.6143
  12   1.0000     -10.432602      -283.8855
  13   1.0000     -10.397512      -282.9307
  14   1.0000     -10.392545      -282.7955
  15   1.0000     -10.385562      -282.6055
  16   1.0000     -10.362661      -281.9823
  17   1.0000     -10.360163      -281.9144
  18   1.0000      -1.228722       -33.4352
  19   1.0000      -1.221151       -33.2292
  20   1.0000      -1.191862       -32.4322
  21   1.0000      -1.184058       -32.2199
  22   1.0000      -1.120904       -30.5013
  23   1.0000      -1.118227       -30.4285
  24   1.0000      -1.065472       -28.9930
  25   1.0000      -1.061334       -28.8804
  26   1.0000      -0.965073       -26.2610
  27   1.0000      -0.947738       -25.7893
  28   1.0000      -0.850230       -23.1359
  29   1.0000      -0.844363       -22.9763
  30   1.0000      -0.811636       -22.0857
  31   1.0000      -0.802253       -21.8304
  32   1.0000      -0.790414       -21.5083
  33   1.0000      -0.787196       -21.4207
  34   1.0000      -0.695424       -18.9235
  35   1.0000      -0.692839       -18.8531
  36   1.0000      -0.691361       -18.8129
  37   1.0000      -0.685702       -18.6589
  38   1.0000      -0.639482       -17.4012
  39   1.0000      -0.634669       -17.2702
  40   1.0000      -0.630432       -17.1549
  41   1.0000      -0.596782       -16.2393
  42   1.0000      -0.591277       -16.0895
  43   1.0000      -0.590125       -16.0581
  44   1.0000      -0.570396       -15.5213
  45   1.0000      -0.567766       -15.4497
  46   1.0000      -0.561290       -15.2735
  47   1.0000      -0.551619       -15.0103
  48   1.0000      -0.545247       -14.8369
  49   1.0000      -0.529849       -14.4179
  50   1.0000      -0.522688       -14.2231
  51   1.0000      -0.521998       -14.2043
  52   1.0000      -0.514037       -13.9877
  53   1.0000      -0.507140       -13.8000
  54   1.0000      -0.504712       -13.7339
  55   1.0000      -0.497075       -13.5261
  56   1.0000      -0.471715       -12.8360
  57   1.0000      -0.455834       -12.4039
  58   1.0000      -0.422387       -11.4937
  59   1.0000      -0.413462       -11.2509
  60   1.0000      -0.398494       -10.8436
  61   1.0000      -0.387543       -10.5456
  62   1.0000      -0.384235       -10.4556
  63   1.0000      -0.380586       -10.3563
  64   1.0000      -0.345393        -9.3986
  65   0.0000      -0.107026        -2.9123
  66   0.0000       0.010702         0.2912
  67   0.0000       0.022533         0.6131
  68   0.0000       0.030073         0.8183
  69   0.0000       0.036746         0.9999

----------------------------------------------------------------------------------------------------
          SPIN FLIP ABSORPTION SPECTRUM VIA TRANSITION ELECTRIC DIPOLE MOMENTS
----------------------------------------------------------------------------------------------------
     Transition      Energy     Energy  Wavelength fosc(D2)      D2        DX        DY        DZ
                      (eV)      (cm-1)    (nm)                 (au**2)    (au)      (au)      (au)
----------------------------------------------------------------------------------------------------
  1-3A  ->  2-3A    4.040020   32585.0   306.9   0.000900465   0.00910   0.02944  -0.05610  -0.07130

Dispersion correction             ... done (  0.1 sec)

MULLIKEN ATOMIC CHARGES AND SPIN DENSITIES
------------------------------------------
   0 O :   -0.680951   -0.000661
   1 O :   -0.675394    0.032182
   2 O :   -0.655847    0.001105
   3 O :   -0.662847    0.004590
   4 N :   -0.053925    0.002651
   5 N :    0.031814    0.054481
   6 N :    0.043427   -0.000392
   7 N :    0.011132    0.002457
   8 C :    1.078080   -0.024823
   9 C :    0.645073    0.431172
  10 C :   -0.069072    0.042379
  11 C :    0.148218   -0.343814
  12 C :   -1.555505   -0.021486
  13 C :   -1.602949   -0.025336
  14 C :    0.164013    0.003081
  15 C :    0.441207   -0.228192
  16 C :    0.454588    0.000499
  17 C :    0.425839    0.010368
  18 H :    0.206176   -0.001638
  19 H :    0.227713    0.032276
  20 H :    0.267987    0.001827
  21 H :    0.335151    0.005900
  22 H :    0.389456   -0.001516
  23 H :    0.377649   -0.000046
  24 H :    0.349754    0.013300
  25 H :    0.254080    0.008818
  26 H :    0.049483   -0.000497
  27 H :    0.025922   -0.000473
  28 H :    0.017309    0.000050
  29 H :    0.012418    0.001739
Sum of atomic charges       :   -0.0000000

LOEWDIN ATOMIC CHARGES AND SPIN DENSITIES
-----------------------------------------
   0 O :    0.093312    0.000320
   1 O :    0.098654    0.025587
   2 O :    0.089004    0.001062
   3 O :    0.080750    0.003698
   4 N :    0.281399    0.003678
   5 N :    0.294519    0.019985
   6 N :    0.346591    0.000263
   7 N :    0.345205   -0.000528
   8 C :   -0.154222   -0.000084
   9 C :   -0.158748   -0.042236
  10 C :    0.038664    0.007873
  11 C :    0.040381   -0.026581
  12 C :    0.181543   -0.001060
  13 C :    0.184024   -0.003192
  14 C :   -0.397251   -0.000207
  15 C :   -0.407665    0.008945
  16 C :   -0.478285    0.000456
  17 C :   -0.490580   -0.000136
  18 H :    0.040449    0.001020
  19 H :    0.040099   -0.000927
  20 H :   -0.021223   -0.000289
  21 H :   -0.003140    0.000043
  22 H :    0.008740   -0.000228
  23 H :    0.007243   -0.000068
  24 H :   -0.002675    0.000325
  25 H :   -0.019473   -0.000231
  26 H :   -0.019201    0.000269
  27 H :   -0.014914    0.001987
  28 H :   -0.001090    0.000131
  29 H :   -0.002110    0.000125

  Mayer bond orders larger than 0.100000
B(  0-O , 14-C ) :   1.3983 B(  1-O , 15-C ) :   1.3708 B(  2-O , 16-C ) :   1.5628
B(  3-O , 17-C ) :   1.5550 B(  4-N , 10-C ) :   0.8217 B(  4-N , 16-C ) :   1.0176
B(  4-N , 26-H ) :   1.1252 B(  5-N , 11-C ) :   0.9771 B(  5-N , 17-C ) :   1.0130
B(  5-N , 27-H ) :   1.1276 B(  6-N ,  8-C ) :  -0.1192 B(  6-N , 14-C ) :   1.0852
B(  6-N , 16-C ) :   0.9298 B(  6-N , 28-H ) :   1.1068 B(  7-N , 15-C ) :   0.9609
B(  7-N , 17-C ) :   0.9550 B(  7-N , 29-H ) :   1.1235 B(  8-C , 10-C ) :   1.0022
B(  8-C , 12-C ) :   0.3301 B(  8-C , 14-C ) :   0.5664 B(  8-C , 15-C ) :  -0.1487
B(  8-C , 18-H ) :  -0.1288 B(  8-C , 20-H ) :  -0.1220 B(  8-C , 21-H ) :  -0.1050
B(  9-C , 11-C ) :   1.0388 B(  9-C , 13-C ) :   0.4493 B(  9-C , 15-C ) :   0.6645
B(  9-C , 24-H ) :  -0.1207 B( 10-C , 12-C ) :  -0.1966 B( 10-C , 18-H ) :   1.1784
B( 11-C , 13-C ) :  -0.2941 B( 11-C , 19-H ) :   1.0970 B( 12-C , 20-H ) :   1.0132
B( 12-C , 21-H ) :   1.0508 B( 12-C , 22-H ) :   0.8266 B( 13-C , 23-H ) :   0.8326
B( 13-C , 24-H ) :   1.0634 B( 13-C , 25-H ) :   0.9526 B( 14-C , 15-C ) :   0.1155

Dispersion correction           -0.062565253
FINAL SINGLE POINT ENERGY      -908.912878528991

DIPOLE MOMENT
-------------

Method             : TDA/CIS
Type of density    : Electron Density
Level              : Relaxed density
State              :   1
Multiplicity       :   3
Irrep              :   0
Energy             :     0.0000000000000000 Eh
Relativity type    :
Basis              : AO
                                X                 Y                 Z
Electronic contribution:     -2.554910661     -10.215088705      -5.834741177
Nuclear contribution   :      1.789726912      11.202411401       8.391828094
                        -----------------------------------------
Total Dipole Moment    :     -0.765183749       0.987322696       2.557086917
                        -----------------------------------------
Magnitude (a.u.)       :      2.845875221
Magnitude (Debye)      :      7.233639946

Rotational constants in cm-1:             0.018033             0.017078             0.013119
Rotational constants in MHz :           540.611882           511.992018           393.289020

                             ****ORCA TERMINATED NORMALLY****
TOTAL RUN TIME: 0 days 0 hours 6 minutes 25 seconds 304 msec
