                         Program Version 6.0.0  -   RELEASE  -
|  1> ! Engrad def2-TZVPPD wB97M-D3BJ
|  2> %pal nprocs 8 end%pal nprocs 64 end
|  3> %tddft
|  4>  Iroot 2 Nroots 3
|  5> sf true
|  6> end
|  7> *xyz 0 3
|  8> O   0.43842981 1.1277049 0.6809139
|  9> C   0.41266525 -0.27237481 0.42822172
| 10> C   0.35841803 -0.73434117 -0.97911965
| 11> H   -0.44134879 -0.69004779 1.0954102
| 12> H   1.34610692 -0.71493928 0.8330209
| 13> H   -0.50752991 -1.28042132 -1.36130748
| 14> H   1.18086565 -0.37526495 -1.65578762
| 15> *
| 16>
| 17>                          ****END OF INPUT****

CARTESIAN COORDINATES (ANGSTROEM)
---------------------------------
  O      0.438430    1.127705    0.680914
  C      0.412665   -0.272375    0.428222
  C      0.358418   -0.734341   -0.979120
  H     -0.441349   -0.690048    1.095410
  H      1.346107   -0.714939    0.833021
  H     -0.507530   -1.280421   -1.361307
  H      1.180866   -0.375265   -1.655788

 Total Charge           Charge          ....    0
 Multiplicity           Mult            ....    3
 Number of Electrons    NEL             ....   24
 Basis Dimension        Dim             ....  182

ORBITAL ENERGIES
----------------
                 SPIN UP ORBITALS
  NO   OCC          E(Eh)            E(eV)
   0   1.0000     -19.392434      -527.6950
   1   1.0000     -10.420478      -283.5556
   2   1.0000     -10.376321      -282.3541
   3   1.0000      -1.150059       -31.2947
   4   1.0000      -0.880205       -23.9516
   5   1.0000      -0.725494       -19.7417
   6   1.0000      -0.610316       -16.6075
   7   1.0000      -0.571337       -15.5469
   8   1.0000      -0.548583       -14.9277
   9   1.0000      -0.517490       -14.0816
  10   1.0000      -0.439914       -11.9707
  11   1.0000      -0.414396       -11.2763
  12   1.0000      -0.330432        -8.9915
  13   0.0000       0.040597         1.1047
  14   0.0000       0.060758         1.6533
  15   0.0000       0.075932         2.0662
  16   0.0000       0.087992         2.3944
  17   0.0000       0.113463         3.0875

                 SPIN DOWN ORBITALS
  NO   OCC          E(Eh)            E(eV)
   0   1.0000     -19.367647      -527.0205
   1   1.0000     -10.421928      -283.5951
   2   1.0000     -10.363180      -281.9965
   3   1.0000      -1.092129       -29.7183
   4   1.0000      -0.847849       -23.0712
   5   1.0000      -0.698993       -19.0206
   6   1.0000      -0.582525       -15.8513
   7   1.0000      -0.537017       -14.6130
   8   1.0000      -0.524752       -14.2792
   9   1.0000      -0.483178       -13.1480
  10   1.0000      -0.384656       -10.4670
  11   0.0000      -0.053414        -1.4535
  12   0.0000      -0.006355        -0.1729
  13   0.0000       0.039840         1.0841
  14   0.0000       0.061167         1.6645
  15   0.0000       0.076112         2.0711

----------------------------------------------------------------------------------------------------
          SPIN FLIP ABSORPTION SPECTRUM VIA TRANSITION ELECTRIC DIPOLE MOMENTS
----------------------------------------------------------------------------------------------------
     Transition      Energy     Energy  Wavelength fosc(D2)      D2        DX        DY        DZ
                      (eV)      (cm-1)    (nm)                 (au**2)    (au)      (au)      (au)
----------------------------------------------------------------------------------------------------
  1-3A  ->  2-3A    0.139342    1123.9  8897.8   0.000209853   0.06147  -0.05897  -0.14221  -0.19435
  1-3A  ->  3-3A    0.826928    6669.6  1499.3   0.008482486   0.41869   0.05827   0.52349   0.37585

Dispersion correction             ... done (  0.1 sec)

MULLIKEN ATOMIC CHARGES AND SPIN DENSITIES
------------------------------------------
   0 O :   -0.313759   -0.147391
   1 C :   -0.050100    0.019783
   2 C :   -0.437258    0.149750
   3 H :    0.216665   -0.046854
   4 H :    0.176661    0.050189
   5 H :    0.199657   -0.007370
   6 H :    0.208134   -0.018107
Sum of atomic charges       :   -0.0000000

LOEWDIN ATOMIC CHARGES AND SPIN DENSITIES
-----------------------------------------
   0 O :    0.006874   -0.147843
   1 C :   -0.270337    0.005264
   2 C :    0.266060    0.126033
   3 H :    0.048062   -0.038656
   4 H :    0.022952    0.035539
   5 H :   -0.052485    0.011341
   6 H :   -0.021126    0.008323

  Mayer bond orders larger than 0.100000
B(  0-O ,  1-C ) :   0.8799 B(  0-O ,  2-C ) :   0.1542 B(  1-C ,  2-C ) :   0.7864
B(  1-C ,  3-H ) :   0.9923 B(  1-C ,  4-H ) :   0.9608 B(  2-C ,  5-H ) :   0.9700
B(  2-C ,  6-H ) :   0.9820

Dispersion correction           -0.005439029
FINAL SINGLE POINT ENERGY      -153.744196442865

DIPOLE MOMENT
-------------

Method             : TDA/CIS
Type of density    : Electron Density
Level              : Relaxed density
State              :   2
Multiplicity       :   3
Irrep              :   0
Energy             :     0.0000000000000000 Eh
Relativity type    :
Basis              : AO
                                X                 Y                 Z
Electronic contribution:      0.093653321       2.227693291       1.010346273
Nuclear contribution   :     -0.040973818      -3.099821650      -1.283225377
                        -----------------------------------------
Total Dipole Moment    :      0.052679503      -0.872128358      -0.272879104
                        -----------------------------------------
Magnitude (a.u.)       :      0.915339286
Magnitude (Debye)      :      2.326607567

Rotational constants in cm-1:             1.462018             0.322358             0.291084
Rotational constants in MHz :         43830.183594          9664.052227          8726.463887

                             ****ORCA TERMINATED NORMALLY****
TOTAL RUN TIME: 0 days 0 hours 0 minutes 27 seconds 70 msec
