                         Program Version 6.0.0  -   RELEASE  -
|  1> ! Opt wB97M-D3BJ def2-TZVPPD
|  2> %pal nprocs 8 end %pal nprocs 64 end
|  3> %geom
|  4> Constraints
|  5>     {A 2 1 0 97.27272727272728 C }
|  6> end
|  7> MaxIter 500
|  8> end
|  9> *xyz 0 1
| 10> O   -0.0007 0.8141 0.0
| 11> C   0.7509 -0.4065 0.0
| 12> C   -0.7502 -0.4076 0.0
| 13> H   1.2625 -0.6786 0.9136
| 14> H   1.2625 -0.6787 -0.9136
| 15> H   -1.2614 -0.6806 -0.9136
| 16> H   -1.2614 -0.6805 0.9136
| 17> *
| 18>
| 19>                          ****END OF INPUT****
 Total Charge           Charge          ....    0
 Multiplicity           Mult            ....    1
 Number of Electrons    NEL             ....   24
Dispersion correction           -0.005759306
FINAL SINGLE POINT ENERGY      -153.758214390793
Dispersion correction             ... done (  0.2 sec)
Dispersion correction           -0.005692989
FINAL SINGLE POINT ENERGY      -153.790319639585
Dispersion correction             ... done (  0.1 sec)
Dispersion correction           -0.005654038
FINAL SINGLE POINT ENERGY      -153.800150211934
Dispersion correction             ... done (  0.1 sec)
FINAL SINGLE POINT ENERGY      -153.804142522359
FINAL SINGLE POINT ENERGY      -153.805094952697
FINAL SINGLE POINT ENERGY      -153.805333403463
FINAL SINGLE POINT ENERGY      -153.805468237665
FINAL SINGLE POINT ENERGY      -153.805552683232
FINAL SINGLE POINT ENERGY      -153.805610074257
FINAL SINGLE POINT ENERGY      -153.805654493177
FINAL SINGLE POINT ENERGY      -153.805676853860
Dispersion correction             ... done (  0.2 sec)
Dispersion correction           -0.005667165
FINAL SINGLE POINT ENERGY      -153.805684699787
Dispersion correction             ... done (  0.1 sec)
Dispersion correction           -0.005666710
FINAL SINGLE POINT ENERGY      -153.805687243258
Dispersion correction             ... done (  0.2 sec)
                    ***********************HURRAY********************

CARTESIAN COORDINATES (ANGSTROEM)
---------------------------------
  O      0.376275    1.032807   -0.002665
  C      0.622454   -0.282920   -0.000581
  C     -0.742613   -0.723048    0.000650
  H      1.176214   -0.631558    0.883302
  H      1.176512   -0.634276   -0.883143
  H     -1.304185   -0.741779   -0.922904
  H     -1.302457   -0.737627    0.925340

 Multiplicity           Mult            ....    1
 Number of Electrons    NEL             ....   24
 Basis Dimension        Dim             ....  182

ORBITAL ENERGIES
----------------

  NO   OCC          E(Eh)            E(eV)
   0   2.0000     -19.331925      -526.0484
   1   2.0000     -10.441587      -284.1300
   2   2.0000     -10.397097      -282.9194
   3   2.0000      -1.132662       -30.8213
   4   2.0000      -0.878864       -23.9151
   5   2.0000      -0.733746       -19.9662
   6   2.0000      -0.624782       -17.0012
   7   2.0000      -0.575527       -15.6609
   8   2.0000      -0.517723       -14.0880
   9   2.0000      -0.510765       -13.8986
  10   2.0000      -0.373609       -10.1664
  11   2.0000      -0.356457        -9.6997
  12   0.0000      -0.048258        -1.3132
  13   0.0000       0.037563         1.0222
  14   0.0000       0.061109         1.6629
  15   0.0000       0.076482         2.0812
  16   0.0000       0.098070         2.6686

MULLIKEN ATOMIC CHARGES
-----------------------
   0 O :   -0.505206
   1 C :   -0.098923
   2 C :   -0.264632
   3 H :    0.216563
   4 H :    0.216740
   5 H :    0.217672
   6 H :    0.217786
Sum of atomic charges:   -0.0000000

LOEWDIN ATOMIC CHARGES
----------------------
   0 O :   -0.015995
   1 C :   -0.390582
   2 C :    0.376558
   3 H :    0.023032
   4 H :    0.023034
   5 H :   -0.008018
   6 H :   -0.008028

  Mayer bond orders larger than 0.100000
B(  0-O ,  1-C ) :   0.7071 B(  0-O ,  2-C ) :   0.9163 B(  1-C ,  2-C ) :   0.7765
B(  1-C ,  3-H ) :   1.0435 B(  1-C ,  4-H ) :   1.0433 B(  2-C ,  5-H ) :   0.9662
B(  2-C ,  6-H ) :   0.9662

Dispersion correction           -0.005667014
FINAL SINGLE POINT ENERGY      -153.805687894156

DIPOLE MOMENT
-------------

Method             : SCF
Type of density    : Electron Density
Multiplicity       :   1
Irrep              :   0
Energy             :  -153.8000208804631086 Eh
Relativity type    :
Basis              : AO
                                X                 Y                 Z
Electronic contribution:      0.089248641       1.415464742      -0.003414030
Nuclear contribution   :     -0.602179771      -2.703407537       0.005747543
                        -----------------------------------------
Total Dipole Moment    :     -0.512931130      -1.287942795       0.002333513
                        -----------------------------------------
Magnitude (a.u.)       :      1.386326236
Magnitude (Debye)      :      3.523761255

Rotational constants in cm-1:             1.148066             0.450835             0.370604
Rotational constants in MHz :         34418.140557         13515.698055         11110.438680

                             ****ORCA TERMINATED NORMALLY****
TOTAL RUN TIME: 0 days 0 hours 3 minutes 17 seconds 466 msec
