                         Program Version 6.0.0  -   RELEASE  -
|  1> ! Opt wB97M-D3BJ def2-TZVPPD
|  2> %pal nprocs 8 end %pal nprocs 64 end
|  3> %geom
|  4> Constraints
|  5>     {A 2 1 0 99.66101694915254 C }
|  6> end
|  7> MaxIter 200
|  8> end
|  9> *xyz 0 1
| 10> O   0.9904234024254625 1.0067924183234447 0.0
| 11> C   0.7509 -0.4065 0.0
| 12> C   -0.7502 -0.4076 0.0
| 13> H   1.2625 -0.6786 0.9136
| 14> H   1.2625 -0.6787 -0.9136
| 15> H   -1.2614 -0.6806 -0.9136
| 16> H   -1.2614 -0.6805 0.9136
| 17> *
| 18>
| 19>                          ****END OF INPUT****
 Total Charge           Charge          ....    0
 Multiplicity           Mult            ....    1
 Number of Electrons    NEL             ....   24
Dispersion correction           -0.005507150
FINAL SINGLE POINT ENERGY      -153.759453401916
Dispersion correction             ... done (  0.1 sec)
Dispersion correction           -0.005588561
FINAL SINGLE POINT ENERGY      -153.778451472754
Dispersion correction             ... done (  0.1 sec)
Dispersion correction           -0.005641107
FINAL SINGLE POINT ENERGY      -153.789043167420
Dispersion correction             ... done (  0.1 sec)
FINAL SINGLE POINT ENERGY      -153.797399947800
FINAL SINGLE POINT ENERGY      -153.799119623543
FINAL SINGLE POINT ENERGY      -153.799185388571
Dispersion correction             ... done (  0.1 sec)
Dispersion correction           -0.005657889
FINAL SINGLE POINT ENERGY      -153.799191870208
Dispersion correction             ... done (  0.1 sec)
Dispersion correction           -0.005657074
FINAL SINGLE POINT ENERGY      -153.799193090117
Dispersion correction             ... done (  0.1 sec)
                    ***********************HURRAY********************

CARTESIAN COORDINATES (ANGSTROEM)
---------------------------------
  O      0.747731    1.005546   -0.000168
  C      0.768851   -0.332897   -0.000102
  C     -0.644445   -0.596496    0.000062
  H      1.264712   -0.765677    0.881842
  H      1.264546   -0.765897   -0.882061
  H     -1.204309   -0.535431   -0.923426
  H     -1.203764   -0.534856    0.923855

 Multiplicity           Mult            ....    1
 Number of Electrons    NEL             ....   24
 Basis Dimension        Dim             ....  182

ORBITAL ENERGIES
----------------

  NO   OCC          E(Eh)            E(eV)
   0   2.0000     -19.330080      -525.9982
   1   2.0000     -10.444896      -284.2201
   2   2.0000     -10.397139      -282.9205
   3   2.0000      -1.129038       -30.7227
   4   2.0000      -0.882175       -24.0052
   5   2.0000      -0.733600       -19.9623
   6   2.0000      -0.624882       -17.0039
   7   2.0000      -0.574239       -15.6258
   8   2.0000      -0.517959       -14.0944
   9   2.0000      -0.511645       -13.9226
  10   2.0000      -0.369998       -10.0682
  11   2.0000      -0.354425        -9.6444
  12   0.0000      -0.056461        -1.5364
  13   0.0000       0.036720         0.9992
  14   0.0000       0.061201         1.6654
  15   0.0000       0.076375         2.0783
  16   0.0000       0.098233         2.6731

MULLIKEN ATOMIC CHARGES
-----------------------
   0 O :   -0.509280
   1 C :   -0.106212
   2 C :   -0.248119
   3 H :    0.214760
   4 H :    0.214784
   5 H :    0.217005
   6 H :    0.217061
Sum of atomic charges:   -0.0000000

LOEWDIN ATOMIC CHARGES
----------------------
   0 O :   -0.017061
   1 C :   -0.399879
   2 C :    0.388461
   3 H :    0.022425
   4 H :    0.022443
   5 H :   -0.008193
   6 H :   -0.008196

  Mayer bond orders larger than 0.100000
B(  0-O ,  1-C ) :   0.7258 B(  0-O ,  2-C ) :   0.9004 B(  1-C ,  2-C ) :   0.7813
B(  1-C ,  3-H ) :   1.0423 B(  1-C ,  4-H ) :   1.0422 B(  2-C ,  5-H ) :   0.9673
B(  2-C ,  6-H ) :   0.9672

Dispersion correction           -0.005657077
FINAL SINGLE POINT ENERGY      -153.799193326997

DIPOLE MOMENT
-------------

Method             : SCF
Type of density    : Electron Density
Multiplicity       :   1
Irrep              :   0
Energy             :  -153.7935362497474046 Eh
Relativity type    :
Basis              : AO
                                X                 Y                 Z
Electronic contribution:      0.296896272       1.386280706      -0.000317982
Nuclear contribution   :     -1.036578653      -2.623014675       0.000447534
                        -----------------------------------------
Total Dipole Moment    :     -0.739682381      -1.236733968       0.000129551
                        -----------------------------------------
Magnitude (a.u.)       :      1.441055499
Magnitude (Debye)      :      3.662871984

Rotational constants in cm-1:             1.180131             0.435522             0.363192
Rotational constants in MHz :         35379.433529         13056.633294         10888.212562

                             ****ORCA TERMINATED NORMALLY****
TOTAL RUN TIME: 0 days 0 hours 1 minutes 58 seconds 749 msec
