                         Program Version 6.0.0  -   RELEASE  -
|  1> ! Engrad def2-TZVPPD wB97M-D3BJ
|  2> %pal nprocs 8 end%pal nprocs 64 end
|  3> %tddft
|  4>  Iroot 1 Nroots 3
|  5> sf true
|  6> end
|  7> *xyz 0 3
|  8> O   2.85507641 -0.30919959 -1.89745673
|  9> O   -1.69708412 1.27109851 -2.03617056
| 10> O   -0.75833521 -2.83669073 -0.98566577
| 11> O   -3.2035434 -0.25441479 1.95255905
| 12> N   0.07756058 -1.54842898 0.77997843
| 13> N   -1.17251421 0.81303718 1.89328655
| 14> N   1.04808164 -1.49384186 -1.347254
| 15> N   -2.3363469 0.35787862 -0.06398168
| 16> C   2.06975057 -0.20473994 0.38008874
| 17> C   -0.16744655 1.46153933 -0.24406373
| 18> C   0.91650888 -0.44664757 1.26857052
| 19> C   0.11268798 0.97366424 1.17382776
| 20> C   3.19762488 0.59965605 0.94346409
| 21> C   0.84610278 2.31437604 -0.94506311
| 22> C   2.09024415 -0.63517532 -1.01598711
| 23> C   -1.41492072 1.05497209 -0.84683994
| 24> C   0.00454108 -2.02803389 -0.51127794
| 25> C   -2.28883159 0.29222789 1.34992377
| 26> H   1.21535841 -0.54322078 2.2529683
| 27> H   0.70691476 1.70112125 1.74118469
| 28> H   3.3856348 0.30619483 1.9546664
| 29> H   4.19837844 0.49258762 0.34800896
| 30> H   3.06835999 1.68582438 0.86953864
| 31> H   0.40005116 2.85914454 -1.72688591
| 32> H   1.13014754 3.17558016 -0.35007022
| 33> H   1.59398543 1.69960765 -1.40132548
| 34> H   -0.74331655 -1.72580006 1.34646984
| 35> H   -1.2058017 0.86436624 2.92848813
| 36> H   1.18507746 -1.93640265 -2.18149445
| 37> H   -2.92934044 -0.29585333 -0.54388953
| 38> *
| 39>
| 40>                          ****END OF INPUT****

CARTESIAN COORDINATES (ANGSTROEM)
---------------------------------
  O      2.855076   -0.309200   -1.897457
  O     -1.697084    1.271099   -2.036171
  O     -0.758335   -2.836691   -0.985666
  O     -3.203543   -0.254415    1.952559
  N      0.077561   -1.548429    0.779978
  N     -1.172514    0.813037    1.893287
  N      1.048082   -1.493842   -1.347254
  N     -2.336347    0.357879   -0.063982
  C      2.069751   -0.204740    0.380089
  C     -0.167447    1.461539   -0.244064
  C      0.916509   -0.446648    1.268571
  C      0.112688    0.973664    1.173828
  C      3.197625    0.599656    0.943464
  C      0.846103    2.314376   -0.945063
  C      2.090244   -0.635175   -1.015987
  C     -1.414921    1.054972   -0.846840
  C      0.004541   -2.028034   -0.511278
  C     -2.288832    0.292228    1.349924
  H      1.215358   -0.543221    2.252968
  H      0.706915    1.701121    1.741185
  H      3.385635    0.306195    1.954666
  H      4.198378    0.492588    0.348009
  H      3.068360    1.685824    0.869539
  H      0.400051    2.859145   -1.726886
  H      1.130148    3.175580   -0.350070
  H      1.593985    1.699608   -1.401325
  H     -0.743317   -1.725800    1.346470
  H     -1.205802    0.864366    2.928488
  H      1.185077   -1.936403   -2.181494
  H     -2.929340   -0.295853   -0.543890

 Total Charge           Charge          ....    0
 Multiplicity           Mult            ....    3
 Number of Electrons    NEL             ....  132
 Basis Dimension        Dim             ....  882

ORBITAL ENERGIES
----------------
                 SPIN UP ORBITALS
  NO   OCC          E(Eh)            E(eV)
   0   1.0000     -19.335429      -526.1438
   1   1.0000     -19.331929      -526.0485
   2   1.0000     -19.331043      -526.0244
   3   1.0000     -19.321963      -525.7773
   4   1.0000     -14.573116      -396.5546
   5   1.0000     -14.571242      -396.5036
   6   1.0000     -14.556779      -396.1101
   7   1.0000     -14.553237      -396.0137
   8   1.0000     -10.517182      -286.1871
   9   1.0000     -10.508512      -285.9511
  10   1.0000     -10.484241      -285.2907
  11   1.0000     -10.479164      -285.1525
  12   1.0000     -10.460149      -284.6351
  13   1.0000     -10.453210      -284.4463
  14   1.0000     -10.427639      -283.7505
  15   1.0000     -10.423975      -283.6508
  16   1.0000     -10.386663      -282.6355
  17   1.0000     -10.364289      -282.0266
  18   1.0000      -1.221419       -33.2365
  19   1.0000      -1.212564       -32.9955
  20   1.0000      -1.202387       -32.7186
  21   1.0000      -1.184493       -32.2317
  22   1.0000      -1.120001       -30.4768
  23   1.0000      -1.097294       -29.8589
  24   1.0000      -1.058248       -28.7964
  25   1.0000      -1.051187       -28.6043
  26   1.0000      -0.991809       -26.9885
  27   1.0000      -0.955256       -25.9938
  28   1.0000      -0.891459       -24.2578
  29   1.0000      -0.846224       -23.0269
  30   1.0000      -0.831266       -22.6199
  31   1.0000      -0.809073       -22.0160
  32   1.0000      -0.783675       -21.3249
  33   1.0000      -0.776807       -21.1380
  34   1.0000      -0.698525       -19.0078
  35   1.0000      -0.694205       -18.8903
  36   1.0000      -0.692540       -18.8450
  37   1.0000      -0.682541       -18.5729
  38   1.0000      -0.656393       -17.8614
  39   1.0000      -0.644627       -17.5412
  40   1.0000      -0.633134       -17.2285
  41   1.0000      -0.605147       -16.4669
  42   1.0000      -0.597361       -16.2550
  43   1.0000      -0.585825       -15.9411
  44   1.0000      -0.581210       -15.8155
  45   1.0000      -0.573677       -15.6105
  46   1.0000      -0.568207       -15.4617
  47   1.0000      -0.560343       -15.2477
  48   1.0000      -0.559488       -15.2244
  49   1.0000      -0.555869       -15.1260
  50   1.0000      -0.553809       -15.0699
  51   1.0000      -0.539243       -14.6735
  52   1.0000      -0.536381       -14.5957
  53   1.0000      -0.524303       -14.2670
  54   1.0000      -0.513321       -13.9682
  55   1.0000      -0.504012       -13.7149
  56   1.0000      -0.484160       -13.1747
  57   1.0000      -0.428813       -11.6686
  58   1.0000      -0.420547       -11.4437
  59   1.0000      -0.415335       -11.3018
  60   1.0000      -0.407915       -11.0999
  61   1.0000      -0.399041       -10.8585
  62   1.0000      -0.397738       -10.8230
  63   1.0000      -0.392102       -10.6696
  64   1.0000      -0.384654       -10.4670
  65   1.0000      -0.349689        -9.5155
  66   1.0000      -0.331662        -9.0250
  67   0.0000       0.004392         0.1195
  68   0.0000       0.028607         0.7784
  69   0.0000       0.030447         0.8285
  70   0.0000       0.037328         1.0157
  71   0.0000       0.055020         1.4972

                 SPIN DOWN ORBITALS
  NO   OCC          E(Eh)            E(eV)
   0   1.0000     -19.332074      -526.0525
   1   1.0000     -19.330995      -526.0231
   2   1.0000     -19.326424      -525.8987
   3   1.0000     -19.321753      -525.7716
   4   1.0000     -14.572591      -396.5404
   5   1.0000     -14.571121      -396.5004
   6   1.0000     -14.556443      -396.1010
   7   1.0000     -14.552176      -395.9848
   8   1.0000     -10.517244      -286.1888
   9   1.0000     -10.508555      -285.9523
  10   1.0000     -10.485082      -285.3136
  11   1.0000     -10.480524      -285.1896
  12   1.0000     -10.459349      -284.6134
  13   1.0000     -10.452906      -284.4380
  14   1.0000     -10.416317      -283.4424
  15   1.0000     -10.412596      -283.3411
  16   1.0000     -10.387319      -282.6533
  17   1.0000     -10.364733      -282.0387
  18   1.0000      -1.219551       -33.1857
  19   1.0000      -1.211163       -32.9574
  20   1.0000      -1.198988       -32.6261
  21   1.0000      -1.177556       -32.0429
  22   1.0000      -1.117325       -30.4040
  23   1.0000      -1.095196       -29.8018
  24   1.0000      -1.055954       -28.7340
  25   1.0000      -1.049290       -28.5526
  26   1.0000      -0.978633       -26.6300
  27   1.0000      -0.937860       -25.5205
  28   1.0000      -0.885539       -24.0968
  29   1.0000      -0.841832       -22.9074
  30   1.0000      -0.821925       -22.3657
  31   1.0000      -0.802947       -21.8493
  32   1.0000      -0.782080       -21.2815
  33   1.0000      -0.775211       -21.0946
  34   1.0000      -0.694981       -18.9114
  35   1.0000      -0.687965       -18.7205
  36   1.0000      -0.686033       -18.6679
  37   1.0000      -0.674884       -18.3645
  38   1.0000      -0.647482       -17.6189
  39   1.0000      -0.640404       -17.4263
  40   1.0000      -0.624316       -16.9885
  41   1.0000      -0.600286       -16.3346
  42   1.0000      -0.590287       -16.0625
  43   1.0000      -0.578533       -15.7427
  44   1.0000      -0.575226       -15.6527
  45   1.0000      -0.569955       -15.5093
  46   1.0000      -0.561238       -15.2721
  47   1.0000      -0.556781       -15.1508
  48   1.0000      -0.550734       -14.9862
  49   1.0000      -0.549655       -14.9569
  50   1.0000      -0.547584       -14.9005
  51   1.0000      -0.529910       -14.4196
  52   1.0000      -0.526343       -14.3225
  53   1.0000      -0.516004       -14.0412
  54   1.0000      -0.500838       -13.6285
  55   1.0000      -0.499722       -13.5981
  56   1.0000      -0.480575       -13.0771
  57   1.0000      -0.425587       -11.5808
  58   1.0000      -0.416851       -11.3431
  59   1.0000      -0.411227       -11.1900
  60   1.0000      -0.393565       -10.7095
  61   1.0000      -0.391159       -10.6440
  62   1.0000      -0.385948       -10.5022
  63   1.0000      -0.384070       -10.4511
  64   1.0000      -0.375540       -10.2190
  65   0.0000      -0.065203        -1.7743
  66   0.0000      -0.059134        -1.6091
  67   0.0000       0.003871         0.1053
  68   0.0000       0.028223         0.7680
  69   0.0000       0.030351         0.8259

----------------------------------------------------------------------------------------------------
          SPIN FLIP ABSORPTION SPECTRUM VIA TRANSITION ELECTRIC DIPOLE MOMENTS
----------------------------------------------------------------------------------------------------
     Transition      Energy     Energy  Wavelength fosc(D2)      D2        DX        DY        DZ
                      (eV)      (cm-1)    (nm)                 (au**2)    (au)      (au)      (au)
----------------------------------------------------------------------------------------------------
  1-3A  ->  2-3A    0.058143     469.0  21324.0   0.000000071   0.00005  -0.00261   0.00655   0.00013
  1-3A  ->  3-3A    1.847341   14899.8   671.1   0.000002500   0.00006   0.00580  -0.00391   0.00250

Dispersion correction             ... done (  0.1 sec)

MULLIKEN ATOMIC CHARGES AND SPIN DENSITIES
------------------------------------------
   0 O :   -0.698263   -0.124200
   1 O :   -0.665720    0.202087
   2 O :   -0.636967   -0.002648
   3 O :   -0.646872   -0.001830
   4 N :   -0.221173   -0.018860
   5 N :   -0.258284    0.006364
   6 N :    0.130831   -0.023656
   7 N :    0.001823    0.012949
   8 C :    1.080171    0.192333
   9 C :   -0.134379    0.319538
  10 C :    0.012278   -0.255224
  11 C :    0.626401    0.098473
  12 C :   -1.429527   -0.081815
  13 C :   -1.352634    0.038657
  14 C :   -0.166796   -0.534665
  15 C :    0.493906    0.107565
  16 C :    0.379059    0.029898
  17 C :    0.365404   -0.007370
  18 H :    0.522933   -0.025642
  19 H :    0.543697    0.020007
  20 H :    0.366763    0.006414
  21 H :    0.340350   -0.008956
  22 H :    0.278822    0.001716
  23 H :    0.362103    0.011932
  24 H :    0.290462   -0.000221
  25 H :    0.234458    0.025824
  26 H :    0.073806    0.005449
  27 H :    0.097179    0.000727
  28 H :   -0.038406    0.004781
  29 H :    0.048577    0.000374
Sum of atomic charges       :   -0.0000000

LOEWDIN ATOMIC CHARGES AND SPIN DENSITIES
-----------------------------------------
   0 O :    0.078911   -0.106024
   1 O :    0.085765    0.178705
   2 O :    0.099880   -0.002399
   3 O :    0.069011   -0.001670
   4 N :    0.295325   -0.001513
   5 N :    0.255335   -0.002725
   6 N :    0.361667   -0.027019
   7 N :    0.321163    0.011507
   8 C :   -0.035992   -0.482761
   9 C :    0.002990    0.497781
  10 C :   -0.064875   -0.031333
  11 C :   -0.049681    0.005856
  12 C :    0.177057   -0.072397
  13 C :    0.226681    0.061110
  14 C :   -0.444151   -0.088677
  15 C :   -0.376637    0.074975
  16 C :   -0.434214    0.000103
  17 C :   -0.501937   -0.001876
  18 H :    0.011095   -0.003778
  19 H :    0.052894    0.004210
  20 H :   -0.021948   -0.005521
  21 H :    0.064051   -0.006966
  22 H :   -0.002779   -0.024085
  23 H :   -0.026085    0.000572
  24 H :    0.007234    0.009357
  25 H :   -0.022435    0.016989
  26 H :   -0.035330   -0.000130
  27 H :    0.007719   -0.000199
  28 H :   -0.084419   -0.003007
  29 H :   -0.016294    0.000915

  Mayer bond orders larger than 0.100000
B(  0-O ,  8-C ) :  -0.1064 B(  0-O , 14-C ) :   1.4613 B(  1-O , 15-C ) :   1.3068
B(  2-O , 16-C ) :   1.5848 B(  3-O , 17-C ) :   1.6140 B(  4-N ,  8-C ) :   0.1891
B(  4-N ,  9-C ) :   0.1290 B(  4-N , 10-C ) :   0.5430 B(  4-N , 16-C ) :   1.0020
B(  4-N , 26-H ) :   1.0607 B(  5-N ,  9-C ) :   0.3015 B(  5-N , 10-C ) :   0.1039
B(  5-N , 11-C ) :   0.1293 B(  5-N , 17-C ) :   1.1699 B(  5-N , 27-H ) :   1.0612
B(  6-N ,  8-C ) :  -0.1058 B(  6-N , 10-C ) :   0.1356 B(  6-N , 14-C ) :   1.0476
B(  6-N , 16-C ) :   0.9521 B(  6-N , 28-H ) :   1.1346 B(  7-N ,  9-C ) :  -0.1943
B(  7-N , 11-C ) :   0.1700 B(  7-N , 15-C ) :   1.0513 B(  7-N , 17-C ) :   0.8813
B(  7-N , 29-H ) :   1.1142 B(  8-C ,  9-C ) :   0.1389 B(  8-C , 10-C ) :   0.6072
B(  8-C , 11-C ) :   0.2478 B(  8-C , 12-C ) :   0.4833 B(  8-C , 16-C ) :   0.1179
B(  8-C , 18-H ) :  -0.1418 B(  8-C , 20-H ) :  -0.1154 B(  9-C , 11-C ) :  -0.2559
B(  9-C , 13-C ) :   0.4830 B(  9-C , 15-C ) :   0.7835 B(  9-C , 19-H ) :  -0.2281
B(  9-C , 23-H ) :  -0.1089 B( 10-C , 11-C ) :   0.5749 B( 10-C , 12-C ) :  -0.1260
B( 10-C , 14-C ) :   0.1458 B( 10-C , 16-C ) :  -0.1391 B( 10-C , 18-H ) :   0.8163
B( 11-C , 13-C ) :  -0.2142 B( 11-C , 15-C ) :  -0.1172 B( 11-C , 17-C ) :  -0.1713
B( 11-C , 18-H ) :  -0.1070 B( 11-C , 19-H ) :   0.8617 B( 12-C , 20-H ) :   1.0026
B( 12-C , 21-H ) :   0.8957 B( 12-C , 22-H ) :   0.8735 B( 13-C , 15-C ) :  -0.1014
B( 13-C , 23-H ) :   0.9532 B( 13-C , 24-H ) :   1.0485 B( 13-C , 25-H ) :   0.8899
B( 14-C , 16-C ) :  -0.1186

Dispersion correction           -0.059864475
FINAL SINGLE POINT ENERGY      -908.773671849363

DIPOLE MOMENT
-------------

Method             : TDA/CIS
Type of density    : Electron Density
Level              : Relaxed density
State              :   1
Multiplicity       :   3
Irrep              :   0
Energy             :     0.0000000000000000 Eh
Relativity type    :
Basis              : AO
                                X                 Y                 Z
Electronic contribution:     -9.465551846      -6.980470848      -2.760599932
Nuclear contribution   :     11.284410419       8.237651470       5.140328427
                        -----------------------------------------
Total Dipole Moment    :      1.818858573       1.257180622       2.379728495
                        -----------------------------------------
Magnitude (a.u.)       :      3.248362254
Magnitude (Debye)      :      8.256680680

Rotational constants in cm-1:             0.020769             0.013218             0.012462
Rotational constants in MHz :           622.639465           396.253938           373.594562

                             ****ORCA TERMINATED NORMALLY****
TOTAL RUN TIME: 0 days 0 hours 5 minutes 10 seconds 367 msec
