                         Program Version 6.0.0  -   RELEASE  -
|  1> ! Engrad def2-TZVPPD wB97M-D3BJ
|  2> %pal nprocs 8 end%pal nprocs 64 end
|  3> %tddft Nroots 2 Iroot 2
|  4> sf true
|  5> end
|  6> *xyz 0 3
|  7> O   2.54538125 1.23027038 -0.38845678
|  8> O   -0.80470457 0.8647581 -2.40176296
|  9> O   0.58698358 -2.66430223 -1.57212401
| 10> O   -2.48788271 -1.59342346 1.08091167
| 11> N   0.62437371 -2.13284148 0.62756794
| 12> N   -1.89027083 0.59536189 1.42451764
| 13> N   1.61493399 -0.7447071 -0.91832128
| 14> N   -1.70534318 -0.31634496 -0.68319678
| 15> C   1.47461671 0.02042912 1.35562165
| 16> C   -0.84166821 1.88255777 -0.28782508
| 17> C   0.84135388 -1.18961606 1.59663038
| 18> C   -1.28811054 1.78417461 1.01382082
| 19> C   1.73754367 1.03705669 2.41164154
| 20> C   -0.18114532 3.12287597 -0.78583667
| 21> C   1.90126792 0.2801426 -0.01457958
| 22> C   -1.10625686 0.81084324 -1.22268442
| 23> C   0.92136854 -1.91152949 -0.68604181
| 24> C   -2.04781826 -0.53083114 0.64900581
| 25> H   0.5454483 -1.53750931 2.60873074
| 26> H   -1.25904499 2.53864101 1.7251486
| 27> H   1.44207793 2.02932412 2.06348573
| 28> H   1.20984248 0.82579468 3.35655939
| 29> H   2.82252553 1.11666721 2.65185461
| 30> H   -0.70304244 3.46727208 -1.67093475
| 31> H   -0.24921073 3.92338661 -0.05378296
| 32> H   0.85965954 2.91280825 -1.05381953
| 33> H   0.03691481 -2.91357291 0.7639259
| 34> H   -2.22088557 0.47207697 2.33819842
| 35> H   1.70283012 -0.45061559 -1.89439461
| 36> H   -1.81355988 -1.0921087 -1.31775866
| 37> *
| 38>
| 39>                          ****END OF INPUT****

CARTESIAN COORDINATES (ANGSTROEM)
---------------------------------
  O      2.545381    1.230270   -0.388457
  O     -0.804705    0.864758   -2.401763
  O      0.586984   -2.664302   -1.572124
  O     -2.487883   -1.593423    1.080912
  N      0.624374   -2.132841    0.627568
  N     -1.890271    0.595362    1.424518
  N      1.614934   -0.744707   -0.918321
  N     -1.705343   -0.316345   -0.683197
  C      1.474617    0.020429    1.355622
  C     -0.841668    1.882558   -0.287825
  C      0.841354   -1.189616    1.596630
  C     -1.288111    1.784175    1.013821
  C      1.737544    1.037057    2.411642
  C     -0.181145    3.122876   -0.785837
  C      1.901268    0.280143   -0.014580
  C     -1.106257    0.810843   -1.222684
  C      0.921369   -1.911529   -0.686042
  C     -2.047818   -0.530831    0.649006
  H      0.545448   -1.537509    2.608731
  H     -1.259045    2.538641    1.725149
  H      1.442078    2.029324    2.063486
  H      1.209842    0.825795    3.356559
  H      2.822526    1.116667    2.651855
  H     -0.703042    3.467272   -1.670935
  H     -0.249211    3.923387   -0.053783
  H      0.859660    2.912808   -1.053820
  H      0.036915   -2.913573    0.763926
  H     -2.220886    0.472077    2.338198
  H      1.702830   -0.450616   -1.894395
  H     -1.813560   -1.092109   -1.317759

 Total Charge           Charge          ....    0
 Multiplicity           Mult            ....    3
 Number of Electrons    NEL             ....  132
 Basis Dimension        Dim             ....  882

ORBITAL ENERGIES
----------------
                 SPIN UP ORBITALS
  NO   OCC          E(Eh)            E(eV)
   0   1.0000     -19.342838      -526.3454
   1   1.0000     -19.323585      -525.8215
   2   1.0000     -19.320866      -525.7475
   3   1.0000     -19.316742      -525.6353
   4   1.0000     -14.595861      -397.1736
   5   1.0000     -14.578586      -396.7035
   6   1.0000     -14.561340      -396.2342
   7   1.0000     -14.559394      -396.1812
   8   1.0000     -10.522650      -286.3359
   9   1.0000     -10.503383      -285.8116
  10   1.0000     -10.475256      -285.0462
  11   1.0000     -10.462762      -284.7062
  12   1.0000     -10.442300      -284.1494
  13   1.0000     -10.409568      -283.2587
  14   1.0000     -10.406814      -283.1838
  15   1.0000     -10.386387      -282.6280
  16   1.0000     -10.365915      -282.0709
  17   1.0000     -10.359237      -281.8892
  18   1.0000      -1.227459       -33.4009
  19   1.0000      -1.221071       -33.2270
  20   1.0000      -1.193627       -32.4802
  21   1.0000      -1.192039       -32.4370
  22   1.0000      -1.126764       -30.6608
  23   1.0000      -1.119911       -30.4743
  24   1.0000      -1.067500       -29.0482
  25   1.0000      -1.063370       -28.9358
  26   1.0000      -0.973085       -26.4790
  27   1.0000      -0.951293       -25.8860
  28   1.0000      -0.857209       -23.3258
  29   1.0000      -0.847739       -23.0682
  30   1.0000      -0.815435       -22.1891
  31   1.0000      -0.805981       -21.9319
  32   1.0000      -0.797622       -21.7044
  33   1.0000      -0.790105       -21.4998
  34   1.0000      -0.699364       -19.0307
  35   1.0000      -0.695647       -18.9295
  36   1.0000      -0.693086       -18.8598
  37   1.0000      -0.687180       -18.6991
  38   1.0000      -0.645367       -17.5613
  39   1.0000      -0.639173       -17.3928
  40   1.0000      -0.630080       -17.1454
  41   1.0000      -0.603512       -16.4224
  42   1.0000      -0.597766       -16.2661
  43   1.0000      -0.592722       -16.1288
  44   1.0000      -0.576906       -15.6984
  45   1.0000      -0.574565       -15.6347
  46   1.0000      -0.558419       -15.1954
  47   1.0000      -0.554174       -15.0798
  48   1.0000      -0.550252       -14.9731
  49   1.0000      -0.548779       -14.9330
  50   1.0000      -0.528625       -14.3846
  51   1.0000      -0.523625       -14.2486
  52   1.0000      -0.522185       -14.2094
  53   1.0000      -0.516143       -14.0450
  54   1.0000      -0.502989       -13.6870
  55   1.0000      -0.501930       -13.6582
  56   1.0000      -0.493881       -13.4392
  57   1.0000      -0.470925       -12.8145
  58   1.0000      -0.428213       -11.6523
  59   1.0000      -0.413811       -11.2604
  60   1.0000      -0.411484       -11.1970
  61   1.0000      -0.395938       -10.7740
  62   1.0000      -0.392158       -10.6712
  63   1.0000      -0.387944       -10.5565
  64   1.0000      -0.383427       -10.4336
  65   1.0000      -0.341121        -9.2824
  66   1.0000      -0.224383        -6.1058
  67   0.0000       0.012593         0.3427
  68   0.0000       0.016795         0.4570
  69   0.0000       0.032028         0.8715
  70   0.0000       0.039217         1.0672
  71   0.0000       0.040993         1.1155

                 SPIN DOWN ORBITALS
  NO   OCC          E(Eh)            E(eV)
   0   1.0000     -19.340883      -526.2922
   1   1.0000     -19.320834      -525.7466
   2   1.0000     -19.317463      -525.6549
   3   1.0000     -19.316707      -525.6343
   4   1.0000     -14.591802      -397.0631
   5   1.0000     -14.578522      -396.7018
   6   1.0000     -14.561323      -396.2337
   7   1.0000     -14.558386      -396.1538
   8   1.0000     -10.522910      -286.3429
   9   1.0000     -10.503394      -285.8119
  10   1.0000     -10.475259      -285.0463
  11   1.0000     -10.462650      -284.7032
  12   1.0000     -10.442224      -284.1474
  13   1.0000     -10.399904      -282.9958
  14   1.0000     -10.395919      -282.8873
  15   1.0000     -10.386380      -282.6278
  16   1.0000     -10.365807      -282.0679
  17   1.0000     -10.359637      -281.9001
  18   1.0000      -1.224007       -33.3069
  19   1.0000      -1.220131       -33.2014
  20   1.0000      -1.193365       -32.4731
  21   1.0000      -1.183320       -32.1998
  22   1.0000      -1.119854       -30.4728
  23   1.0000      -1.116863       -30.3914
  24   1.0000      -1.063323       -28.9345
  25   1.0000      -1.062104       -28.9013
  26   1.0000      -0.952130       -25.9088
  27   1.0000      -0.947648       -25.7868
  28   1.0000      -0.848096       -23.0779
  29   1.0000      -0.844322       -22.9752
  30   1.0000      -0.806811       -21.9544
  31   1.0000      -0.803768       -21.8716
  32   1.0000      -0.791422       -21.5357
  33   1.0000      -0.789999       -21.4970
  34   1.0000      -0.692993       -18.8573
  35   1.0000      -0.689862       -18.7721
  36   1.0000      -0.687379       -18.7045
  37   1.0000      -0.685215       -18.6456
  38   1.0000      -0.637186       -17.3387
  39   1.0000      -0.632605       -17.2140
  40   1.0000      -0.626550       -17.0493
  41   1.0000      -0.595283       -16.1985
  42   1.0000      -0.593028       -16.1371
  43   1.0000      -0.587605       -15.9895
  44   1.0000      -0.570703       -15.5296
  45   1.0000      -0.560785       -15.2597
  46   1.0000      -0.558023       -15.1846
  47   1.0000      -0.548178       -14.9167
  48   1.0000      -0.546803       -14.8793
  49   1.0000      -0.539438       -14.6789
  50   1.0000      -0.523482       -14.2447
  51   1.0000      -0.517763       -14.0890
  52   1.0000      -0.512918       -13.9572
  53   1.0000      -0.507810       -13.8182
  54   1.0000      -0.502035       -13.6611
  55   1.0000      -0.497472       -13.5369
  56   1.0000      -0.469928       -12.7874
  57   1.0000      -0.450668       -12.2633
  58   1.0000      -0.424067       -11.5395
  59   1.0000      -0.412441       -11.2231
  60   1.0000      -0.396088       -10.7781
  61   1.0000      -0.387523       -10.5450
  62   1.0000      -0.384046       -10.4504
  63   1.0000      -0.382912       -10.4196
  64   1.0000      -0.340020        -9.2524
  65   0.0000      -0.105955        -2.8832
  66   0.0000       0.012279         0.3341
  67   0.0000       0.018488         0.5031
  68   0.0000       0.030063         0.8180
  69   0.0000       0.037155         1.0110

----------------------------------------------------------------------------------------------------
          SPIN FLIP ABSORPTION SPECTRUM VIA TRANSITION ELECTRIC DIPOLE MOMENTS
----------------------------------------------------------------------------------------------------
     Transition      Energy     Energy  Wavelength fosc(D2)      D2        DX        DY        DZ
                      (eV)      (cm-1)    (nm)                 (au**2)    (au)      (au)      (au)
----------------------------------------------------------------------------------------------------
  1-3A  ->  2-3A    3.859589   31129.7   321.2   0.000789845   0.00835  -0.00672   0.05042   0.07593

Dispersion correction             ... done (  0.1 sec)

MULLIKEN ATOMIC CHARGES AND SPIN DENSITIES
------------------------------------------
   0 O :   -0.678676   -0.000679
   1 O :   -0.684878    0.008018
   2 O :   -0.647658    0.000058
   3 O :   -0.653854    0.000325
   4 N :    0.009101   -0.001472
   5 N :    0.148965    0.018507
   6 N :    0.009610   -0.004890
   7 N :    0.032951   -0.009290
   8 C :    0.705607   -0.036498
   9 C :    1.293982    0.065619
  10 C :    0.069155    0.014402
  11 C :   -0.632705    0.053482
  12 C :   -1.407018   -0.001779
  13 C :   -1.270629   -0.023578
  14 C :    0.357654    0.021669
  15 C :    0.183815   -0.131779
  16 C :    0.378665    0.000136
  17 C :    0.451934   -0.011070
  18 H :    0.140008    0.001834
  19 H :    0.206073    0.009813
  20 H :    0.245116   -0.001770
  21 H :    0.328586    0.001277
  22 H :    0.348923   -0.001155
  23 H :    0.356416    0.006301
  24 H :    0.345701   -0.000976
  25 H :    0.240159    0.020574
  26 H :    0.028452    0.000253
  27 H :   -0.021484   -0.000222
  28 H :    0.084466    0.000525
  29 H :    0.031563    0.002366
Sum of atomic charges       :   -0.0000000

LOEWDIN ATOMIC CHARGES AND SPIN DENSITIES
-----------------------------------------
   0 O :    0.088785   -0.000285
   1 O :    0.079486    0.006438
   2 O :    0.087787   -0.000102
   3 O :    0.080014   -0.000206
   4 N :    0.281449   -0.000243
   5 N :    0.320220    0.015852
   6 N :    0.335892   -0.000229
   7 N :    0.321722   -0.005324
   8 C :   -0.136891   -0.000444
   9 C :   -0.086359    0.003719
  10 C :    0.064269   -0.000296
  11 C :    0.058203   -0.007194
  12 C :    0.148871   -0.000865
  13 C :    0.215330    0.000892
  14 C :   -0.420269    0.000034
  15 C :   -0.443027   -0.005388
  16 C :   -0.493973   -0.000042
  17 C :   -0.450157   -0.003230
  18 H :    0.058604   -0.000008
  19 H :   -0.032851   -0.005042
  20 H :   -0.015840   -0.000215
  21 H :    0.000989   -0.000057
  22 H :    0.015707   -0.000187
  23 H :    0.007371    0.000563
  24 H :   -0.002738   -0.000256
  25 H :    0.004206    0.000796
  26 H :   -0.038412   -0.000026
  27 H :   -0.042304    0.001954
  28 H :    0.009409   -0.000054
  29 H :   -0.015492   -0.000553

  Mayer bond orders larger than 0.100000
B(  0-O , 14-C ) :   1.4598 B(  1-O , 15-C ) :   1.2793 B(  2-O , 16-C ) :   1.5479
B(  3-O , 17-C ) :   1.5131 B(  4-N , 10-C ) :   0.8654 B(  4-N , 16-C ) :   1.0032
B(  4-N , 26-H ) :   1.1271 B(  5-N , 11-C ) :   0.9389 B(  5-N , 17-C ) :   0.9798
B(  5-N , 27-H ) :   1.1298 B(  6-N , 14-C ) :   1.0216 B(  6-N , 15-C ) :   0.1112
B(  6-N , 16-C ) :   0.8845 B(  6-N , 28-H ) :   1.0716 B(  7-N , 15-C ) :   0.8583
B(  7-N , 16-C ) :   0.1070 B(  7-N , 17-C ) :   0.9326 B(  7-N , 29-H ) :   1.1306
B(  8-C , 10-C ) :   1.0811 B(  8-C , 12-C ) :   0.4221 B(  8-C , 14-C ) :   0.7551
B(  9-C , 11-C ) :   0.3628 B(  9-C , 13-C ) :   0.4840 B(  9-C , 15-C ) :   0.8140
B(  9-C , 19-H ) :  -0.1149 B( 10-C , 12-C ) :  -0.1238 B( 10-C , 18-H ) :   1.1132
B( 11-C , 13-C ) :  -0.1232 B( 11-C , 19-H ) :   1.1384 B( 12-C , 20-H ) :   1.0111
B( 12-C , 21-H ) :   0.9781 B( 12-C , 22-H ) :   0.9130 B( 13-C , 23-H ) :   0.8918
B( 13-C , 24-H ) :   0.9662 B( 13-C , 25-H ) :   0.9452

Dispersion correction           -0.058941548
FINAL SINGLE POINT ENERGY      -908.771592948132

DIPOLE MOMENT
-------------

Method             : TDA/CIS
Type of density    : Electron Density
Level              : Relaxed density
State              :   2
Multiplicity       :   3
Irrep              :   0
Energy             :     0.0000000000000000 Eh
Relativity type    :
Basis              : AO
                                X                 Y                 Z
Electronic contribution:     -2.826588781      -9.533339009      -5.781921460
Nuclear contribution   :      2.316746273      10.362731905       8.352014935
                        -----------------------------------------
Total Dipole Moment    :     -0.509842508       0.829392896       2.570093476
                        -----------------------------------------
Magnitude (a.u.)       :      2.748310833
Magnitude (Debye)      :      6.985650978

Rotational constants in cm-1:             0.016735             0.016037             0.013941
Rotational constants in MHz :           501.688299           480.789267           417.944683

                             ****ORCA TERMINATED NORMALLY****
TOTAL RUN TIME: 0 days 0 hours 5 minutes 22 seconds 841 msec
