                         Program Version 6.0.0  -   RELEASE  -
|  1> ! Engrad def2-TZVPPD wB97M-D3BJ
|  2> %pal nprocs 8 end%pal nprocs 64 end
|  3> %tddft
|  4>  Iroot 1 Nroots 3
|  5> sf true
|  6> end
|  7> *xyz 0 3
|  8> O   2.67487883 -0.80901321 -2.18106038
|  9> O   -1.65687213 1.59846813 -1.85354946
| 10> O   -1.44500771 -2.47060665 -0.88448854
| 11> O   -2.92450513 0.37590568 2.4052649
| 12> N   -0.17001981 -1.51586171 0.69267238
| 13> N   -0.67254606 1.03093317 2.1101286
| 14> N   0.65538144 -1.66677154 -1.47075826
| 15> N   -2.22957007 0.70017215 0.26826482
| 16> C   2.18307251 -0.66187869 0.09772274
| 17> C   -0.03268027 1.49007067 -0.23173987
| 18> C   0.97756341 -0.61347985 1.00322853
| 19> C   0.39321684 0.84770676 1.10562056
| 20> C   3.4637503 -0.17436347 0.50864696
| 21> C   0.92913817 2.24969915 -0.98714692
| 22> C   1.92914732 -1.09533576 -1.26993243
| 23> C   -1.3723555 1.30605237 -0.6600964
| 24> C   -0.42114404 -1.94174256 -0.54563164
| 25> C   -1.98861862 0.64315954 1.65125062
| 26> H   1.16820619 -0.8856992 2.09556636
| 27> H   1.16027513 1.49719322 1.4601389
| 28> H   4.16671263 -0.29474445 -0.2407009
| 29> H   3.43237847 0.8442193 0.81396458
| 30> H   3.78165818 -0.72395217 1.41884822
| 31> H   1.53949434 1.4560138 -1.54608351
| 32> H   0.42460629 2.70175269 -1.79495689
| 33> H   1.51290313 2.96478591 -0.451278
| 34> H   -0.80292502 -1.76980829 1.47049519
| 35> H   -0.57015731 0.60850153 3.00782625
| 36> H   0.30795258 -1.75949879 -2.43243345
| 37> H   -3.21009227 0.57134587 0.0447955
| 38> *
| 39>
| 40>                          ****END OF INPUT****

CARTESIAN COORDINATES (ANGSTROEM)
---------------------------------
  O      2.674879   -0.809013   -2.181060
  O     -1.656872    1.598468   -1.853549
  O     -1.445008   -2.470607   -0.884489
  O     -2.924505    0.375906    2.405265
  N     -0.170020   -1.515862    0.692672
  N     -0.672546    1.030933    2.110129
  N      0.655381   -1.666772   -1.470758
  N     -2.229570    0.700172    0.268265
  C      2.183073   -0.661879    0.097723
  C     -0.032680    1.490071   -0.231740
  C      0.977563   -0.613480    1.003229
  C      0.393217    0.847707    1.105621
  C      3.463750   -0.174363    0.508647
  C      0.929138    2.249699   -0.987147
  C      1.929147   -1.095336   -1.269932
  C     -1.372356    1.306052   -0.660096
  C     -0.421144   -1.941743   -0.545632
  C     -1.988619    0.643160    1.651251
  H      1.168206   -0.885699    2.095566
  H      1.160275    1.497193    1.460139
  H      4.166713   -0.294744   -0.240701
  H      3.432378    0.844219    0.813965
  H      3.781658   -0.723952    1.418848
  H      1.539494    1.456014   -1.546084
  H      0.424606    2.701753   -1.794957
  H      1.512903    2.964786   -0.451278
  H     -0.802925   -1.769808    1.470495
  H     -0.570157    0.608502    3.007826
  H      0.307953   -1.759499   -2.432433
  H     -3.210092    0.571346    0.044795

 Total Charge           Charge          ....    0
 Multiplicity           Mult            ....    3
 Number of Electrons    NEL             ....  132
 Basis Dimension        Dim             ....  882

ORBITAL ENERGIES
----------------
                 SPIN UP ORBITALS
  NO   OCC          E(Eh)            E(eV)
   0   1.0000     -19.340337      -526.2773
   1   1.0000     -19.335024      -526.1327
   2   1.0000     -19.333968      -526.1040
   3   1.0000     -19.320695      -525.7428
   4   1.0000     -14.570470      -396.4826
   5   1.0000     -14.569567      -396.4581
   6   1.0000     -14.566100      -396.3637
   7   1.0000     -14.562425      -396.2637
   8   1.0000     -10.517930      -286.2074
   9   1.0000     -10.505154      -285.8598
  10   1.0000     -10.488290      -285.4009
  11   1.0000     -10.480696      -285.1942
  12   1.0000     -10.458495      -284.5901
  13   1.0000     -10.440613      -284.1035
  14   1.0000     -10.423556      -283.6394
  15   1.0000     -10.414780      -283.4006
  16   1.0000     -10.372343      -282.2458
  17   1.0000     -10.363704      -282.0107
  18   1.0000      -1.219670       -33.1889
  19   1.0000      -1.210943       -32.9514
  20   1.0000      -1.204327       -32.7714
  21   1.0000      -1.178088       -32.0574
  22   1.0000      -1.114341       -30.3228
  23   1.0000      -1.092091       -29.7173
  24   1.0000      -1.062745       -28.9188
  25   1.0000      -1.047431       -28.5020
  26   1.0000      -0.989005       -26.9122
  27   1.0000      -0.962671       -26.1956
  28   1.0000      -0.893719       -24.3193
  29   1.0000      -0.845837       -23.0164
  30   1.0000      -0.829758       -22.5789
  31   1.0000      -0.800249       -21.7759
  32   1.0000      -0.779095       -21.2003
  33   1.0000      -0.775567       -21.1042
  34   1.0000      -0.698677       -19.0120
  35   1.0000      -0.694153       -18.8889
  36   1.0000      -0.685715       -18.6592
  37   1.0000      -0.669287       -18.2122
  38   1.0000      -0.653371       -17.7791
  39   1.0000      -0.630439       -17.1551
  40   1.0000      -0.610634       -16.6162
  41   1.0000      -0.607453       -16.5296
  42   1.0000      -0.601567       -16.3695
  43   1.0000      -0.587340       -15.9823
  44   1.0000      -0.576470       -15.6865
  45   1.0000      -0.572906       -15.5896
  46   1.0000      -0.569230       -15.4895
  47   1.0000      -0.564481       -15.3603
  48   1.0000      -0.561032       -15.2665
  49   1.0000      -0.556772       -15.1505
  50   1.0000      -0.551918       -15.0185
  51   1.0000      -0.542576       -14.7643
  52   1.0000      -0.539586       -14.6829
  53   1.0000      -0.527985       -14.3672
  54   1.0000      -0.515536       -14.0285
  55   1.0000      -0.504552       -13.7295
  56   1.0000      -0.483639       -13.1605
  57   1.0000      -0.430501       -11.7145
  58   1.0000      -0.419140       -11.4054
  59   1.0000      -0.414912       -11.2903
  60   1.0000      -0.409062       -11.1311
  61   1.0000      -0.401582       -10.9276
  62   1.0000      -0.396185       -10.7807
  63   1.0000      -0.393185       -10.6991
  64   1.0000      -0.386709       -10.5229
  65   1.0000      -0.346738        -9.4352
  66   1.0000      -0.326755        -8.8914
  67   0.0000       0.007127         0.1939
  68   0.0000       0.027533         0.7492
  69   0.0000       0.033377         0.9082
  70   0.0000       0.037325         1.0157
  71   0.0000       0.051461         1.4003

                 SPIN DOWN ORBITALS
  NO   OCC          E(Eh)            E(eV)
   0   1.0000     -19.336291      -526.1672
   1   1.0000     -19.333830      -526.1003
   2   1.0000     -19.329062      -525.9705
   3   1.0000     -19.320663      -525.7420
   4   1.0000     -14.569998      -396.4698
   5   1.0000     -14.569179      -396.4475
   6   1.0000     -14.566019      -396.3615
   7   1.0000     -14.561606      -396.2414
   8   1.0000     -10.517962      -286.2083
   9   1.0000     -10.505199      -285.8610
  10   1.0000     -10.489297      -285.4283
  11   1.0000     -10.481849      -285.2256
  12   1.0000     -10.458587      -284.5926
  13   1.0000     -10.440132      -284.0904
  14   1.0000     -10.412200      -283.3304
  15   1.0000     -10.403931      -283.1054
  16   1.0000     -10.372938      -282.2620
  17   1.0000     -10.364168      -282.0233
  18   1.0000      -1.217821       -33.1386
  19   1.0000      -1.209846       -32.9216
  20   1.0000      -1.199884       -32.6505
  21   1.0000      -1.170100       -31.8400
  22   1.0000      -1.112040       -30.2601
  23   1.0000      -1.089843       -29.6561
  24   1.0000      -1.060680       -28.8626
  25   1.0000      -1.045767       -28.4568
  26   1.0000      -0.975197       -26.5365
  27   1.0000      -0.946435       -25.7538
  28   1.0000      -0.889237       -24.1974
  29   1.0000      -0.839226       -22.8365
  30   1.0000      -0.820482       -22.3265
  31   1.0000      -0.795557       -21.6482
  32   1.0000      -0.777374       -21.1534
  33   1.0000      -0.774204       -21.0672
  34   1.0000      -0.693304       -18.8658
  35   1.0000      -0.687933       -18.7196
  36   1.0000      -0.680349       -18.5132
  37   1.0000      -0.661460       -17.9992
  38   1.0000      -0.642555       -17.4848
  39   1.0000      -0.627760       -17.0822
  40   1.0000      -0.607855       -16.5406
  41   1.0000      -0.602867       -16.4049
  42   1.0000      -0.590629       -16.0718
  43   1.0000      -0.580126       -15.7860
  44   1.0000      -0.572503       -15.5786
  45   1.0000      -0.565140       -15.3782
  46   1.0000      -0.561313       -15.2741
  47   1.0000      -0.558100       -15.1867
  48   1.0000      -0.555900       -15.1268
  49   1.0000      -0.547876       -14.9085
  50   1.0000      -0.545882       -14.8542
  51   1.0000      -0.535133       -14.5617
  52   1.0000      -0.529245       -14.4015
  53   1.0000      -0.520107       -14.1528
  54   1.0000      -0.511239       -13.9115
  55   1.0000      -0.491638       -13.3781
  56   1.0000      -0.478067       -13.0089
  57   1.0000      -0.425414       -11.5761
  58   1.0000      -0.415933       -11.3181
  59   1.0000      -0.408101       -11.1050
  60   1.0000      -0.396640       -10.7931
  61   1.0000      -0.392242       -10.6734
  62   1.0000      -0.387728       -10.5506
  63   1.0000      -0.386753       -10.5241
  64   1.0000      -0.377939       -10.2842
  65   0.0000      -0.063639        -1.7317
  66   0.0000      -0.051877        -1.4116
  67   0.0000       0.006518         0.1774
  68   0.0000       0.027230         0.7410
  69   0.0000       0.033324         0.9068

----------------------------------------------------------------------------------------------------
          SPIN FLIP ABSORPTION SPECTRUM VIA TRANSITION ELECTRIC DIPOLE MOMENTS
----------------------------------------------------------------------------------------------------
     Transition      Energy     Energy  Wavelength fosc(D2)      D2        DX        DY        DZ
                      (eV)      (cm-1)    (nm)                 (au**2)    (au)      (au)      (au)
----------------------------------------------------------------------------------------------------
  1-3A  ->  2-3A    0.040749     328.7  30426.2   0.000009897   0.00991  -0.08315   0.04604   0.02965
  1-3A  ->  3-3A    2.018888   16283.4   614.1   0.000832368   0.01683  -0.06421   0.02067  -0.11081

Dispersion correction             ... done (  0.1 sec)

MULLIKEN ATOMIC CHARGES AND SPIN DENSITIES
------------------------------------------
   0 O :   -0.645047    0.003157
   1 O :   -0.704452    0.001118
   2 O :   -0.642976   -0.000201
   3 O :   -0.636080   -0.000703
   4 N :   -0.147064   -0.002095
   5 N :   -0.402967   -0.005457
   6 N :   -0.031883   -0.004840
   7 N :    0.108452   -0.001799
   8 C :    0.531940    0.336599
   9 C :    0.315294    0.272928
  10 C :    0.240944   -0.199022
  11 C :    0.342350   -0.141500
  12 C :   -1.436659   -0.015615
  13 C :   -1.266843    0.013948
  14 C :    0.053466   -0.142231
  15 C :    0.099824   -0.179309
  16 C :    0.472858    0.011875
  17 C :    0.273610    0.007743
  18 H :    0.479374   -0.011343
  19 H :    0.755812    0.007353
  20 H :    0.362441   -0.003283
  21 H :    0.305072    0.018688
  22 H :    0.330789    0.011443
  23 H :    0.233667    0.014771
  24 H :    0.349487   -0.004016
  25 H :    0.306973    0.007009
  26 H :    0.078409   -0.000330
  27 H :    0.156253    0.001172
  28 H :    0.056372    0.001440
  29 H :    0.060583    0.002499
Sum of atomic charges       :   -0.0000000

LOEWDIN ATOMIC CHARGES AND SPIN DENSITIES
-----------------------------------------
   0 O :    0.082537    0.001400
   1 O :    0.051237   -0.000438
   2 O :    0.099120   -0.000316
   3 O :    0.064863   -0.000638
   4 N :    0.260712   -0.000666
   5 N :    0.292233   -0.000459
   6 N :    0.330870   -0.002014
   7 N :    0.321806   -0.002621
   8 C :   -0.042212    0.012290
   9 C :   -0.027365    0.003071
  10 C :   -0.068517   -0.001632
  11 C :   -0.102628   -0.001617
  12 C :    0.194318    0.001541
  13 C :    0.211601   -0.000224
  14 C :   -0.424343   -0.002520
  15 C :   -0.373035   -0.005700
  16 C :   -0.504279   -0.000312
  17 C :   -0.425220   -0.000454
  18 H :    0.084537   -0.000182
  19 H :    0.015626   -0.000226
  20 H :   -0.031884    0.000010
  21 H :   -0.007445    0.000755
  22 H :    0.036388    0.000833
  23 H :    0.052407    0.000368
  24 H :   -0.026821   -0.000012
  25 H :    0.001671    0.000154
  26 H :    0.006000   -0.000033
  27 H :   -0.066227   -0.000049
  28 H :   -0.001766   -0.000125
  29 H :   -0.004185   -0.000184

  Mayer bond orders larger than 0.100000
B(  0-O ,  8-C ) :  -0.1622 B(  0-O , 14-C ) :   1.5572 B(  1-O , 15-C ) :   1.2533
B(  2-O , 16-C ) :   1.5167 B(  3-O , 17-C ) :   1.5967 B(  4-N , 10-C ) :   0.6931
B(  4-N , 16-C ) :   1.0163 B(  4-N , 26-H ) :   1.0853 B(  5-N ,  9-C ) :   0.3934
B(  5-N , 11-C ) :  -0.1331 B(  5-N , 17-C ) :   1.1334 B(  5-N , 19-H ) :  -0.1938
B(  5-N , 27-H ) :   0.9334 B(  6-N ,  8-C ) :  -0.1684 B(  6-N , 10-C ) :   0.1304
B(  6-N , 14-C ) :   1.0164 B(  6-N , 16-C ) :   0.8941 B(  6-N , 28-H ) :   1.0988
B(  7-N , 15-C ) :   1.0403 B(  7-N , 17-C ) :   1.0214 B(  7-N , 29-H ) :   1.0698
B(  8-C ,  9-C ) :   0.1295 B(  8-C , 10-C ) :   0.5715 B(  8-C , 11-C ) :   0.2255
B(  8-C , 12-C ) :   0.3608 B(  8-C , 14-C ) :   0.6771 B(  8-C , 20-H ) :  -0.1195
B(  9-C , 11-C ) :   0.3747 B(  9-C , 13-C ) :   0.4630 B(  9-C , 15-C ) :   0.8036
B(  9-C , 17-C ) :   0.1150 B(  9-C , 19-H ) :  -0.2878 B(  9-C , 24-H ) :  -0.1157
B( 10-C , 11-C ) :   0.5453 B( 10-C , 14-C ) :  -0.1688 B( 10-C , 18-H ) :   0.7871
B( 11-C , 13-C ) :  -0.1912 B( 11-C , 15-C ) :  -0.1093 B( 11-C , 17-C ) :  -0.2769
B( 11-C , 18-H ) :  -0.1080 B( 11-C , 19-H ) :   0.6851 B( 12-C , 20-H ) :   1.0026
B( 12-C , 21-H ) :   0.8841 B( 12-C , 22-H ) :   0.9211 B( 13-C , 23-H ) :   0.8562
B( 13-C , 24-H ) :   0.9573 B( 13-C , 25-H ) :   1.0245

Dispersion correction           -0.059163243
FINAL SINGLE POINT ENERGY      -908.769851258741

DIPOLE MOMENT
-------------

Method             : TDA/CIS
Type of density    : Electron Density
Level              : Relaxed density
State              :   1
Multiplicity       :   3
Irrep              :   0
Energy             :     0.0000000000000000 Eh
Relativity type    :
Basis              : AO
                                X                 Y                 Z
Electronic contribution:    -10.025299072      -4.874210707      -1.916321669
Nuclear contribution   :     12.124477790       5.370561621       3.843291209
                        -----------------------------------------
Total Dipole Moment    :      2.099178718       0.496350913       1.926969540
                        -----------------------------------------
Magnitude (a.u.)       :      2.892425820
Magnitude (Debye)      :      7.351962165

Rotational constants in cm-1:             0.021159             0.012694             0.012209
Rotational constants in MHz :           634.323206           380.543833           366.026652

                             ****ORCA TERMINATED NORMALLY****
TOTAL RUN TIME: 0 days 0 hours 5 minutes 25 seconds 810 msec
