                         Program Version 6.0.0  -   RELEASE  -
|  1> ! Engrad wB97M-D3BJ def2-TZVPPD
|  2> %pal nprocs 8 end%pal nprocs 16 end
|  3> %tddft nroots 2 Iroot 2
|  4>  sf true
|  5> end
|  6> *xyz 0 3
|  7> O   0.96210627492192 1.00112642167217 0.19300621692066
|  8> C   0.78320075927483 -0.3046402934157 0.01305737893847
|  9> C   -0.63304606230166 -0.58407969616658 0.00753684106003
| 10> H   1.27263917938329 -0.96328224988132 0.77020993402651
| 11> H   1.21848749551913 -0.6516724277776 -0.94498597169296
| 12> H   -1.18012300551721 -0.87427541797547 -0.88219566125638
| 13> H   -1.20818753289468 -0.20497688564534 0.84337126200367
| 14> *
| 15>
| 16>                          ****END OF INPUT****

CARTESIAN COORDINATES (ANGSTROEM)
---------------------------------
  O      0.962106    1.001126    0.193006
  C      0.783201   -0.304640    0.013057
  C     -0.633046   -0.584080    0.007537
  H      1.272639   -0.963282    0.770210
  H      1.218487   -0.651672   -0.944986
  H     -1.180123   -0.874275   -0.882196
  H     -1.208188   -0.204977    0.843371

 Total Charge           Charge          ....    0
 Multiplicity           Mult            ....    3
 Number of Electrons    NEL             ....   24
 Basis Dimension        Dim             ....  182

ORBITAL ENERGIES
----------------
                 SPIN UP ORBITALS
  NO   OCC          E(Eh)            E(eV)
   0   1.0000     -19.390127      -527.6322
   1   1.0000     -10.409471      -283.2561
   2   1.0000     -10.357858      -281.8517
   3   1.0000      -1.188095       -32.3297
   4   1.0000      -0.881165       -23.9777
   5   1.0000      -0.733365       -19.9559
   6   1.0000      -0.625407       -17.0182
   7   1.0000      -0.596698       -16.2370
   8   1.0000      -0.561239       -15.2721
   9   1.0000      -0.512200       -13.9377
  10   1.0000      -0.436639       -11.8816
  11   1.0000      -0.415656       -11.3106
  12   1.0000      -0.320589        -8.7237
  13   0.0000       0.041223         1.1217
  14   0.0000       0.062501         1.7007
  15   0.0000       0.075870         2.0645
  16   0.0000       0.086703         2.3593
  17   0.0000       0.114361         3.1119

                 SPIN DOWN ORBITALS
  NO   OCC          E(Eh)            E(eV)
   0   1.0000     -19.366120      -526.9789
   1   1.0000     -10.410860      -283.2939
   2   1.0000     -10.344651      -281.4923
   3   1.0000      -1.135381       -30.8953
   4   1.0000      -0.847495       -23.0615
   5   1.0000      -0.707340       -19.2477
   6   1.0000      -0.593762       -16.1571
   7   1.0000      -0.555236       -15.1087
   8   1.0000      -0.536717       -14.6048
   9   1.0000      -0.482517       -13.1300
  10   1.0000      -0.382793       -10.4163
  11   0.0000      -0.063469        -1.7271
  12   0.0000       0.003151         0.0857
  13   0.0000       0.040109         1.0914
  14   0.0000       0.062845         1.7101
  15   0.0000       0.075619         2.0577

----------------------------------------------------------------------------------------------------
          SPIN FLIP ABSORPTION SPECTRUM VIA TRANSITION ELECTRIC DIPOLE MOMENTS
----------------------------------------------------------------------------------------------------
     Transition      Energy     Energy  Wavelength fosc(D2)      D2        DX        DY        DZ
                      (eV)      (cm-1)    (nm)                 (au**2)    (au)      (au)      (au)
----------------------------------------------------------------------------------------------------
  1-3A  ->  2-3A    0.616643    4973.6  2010.6   0.000104539   0.00692  -0.03156   0.00873   0.07647

Dispersion correction             ... done (  0.0 sec)

MULLIKEN ATOMIC CHARGES AND SPIN DENSITIES
------------------------------------------
   0 O :   -0.344568    0.734075
   1 C :   -0.000017    0.142888
   2 C :   -0.306438   -0.731922
   3 H :    0.184891   -0.012692
   4 H :    0.205531    0.031322
   5 H :    0.110248   -0.082517
   6 H :    0.150353   -0.081154
Sum of atomic charges       :    0.0000000

LOEWDIN ATOMIC CHARGES AND SPIN DENSITIES
-----------------------------------------
   0 O :    0.087294    0.677795
   1 C :   -0.319306    0.012022
   2 C :    0.266198   -0.586258
   3 H :    0.052501    0.020890
   4 H :    0.042499    0.030373
   5 H :   -0.068709   -0.082858
   6 H :   -0.060476   -0.071964

  Mayer bond orders larger than 0.100000
B(  0-O ,  1-C ) :   0.9697 B(  1-C ,  2-C ) :   0.7723 B(  1-C ,  3-H ) :   0.9192
B(  1-C ,  4-H ) :   0.9799 B(  2-C ,  5-H ) :   1.0825 B(  2-C ,  6-H ) :   1.0401

Dispersion correction           -0.005609296
FINAL SINGLE POINT ENERGY      -153.745110970235

DIPOLE MOMENT
-------------

Method             : TDA/CIS
Type of density    : Electron Density
Level              : Relaxed density
State              :   2
Multiplicity       :   3
Irrep              :   0
Energy             :     0.0000000000000000 Eh
Relativity type    :
Basis              : AO
                                X                 Y                 Z
Electronic contribution:      1.415007398       2.153494708       0.346869192
Nuclear contribution   :     -1.368829977      -2.737488208      -0.464364802
                        -----------------------------------------
Total Dipole Moment    :      0.046177421      -0.583993500      -0.117495610
                        -----------------------------------------
Magnitude (a.u.)       :      0.597483038
Magnitude (Debye)      :      1.518681190

Rotational constants in cm-1:             1.347150             0.390828             0.336858
Rotational constants in MHz :         40386.546996         11716.722536         10098.753744

                             ****ORCA TERMINATED NORMALLY****
TOTAL RUN TIME: 0 days 0 hours 0 minutes 19 seconds 466 msec
