                         Program Version 6.0.0  -   RELEASE  -
|  1> ! Opt wB97M-D3BJ def2-TZVPPD
|  2> %pal nprocs 8 end %pal nprocs 64 end
|  3> %geom
|  4> Constraints
|  5>     {A 2 1 0 90.0 C }
|  6> end
|  7> MaxIter 500
|  8> end
|  9> *xyz 0 1
| 10> O   -0.0007 0.8141 0.0
| 11> C   0.7509 -0.4065 0.0
| 12> C   -0.7502 -0.4076 0.0
| 13> H   1.2625 -0.6786 0.9136
| 14> H   1.2625 -0.6787 -0.9136
| 15> H   -1.2614 -0.6806 -0.9136
| 16> H   -1.2614 -0.6805 0.9136
| 17> *
| 18>
| 19>                          ****END OF INPUT****
 Total Charge           Charge          ....    0
 Multiplicity           Mult            ....    1
 Number of Electrons    NEL             ....   24
Dispersion correction           -0.005612498
FINAL SINGLE POINT ENERGY      -153.795396680640
Dispersion correction             ... done (  0.1 sec)
Dispersion correction           -0.005633026
FINAL SINGLE POINT ENERGY      -153.815710654122
Dispersion correction             ... done (  0.1 sec)
Dispersion correction           -0.005630481
FINAL SINGLE POINT ENERGY      -153.822405872816
Dispersion correction             ... done (  0.1 sec)
FINAL SINGLE POINT ENERGY      -153.824588853939
FINAL SINGLE POINT ENERGY      -153.825106848791
FINAL SINGLE POINT ENERGY      -153.825283615855
FINAL SINGLE POINT ENERGY      -153.825369615573
FINAL SINGLE POINT ENERGY      -153.825408082991
FINAL SINGLE POINT ENERGY      -153.825428327628
Dispersion correction             ... done (  0.1 sec)
Dispersion correction           -0.005653515
FINAL SINGLE POINT ENERGY      -153.825437144145
Dispersion correction             ... done (  0.1 sec)
Dispersion correction           -0.005652723
FINAL SINGLE POINT ENERGY      -153.825439589971
Dispersion correction             ... done (  0.1 sec)
                    ***********************HURRAY********************

CARTESIAN COORDINATES (ANGSTROEM)
---------------------------------
  O      0.289607    0.980275   -0.002126
  C      0.638174   -0.314551   -0.000451
  C     -0.737241   -0.684812    0.000531
  H      1.195283   -0.638954    0.887590
  H      1.195644   -0.641015   -0.887442
  H     -1.290269   -0.711200   -0.925616
  H     -1.288999   -0.708144    0.927514

 Multiplicity           Mult            ....    1
 Number of Electrons    NEL             ....   24
 Basis Dimension        Dim             ....  182

ORBITAL ENERGIES
----------------

  NO   OCC          E(Eh)            E(eV)
   0   2.0000     -19.337161      -526.1909
   1   2.0000     -10.431449      -283.8542
   2   2.0000     -10.396896      -282.9139
   3   2.0000      -1.144167       -31.1344
   4   2.0000      -0.867699       -23.6113
   5   2.0000      -0.734853       -19.9964
   6   2.0000      -0.625334       -17.0162
   7   2.0000      -0.579681       -15.7739
   8   2.0000      -0.515039       -14.0149
   9   2.0000      -0.507344       -13.8055
  10   2.0000      -0.385356       -10.4861
  11   2.0000      -0.362696        -9.8695
  12   0.0000      -0.019739        -0.5371
  13   0.0000       0.039993         1.0883
  14   0.0000       0.060840         1.6555
  15   0.0000       0.076624         2.0850
  16   0.0000       0.098189         2.6719

MULLIKEN ATOMIC CHARGES
-----------------------
   0 O :   -0.485468
   1 C :   -0.084167
   2 C :   -0.301931
   3 H :    0.217444
   4 H :    0.217579
   5 H :    0.218250
   6 H :    0.218293
Sum of atomic charges:    0.0000000

LOEWDIN ATOMIC CHARGES
----------------------
   0 O :   -0.017006
   1 C :   -0.351975
   2 C :    0.333757
   3 H :    0.024376
   4 H :    0.024375
   5 H :   -0.006761
   6 H :   -0.006766

  Mayer bond orders larger than 0.100000
B(  0-O ,  1-C ) :   0.6717 B(  0-O ,  2-C ) :   0.9451 B(  1-C ,  2-C ) :   0.7669
B(  1-C ,  3-H ) :   1.0480 B(  1-C ,  4-H ) :   1.0478 B(  2-C ,  5-H ) :   0.9640
B(  2-C ,  6-H ) :   0.9641

Dispersion correction           -0.005652321
FINAL SINGLE POINT ENERGY      -153.825440110646

DIPOLE MOMENT
-------------

Method             : SCF
Type of density    : Electron Density
Multiplicity       :   1
Irrep              :   0
Energy             :  -153.8197877894875774 Eh
Relativity type    :
Basis              : AO
                                X                 Y                 Z
Electronic contribution:      0.061451804       1.430920845      -0.002770241
Nuclear contribution   :     -0.450674468      -2.599964435       0.004538615
                        -----------------------------------------
Total Dipole Moment    :     -0.389222664      -1.169043590       0.001768374
                        -----------------------------------------
Magnitude (a.u.)       :      1.232136488
Magnitude (Debye)      :      3.131842061

Rotational constants in cm-1:             1.061793             0.502734             0.394137
Rotational constants in MHz :         31831.751728         15071.589359         11815.939671

                             ****ORCA TERMINATED NORMALLY****
TOTAL RUN TIME: 0 days 0 hours 2 minutes 46 seconds 733 msec
