                         Program Version 6.0.0  -   RELEASE  -
|  1> ! Opt wB97M-D3BJ def2-TZVPPD
|  2> %pal nprocs 8 end %pal nprocs 64 end
|  3> %geom
|  4> Constraints
|  5>     {A 2 1 0 136.27118644067798 C }
|  6> end
|  7> MaxIter 200
|  8> end
|  9> *xyz 0 1
| 10> O   1.7860096890417845 0.5851223331751966 0.0
| 11> C   0.7509 -0.4065 0.0
| 12> C   -0.7502 -0.4076 0.0
| 13> H   1.2625 -0.6786 0.9136
| 14> H   1.2625 -0.6787 -0.9136
| 15> H   -1.2614 -0.6806 -0.9136
| 16> H   -1.2614 -0.6805 0.9136
| 17> *
| 18>
| 19>                          ****END OF INPUT****
 Total Charge           Charge          ....    0
 Multiplicity           Mult            ....    1
 Number of Electrons    NEL             ....   24
Dispersion correction           -0.005318181
FINAL SINGLE POINT ENERGY      -153.688999345918
Dispersion correction             ... done (  0.1 sec)
Dispersion correction           -0.005406370
FINAL SINGLE POINT ENERGY      -153.709111791777
Dispersion correction             ... done (  0.1 sec)
Dispersion correction           -0.005473322
FINAL SINGLE POINT ENERGY      -153.718712882782
Dispersion correction             ... done (  0.1 sec)
FINAL SINGLE POINT ENERGY      -153.725584553460
FINAL SINGLE POINT ENERGY      -153.735805335029
FINAL SINGLE POINT ENERGY      -153.747420496042
FINAL SINGLE POINT ENERGY      -153.758110133484
FINAL SINGLE POINT ENERGY      -153.765288557706
FINAL SINGLE POINT ENERGY      -153.791617830393
FINAL SINGLE POINT ENERGY      -153.815772307038
FINAL SINGLE POINT ENERGY      -153.925548859676
FINAL SINGLE POINT ENERGY      -153.925835712322
FINAL SINGLE POINT ENERGY      -153.926039157208
FINAL SINGLE POINT ENERGY      -153.926156108771
FINAL SINGLE POINT ENERGY      -153.926167934571
FINAL SINGLE POINT ENERGY      -153.926169824569
FINAL SINGLE POINT ENERGY      -153.926170028240
Dispersion correction             ... done (  0.1 sec)
Dispersion correction           -0.005508792
FINAL SINGLE POINT ENERGY      -153.926170260718
Dispersion correction             ... done (  0.1 sec)
Dispersion correction           -0.005508890
FINAL SINGLE POINT ENERGY      -153.926170340550
Dispersion correction             ... done (  0.1 sec)
                    ***********************HURRAY********************

CARTESIAN COORDINATES (ANGSTROEM)
---------------------------------
  O      1.553866    0.990190   -0.089507
  C      0.960379   -0.009698    0.203106
  C     -0.313022   -0.675011   -0.219068
  H      1.436794   -0.644841    0.988226
  H     -0.055633   -1.674433   -0.568934
  H     -0.866211   -0.139353   -0.986907
  H     -0.927263   -0.794232    0.673086

 Multiplicity           Mult            ....    1
 Number of Electrons    NEL             ....   24
 Basis Dimension        Dim             ....  182

ORBITAL ENERGIES
----------------

  NO   OCC          E(Eh)            E(eV)
   0   2.0000     -19.342204      -526.3281
   1   2.0000     -10.444629      -284.2128
   2   2.0000     -10.364213      -282.0246
   3   2.0000      -1.190001       -32.3816
   4   2.0000      -0.893555       -24.3149
   5   2.0000      -0.697573       -18.9819
   6   2.0000      -0.596670       -16.2362
   7   2.0000      -0.565338       -15.3836
   8   2.0000      -0.559956       -15.2372
   9   2.0000      -0.510285       -13.8855
  10   2.0000      -0.480140       -13.0653
  11   2.0000      -0.364868        -9.9286
  12   0.0000       0.035107         0.9553
  13   0.0000       0.057338         1.5603
  14   0.0000       0.059225         1.6116
  15   0.0000       0.081798         2.2258
  16   0.0000       0.085359         2.3227

MULLIKEN ATOMIC CHARGES
-----------------------
   0 O :   -0.471534
   1 C :    0.230592
   2 C :   -0.691654
   3 H :    0.219454
   4 H :    0.236191
   5 H :    0.240509
   6 H :    0.236442
Sum of atomic charges:   -0.0000000

LOEWDIN ATOMIC CHARGES
----------------------
   0 O :    0.076838
   1 C :   -0.244728
   2 C :    0.171986
   3 H :    0.020905
   4 H :   -0.007949
   5 H :   -0.009079
   6 H :   -0.007974

  Mayer bond orders larger than 0.100000
B(  0-O ,  1-C ) :   1.7709 B(  1-C ,  2-C ) :   0.7475 B(  1-C ,  3-H ) :   1.0037
B(  2-C ,  4-H ) :   0.9892 B(  2-C ,  5-H ) :   0.9599 B(  2-C ,  6-H ) :   0.9887

Dispersion correction           -0.005508863
FINAL SINGLE POINT ENERGY      -153.926170360685

DIPOLE MOMENT
-------------

Method             : SCF
Type of density    : Electron Density
Multiplicity       :   1
Irrep              :   0
Energy             :  -153.9206614980182621 Eh
Relativity type    :
Basis              : AO
                                X                 Y                 Z
Electronic contribution:      2.403958926       2.475486438      -0.068051324
Nuclear contribution   :     -3.119364387      -3.408202294       0.227399421
                        -----------------------------------------
Total Dipole Moment    :     -0.715405462      -0.932715856       0.159348098
                        -----------------------------------------
Magnitude (a.u.)       :      1.186235921
Magnitude (Debye)      :      3.015172091

Rotational constants in cm-1:             2.270816             0.314016             0.290620
Rotational constants in MHz :         68077.342622          9413.975657          8712.561571

                             ****ORCA TERMINATED NORMALLY****
TOTAL RUN TIME: 0 days 0 hours 7 minutes 37 seconds 211 msec
