                         Program Version 6.0.0  -   RELEASE  -
|  1> ! Opt wB97M-D3BJ def2-TZVPPD
|  2> %pal nprocs 8 end %pal nprocs 64 end
|  3> %geom
|  4> Constraints
|  5>     {A 2 1 0 65.45454545454545 C }
|  6> end
|  7> MaxIter 500
|  8> end
|  9> *xyz 0 1
| 10> O   -0.0007 0.8141 0.0
| 11> C   0.7509 -0.4065 0.0
| 12> C   -0.7502 -0.4076 0.0
| 13> H   1.2625 -0.6786 0.9136
| 14> H   1.2625 -0.6787 -0.9136
| 15> H   -1.2614 -0.6806 -0.9136
| 16> H   -1.2614 -0.6805 0.9136
| 17> *
| 18>
| 19>                          ****END OF INPUT****
 Total Charge           Charge          ....    0
 Multiplicity           Mult            ....    1
 Number of Electrons    NEL             ....   24
Dispersion correction           -0.005239313
FINAL SINGLE POINT ENERGY      -153.881491549094
Dispersion correction             ... done (  0.1 sec)
Dispersion correction           -0.005235315
FINAL SINGLE POINT ENERGY      -153.883906952071
Dispersion correction             ... done (  0.1 sec)
Dispersion correction           -0.005235475
FINAL SINGLE POINT ENERGY      -153.884338162573
Dispersion correction             ... done (  0.1 sec)
Dispersion correction           -0.005235081
FINAL SINGLE POINT ENERGY      -153.884381182871
Dispersion correction             ... done (  0.0 sec)
Dispersion correction           -0.005235077
FINAL SINGLE POINT ENERGY      -153.884406578195
Dispersion correction             ... done (  0.2 sec)
                    ***********************HURRAY********************

CARTESIAN COORDINATES (ANGSTROEM)
---------------------------------
  O      0.054213    0.816940   -0.000077
  C      0.703250   -0.407972    0.000252
  C     -0.727716   -0.492288   -0.000316
  H      1.247052   -0.653818    0.908342
  H      1.246507   -0.654724   -0.908013
  H     -1.260938   -0.663027   -0.922562
  H     -1.260168   -0.663511    0.922374

 Multiplicity           Mult            ....    1
 Number of Electrons    NEL             ....   24
 Basis Dimension        Dim             ....  182

ORBITAL ENERGIES
----------------

  NO   OCC          E(Eh)            E(eV)
   0   2.0000     -19.350294      -526.5483
   1   2.0000     -10.402121      -283.0561
   2   2.0000     -10.397484      -282.9299
   3   2.0000      -1.195920       -32.5426
   4   2.0000      -0.816525       -22.2188
   5   2.0000      -0.750793       -20.4301
   6   2.0000      -0.630459       -17.1557
   7   2.0000      -0.593919       -16.1614
   8   2.0000      -0.497595       -13.5402
   9   2.0000      -0.490550       -13.3485
  10   2.0000      -0.427706       -11.6385
  11   2.0000      -0.383329       -10.4309
  12   0.0000       0.041946         1.1414
  13   0.0000       0.058576         1.5939
  14   0.0000       0.072768         1.9801
  15   0.0000       0.077645         2.1128
  16   0.0000       0.114147         3.1061

MULLIKEN ATOMIC CHARGES
-----------------------
   0 O :   -0.391062
   1 C :   -0.137977
   2 C :   -0.208565
   3 H :    0.186505
   4 H :    0.186368
   5 H :    0.182451
   6 H :    0.182279
Sum of atomic charges:   -0.0000000

LOEWDIN ATOMIC CHARGES
----------------------
   0 O :   -0.031000
   1 C :   -0.102856
   2 C :    0.084497
   3 H :    0.018434
   4 H :    0.018425
   5 H :    0.006251
   6 H :    0.006247

  Mayer bond orders larger than 0.100000
B(  0-O ,  1-C ) :   0.7831 B(  0-O ,  2-C ) :   0.8616 B(  1-C ,  2-C ) :   0.8182
B(  1-C ,  3-H ) :   1.0310 B(  1-C ,  4-H ) :   1.0312 B(  2-C ,  5-H ) :   1.0017
B(  2-C ,  6-H ) :   1.0020

Dispersion correction           -0.005235407
FINAL SINGLE POINT ENERGY      -153.884407839730

DIPOLE MOMENT
-------------

Method             : SCF
Type of density    : Electron Density
Multiplicity       :   1
Irrep              :   0
Energy             :  -153.8791724331759951 Eh
Relativity type    :
Basis              : AO
                                X                 Y                 Z
Electronic contribution:      0.007354002       1.602644653      -0.000242902
Nuclear contribution   :     -0.071713605      -2.425967796       0.000290150
                        -----------------------------------------
Total Dipole Moment    :     -0.064359603      -0.823323144       0.000047248
                        -----------------------------------------
Magnitude (a.u.)       :      0.825834826
Magnitude (Debye)      :      2.099105308

Rotational constants in cm-1:             0.858405             0.728811             0.468110
Rotational constants in MHz :         25734.337686         21849.198292         14033.593863

                             ****ORCA TERMINATED NORMALLY****
TOTAL RUN TIME: 0 days 0 hours 1 minutes 20 seconds 994 msec
