                         Program Version 6.0.0  -   RELEASE  -
|  1> ! Opt wB97M-D3BJ def2-TZVPPD
|  2> %pal nprocs 8 end %pal nprocs 64 end
|  3> %geom
|  4> Constraints
|  5>     {A 2 1 0 138.1818181818182 C }
|  6> end
|  7> MaxIter 500
|  8> end
|  9> *xyz 0 1
| 10> O   -0.0007 0.8141 0.0
| 11> C   0.7509 -0.4065 0.0
| 12> C   -0.7502 -0.4076 0.0
| 13> H   1.2625 -0.6786 0.9136
| 14> H   1.2625 -0.6787 -0.9136
| 15> H   -1.2614 -0.6806 -0.9136
| 16> H   -1.2614 -0.6805 0.9136
| 17> *
| 18>
| 19>                          ****END OF INPUT****
 Total Charge           Charge          ....    0
 Multiplicity           Mult            ....    1
 Number of Electrons    NEL             ....   24
Dispersion correction           -0.005705919
FINAL SINGLE POINT ENERGY      -153.501280861949
Dispersion correction             ... done (  0.3 sec)
Dispersion correction           -0.005634814
FINAL SINGLE POINT ENERGY      -153.652970258528
Dispersion correction             ... done (  0.2 sec)
Dispersion correction           -0.005581158
FINAL SINGLE POINT ENERGY      -153.699879108612
Dispersion correction             ... done (  0.3 sec)
FINAL SINGLE POINT ENERGY      -153.718523708811
FINAL SINGLE POINT ENERGY      -153.725644556297
FINAL SINGLE POINT ENERGY      -153.730765720868
FINAL SINGLE POINT ENERGY      -153.735060151283
FINAL SINGLE POINT ENERGY      -153.736577108655
FINAL SINGLE POINT ENERGY      -153.737355064239
FINAL SINGLE POINT ENERGY      -153.738823065452
FINAL SINGLE POINT ENERGY      -153.924032561850
FINAL SINGLE POINT ENERGY      -153.924041407336
FINAL SINGLE POINT ENERGY      -153.924051095373
FINAL SINGLE POINT ENERGY      -153.924067494058
FINAL SINGLE POINT ENERGY      -153.924097784928
FINAL SINGLE POINT ENERGY      -153.924142345669
FINAL SINGLE POINT ENERGY      -153.924180120856
Dispersion correction             ... done (  0.1 sec)
Dispersion correction           -0.005505687
FINAL SINGLE POINT ENERGY      -153.924194746963
Dispersion correction             ... done (  0.3 sec)
Dispersion correction           -0.005505183
FINAL SINGLE POINT ENERGY      -153.924196368135
Dispersion correction             ... done (  0.2 sec)
                    ***********************HURRAY********************

CARTESIAN COORDINATES (ANGSTROEM)
---------------------------------
  O      0.801481    1.370697   -0.010649
  C      0.533325    0.224489    0.216576
  C     -0.461627   -0.800033   -0.235433
  H      1.183725   -0.271715    0.979139
  H      0.105955   -1.648013   -0.617172
  H     -1.168671   -0.453498   -0.985846
  H     -0.991989   -1.140327    0.653384

 Multiplicity           Mult            ....    1
 Number of Electrons    NEL             ....   24
 Basis Dimension        Dim             ....  182

ORBITAL ENERGIES
----------------

  NO   OCC          E(Eh)            E(eV)
   0   2.0000     -19.342556      -526.3377
   1   2.0000     -10.445124      -284.2263
   2   2.0000     -10.365512      -282.0599
   3   2.0000      -1.190199       -32.3870
   4   2.0000      -0.894935       -24.3524
   5   2.0000      -0.696847       -18.9622
   6   2.0000      -0.596368       -16.2280
   7   2.0000      -0.566038       -15.4027
   8   2.0000      -0.560681       -15.2569
   9   2.0000      -0.510598       -13.8941
  10   2.0000      -0.480700       -13.0805
  11   2.0000      -0.363789        -9.8992
  12   0.0000       0.034637         0.9425
  13   0.0000       0.057648         1.5687
  14   0.0000       0.059216         1.6114
  15   0.0000       0.081562         2.2194
  16   0.0000       0.085218         2.3189

MULLIKEN ATOMIC CHARGES
-----------------------
   0 O :   -0.470154
   1 C :    0.229529
   2 C :   -0.689023
   3 H :    0.213893
   4 H :    0.238026
   5 H :    0.240092
   6 H :    0.237637
Sum of atomic charges:   -0.0000000

LOEWDIN ATOMIC CHARGES
----------------------
   0 O :    0.077463
   1 C :   -0.245546
   2 C :    0.172292
   3 H :    0.020306
   4 H :   -0.007560
   5 H :   -0.009398
   6 H :   -0.007556

  Mayer bond orders larger than 0.100000
B(  0-O ,  1-C ) :   1.7712 B(  1-C ,  2-C ) :   0.7492 B(  1-C ,  3-H ) :   1.0076
B(  2-C ,  4-H ) :   0.9875 B(  2-C ,  5-H ) :   0.9613 B(  2-C ,  6-H ) :   0.9876

Dispersion correction           -0.005504964
FINAL SINGLE POINT ENERGY      -153.924196681154

DIPOLE MOMENT
-------------

Method             : SCF
Type of density    : Electron Density
Multiplicity       :   1
Irrep              :   0
Energy             :  -153.9186917173482527 Eh
Relativity type    :
Basis              : AO
                                X                 Y                 Z
Electronic contribution:      1.496656461       3.137832776       0.039597853
Nuclear contribution   :     -1.900482870      -4.257446026       0.058920508
                        -----------------------------------------
Total Dipole Moment    :     -0.403826409      -1.119613250       0.098518362
                        -----------------------------------------
Magnitude (a.u.)       :      1.194284500
Magnitude (Debye)      :      3.035629953

Rotational constants in cm-1:             2.335340             0.310244             0.288396
Rotational constants in MHz :         70011.734379          9300.885169          8645.904315

                             ****ORCA TERMINATED NORMALLY****
TOTAL RUN TIME: 0 days 0 hours 11 minutes 27 seconds 846 msec
