                         Program Version 6.0.0  -   RELEASE  -
|  1> ! EnGrad wB97M-D3BJ def2-TZVPPD
|  2> %pal nprocs 8 end%pal nprocs 16 end
|  3> %tddft
|  4>  sf true
|  5>  nroots 2 Iroot 1 end
|  6> *xyz 0 3
|  7> O   0.49601013141641 1.31404225806497 0.08458536803654
|  8> C   0.58709347736292 0.17129524460388 -0.28724645637829
|  9> C   -0.43259521174432 -0.82072929596635 0.20663129536284
| 10> H   0.05897692714284 -1.63536319829085 0.74131294446109
| 11> H   1.38524704391741 -0.16397889913846 -0.97021787686443
| 12> H   -0.96068213062553 -1.2730542076099 -0.63441778080886
| 13> H   -1.13185023746973 -0.31061190166328 0.8593525061911
| 14> *
| 15>
| 16>                          ****END OF INPUT****

CARTESIAN COORDINATES (ANGSTROEM)
---------------------------------
  O      0.496010    1.314042    0.084585
  C      0.587093    0.171295   -0.287246
  C     -0.432595   -0.820729    0.206631
  H      0.058977   -1.635363    0.741313
  H      1.385247   -0.163979   -0.970218
  H     -0.960682   -1.273054   -0.634418
  H     -1.131850   -0.310612    0.859353

 Total Charge           Charge          ....    0
 Multiplicity           Mult            ....    3
 Number of Electrons    NEL             ....   24
 Basis Dimension        Dim             ....  182

ORBITAL ENERGIES
----------------
                 SPIN UP ORBITALS
  NO   OCC          E(Eh)            E(eV)
   0   1.0000     -19.410846      -528.1960
   1   1.0000     -10.379932      -282.4523
   2   1.0000     -10.366262      -282.0803
   3   1.0000      -1.246978       -33.9320
   4   1.0000      -0.878566       -23.9070
   5   1.0000      -0.719921       -19.5900
   6   1.0000      -0.637660       -17.3516
   7   1.0000      -0.584332       -15.9005
   8   1.0000      -0.582326       -15.8459
   9   1.0000      -0.514206       -13.9922
  10   1.0000      -0.511575       -13.9207
  11   1.0000      -0.436209       -11.8699
  12   1.0000      -0.222928        -6.0662
  13   0.0000       0.042158         1.1472
  14   0.0000       0.060439         1.6446
  15   0.0000       0.079185         2.1547
  16   0.0000       0.088281         2.4023
  17   0.0000       0.108456         2.9512

                 SPIN DOWN ORBITALS
  NO   OCC          E(Eh)            E(eV)
   0   1.0000     -19.382909      -527.4358
   1   1.0000     -10.369592      -282.1709
   2   1.0000     -10.363954      -282.0175
   3   1.0000      -1.188519       -32.3412
   4   1.0000      -0.859039       -23.3756
   5   1.0000      -0.676173       -18.3996
   6   1.0000      -0.585820       -15.9410
   7   1.0000      -0.540263       -14.7013
   8   1.0000      -0.533942       -14.5293
   9   1.0000      -0.500981       -13.6324
  10   1.0000      -0.470358       -12.7991
  11   0.0000      -0.081440        -2.2161
  12   0.0000       0.042150         1.1470
  13   0.0000       0.060095         1.6353
  14   0.0000       0.079377         2.1600
  15   0.0000       0.082913         2.2562

----------------------------------------------------------------------------------------------------
          SPIN FLIP ABSORPTION SPECTRUM VIA TRANSITION ELECTRIC DIPOLE MOMENTS
----------------------------------------------------------------------------------------------------
     Transition      Energy     Energy  Wavelength fosc(D2)      D2        DX        DY        DZ
                      (eV)      (cm-1)    (nm)                 (au**2)    (au)      (au)      (au)
----------------------------------------------------------------------------------------------------
  1-3A  ->  2-3A    4.473334   36079.9   277.2   0.000014834   0.00014  -0.00678   0.00243  -0.00914

Dispersion correction             ... done (  0.0 sec)

MULLIKEN ATOMIC CHARGES AND SPIN DENSITIES
------------------------------------------
   0 O :   -0.511772    0.056091
   1 C :    0.209226   -0.172187
   2 C :   -0.679355    0.047920
   3 H :    0.222870   -0.005529
   4 H :    0.295843    0.074848
   5 H :    0.222582   -0.005473
   6 H :    0.240606    0.004331
Sum of atomic charges       :   -0.0000000

LOEWDIN ATOMIC CHARGES AND SPIN DENSITIES
-----------------------------------------
   0 O :    0.030659    0.021870
   1 C :   -0.203064   -0.014438
   2 C :    0.173716   -0.001463
   3 H :   -0.011474   -0.001254
   4 H :    0.030119   -0.004004
   5 H :   -0.011657   -0.001243
   6 H :   -0.008299    0.000532

  Mayer bond orders larger than 0.100000
B(  0-O ,  1-C ) :   1.7866 B(  1-C ,  2-C ) :   0.7519 B(  1-C ,  4-H ) :   0.9306
B(  2-C ,  3-H ) :   0.9938 B(  2-C ,  5-H ) :   0.9938 B(  2-C ,  6-H ) :   0.9587

Dispersion correction           -0.005549084
FINAL SINGLE POINT ENERGY      -153.922287349802

DIPOLE MOMENT
-------------

Method             : TDA/CIS
Type of density    : Electron Density
Level              : Relaxed density
State              :   1
Multiplicity       :   3
Irrep              :   0
Energy             :     0.0000000000000000 Eh
Relativity type    :
Basis              : AO
                                X                 Y                 Z
Electronic contribution:      1.308539027       2.801375236      -0.227849140
Nuclear contribution   :     -1.382378023      -3.993645517      -0.035058539
                        -----------------------------------------
Total Dipole Moment    :     -0.073838996      -1.192270282      -0.262907679
                        -----------------------------------------
Magnitude (a.u.)       :      1.223143928
Magnitude (Debye)      :      3.108984791

Rotational constants in cm-1:             1.749228             0.357919             0.314226
Rotational constants in MHz :         52440.532101         10730.133712          9420.257550

                             ****ORCA TERMINATED NORMALLY****
TOTAL RUN TIME: 0 days 0 hours 0 minutes 16 seconds 168 msec
