                         Program Version 6.0.0  -   RELEASE  -
|  1> ! opt def2-TZVPPD wB97M-D3BJ
|  2> %pal nprocs 8 end%pal nprocs 32 end
|  3> %geom Constraints
|  4> {B 9 8 3.4 C}
|  5> {A 8 9 11 88.85714285714286 C}
|  6>  end
|  7>  end
|  8> *xyz 0 1
|  9> O   2.98579685529314 0.88758230159078 -0.86184571092411
| 10> O   -0.03983205397054 0.68929041702508 -2.10362336723772
| 11> O   0.93431434349854 -3.13274393337945 -0.68767288184107
| 12> O   -3.75829998830163 -0.84727300865116 -0.0472717177755
| 13> N   0.21184538946282 -1.54604804365365 0.7617588924445
| 14> N   -2.13631993928911 0.03188773433438 1.27350571071531
| 15> N   2.02598672506387 -1.14318467211666 -0.64531219127023
| 16> N   -1.91814233924584 0.03137116037665 -1.04498946748291
| 17> C   1.18097737274226 0.71693507080484 0.70173889017321
| 18> C   -0.20686880480777 1.27024627933494 0.21345042231937
| 19> C   0.41441080275909 -0.34173258966541 1.52336266615173
| 20> C   -0.82922175114212 0.58960593673968 1.44434972027296
| 21> C   1.92822011286806 1.69488653817281 1.5963734975385
| 22> C   -0.37809776891576 2.77134929626422 0.04819649358288
| 23> C   2.1403947470937 0.1972384729179 -0.35038567829864
| 24> C   -0.67361678962426 0.6214190571346 -1.0793014500539
| 25> C   1.04142578622994 -2.02697492875068 -0.21027082435993
| 26> C   -2.68467002550422 -0.30396816036989 0.07167054343891
| 27> H   0.80817443950001 -0.54572267081061 2.51895215321335
| 28> H   -0.83785272399001 1.27240685039143 2.28901317073582
| 29> H   2.31167340578204 2.52284411740894 1.00913016264629
| 30> H   1.28982602448342 2.08257620823614 2.38710022492991
| 31> H   2.77390820759972 1.19140411795486 2.06045858523949
| 32> H   -1.41857211141493 3.00964947214868 -0.16882755561625
| 33> H   -0.09065531563179 3.29799318042223 0.95389844358819
| 34> H   0.23426221611057 3.12492645074476 -0.77764887675592
| 35> H   -0.46772570547622 -2.21560145172536 1.0787081584806
| 36> H   -2.71769301149571 -0.17090724573546 2.06627440900372
| 37> H   2.60065167263658 -1.49057255715425 -1.3966820077142
| 38> H   -2.27169977231386 -0.32388339999036 -1.91951041514436
| 39> *
| 40>
| 41>                          ****END OF INPUT****
 Total Charge           Charge          ....    0
 Multiplicity           Mult            ....    1
 Number of Electrons    NEL             ....  132
Dispersion correction           -0.051656804
FINAL SINGLE POINT ENERGY      -908.553303727515
Dispersion correction             ... done (  0.0 sec)
Dispersion correction           -0.052119661
FINAL SINGLE POINT ENERGY      -908.614905063112
Dispersion correction             ... done (  0.0 sec)
Dispersion correction           -0.052631288
FINAL SINGLE POINT ENERGY      -908.669771843935
Dispersion correction             ... done (  0.0 sec)
FINAL SINGLE POINT ENERGY      -908.741218302221
FINAL SINGLE POINT ENERGY      -908.810307704644
FINAL SINGLE POINT ENERGY      -908.850457464113
FINAL SINGLE POINT ENERGY      -908.874479301752
FINAL SINGLE POINT ENERGY      -908.899582028801
FINAL SINGLE POINT ENERGY      -908.914563836071
FINAL SINGLE POINT ENERGY      -908.921056354951
FINAL SINGLE POINT ENERGY      -908.933908515004
FINAL SINGLE POINT ENERGY      -908.934220877168
FINAL SINGLE POINT ENERGY      -908.934380381361
FINAL SINGLE POINT ENERGY      -908.934512415157
FINAL SINGLE POINT ENERGY      -908.934588800177
FINAL SINGLE POINT ENERGY      -908.934621382171
FINAL SINGLE POINT ENERGY      -908.934635018461
Dispersion correction             ... done (  0.0 sec)
Dispersion correction           -0.058502042
FINAL SINGLE POINT ENERGY      -908.934640709709
Dispersion correction             ... done (  0.0 sec)
Dispersion correction           -0.058514400
FINAL SINGLE POINT ENERGY      -908.934642587173
Dispersion correction             ... done (  0.0 sec)
                    ***********************HURRAY********************

CARTESIAN COORDINATES (ANGSTROEM)
---------------------------------
  O      2.657753    1.139335   -0.625787
  O     -0.515085    0.843778   -2.175232
  O      0.595831   -2.806542   -1.512731
  O     -2.505534   -1.677497    1.035986
  N      0.675580   -2.084220    0.644614
  N     -2.204768    0.547644    1.416022
  N      1.747030   -0.899661   -1.017436
  N     -1.592272   -0.372961   -0.599403
  C      1.581121    0.054677    1.185759
  C     -0.966387    1.904203   -0.098554
  C      0.924948   -1.061186    1.529114
  C     -1.626147    1.746131    1.053056
  C      1.860750    1.180193    2.127935
  C     -0.268819    3.162298   -0.503855
  C      2.055270    0.180402   -0.192776
  C     -0.984245    0.798646   -1.060348
  C      0.979651   -1.997577   -0.697089
  C     -2.132185   -0.590397    0.646066
  H      0.544453   -1.220662    2.526863
  H     -1.701987    2.534515    1.786379
  H      1.427953    2.106238    1.753231
  H      1.448772    0.970937    3.112762
  H      2.931625    1.348650    2.223598
  H     -0.683680    3.550533   -1.431774
  H     -0.359254    3.921181    0.270199
  H      0.786530    2.962670   -0.683839
  H      0.019485   -2.807611    0.886199
  H     -2.621979    0.428378    2.321047
  H      1.932867   -0.773531   -2.000673
  H     -1.554678   -1.173566   -1.214734

 Multiplicity           Mult            ....    1
 Number of Electrons    NEL             ....  132
 Basis Dimension        Dim             ....  882

ORBITAL ENERGIES
----------------

  NO   OCC          E(Eh)            E(eV)
   0   2.0000     -19.329749      -525.9892
   1   2.0000     -19.323860      -525.8290
   2   2.0000     -19.319006      -525.6969
   3   2.0000     -19.318746      -525.6898
   4   2.0000     -14.586107      -396.9081
   5   2.0000     -14.574129      -396.5822
   6   2.0000     -14.571284      -396.5048
   7   2.0000     -14.562144      -396.2561
   8   2.0000     -10.515996      -286.1548
   9   2.0000     -10.505333      -285.8646
  10   2.0000     -10.479477      -285.1611
  11   2.0000     -10.473778      -285.0060
  12   2.0000     -10.432274      -283.8766
  13   2.0000     -10.428046      -283.7616
  14   2.0000     -10.380862      -282.4776
  15   2.0000     -10.377719      -282.3921
  16   2.0000     -10.358718      -281.8750
  17   2.0000     -10.351102      -281.6678
  18   2.0000      -1.228694       -33.4345
  19   2.0000      -1.218646       -33.1610
  20   2.0000      -1.194987       -32.5172
  21   2.0000      -1.187840       -32.3228
  22   2.0000      -1.124184       -30.5906
  23   2.0000      -1.115568       -30.3562
  24   2.0000      -1.071245       -29.1501
  25   2.0000      -1.062788       -28.9199
  26   2.0000      -0.957997       -26.0684
  27   2.0000      -0.953047       -25.9337
  28   2.0000      -0.847348       -23.0575
  29   2.0000      -0.845815       -23.0158
  30   2.0000      -0.810886       -22.0653
  31   2.0000      -0.806017       -21.9328
  32   2.0000      -0.795341       -21.6423
  33   2.0000      -0.786480       -21.4012
  34   2.0000      -0.696240       -18.9456
  35   2.0000      -0.692932       -18.8556
  36   2.0000      -0.689638       -18.7660
  37   2.0000      -0.685976       -18.6664
  38   2.0000      -0.644082       -17.5264
  39   2.0000      -0.635908       -17.3039
  40   2.0000      -0.632628       -17.2147
  41   2.0000      -0.598614       -16.2891
  42   2.0000      -0.597461       -16.2577
  43   2.0000      -0.590700       -16.0738
  44   2.0000      -0.569179       -15.4881
  45   2.0000      -0.561975       -15.2921
  46   2.0000      -0.559125       -15.2146
  47   2.0000      -0.551426       -15.0051
  48   2.0000      -0.547518       -14.8987
  49   2.0000      -0.542119       -14.7518
  50   2.0000      -0.519915       -14.1476
  51   2.0000      -0.517178       -14.0731
  52   2.0000      -0.515041       -14.0150
  53   2.0000      -0.512286       -13.9400
  54   2.0000      -0.502396       -13.6709
  55   2.0000      -0.498472       -13.5641
  56   2.0000      -0.480447       -13.0736
  57   2.0000      -0.471169       -12.8212
  58   2.0000      -0.421559       -11.4712
  59   2.0000      -0.411998       -11.2110
  60   2.0000      -0.405354       -11.0302
  61   2.0000      -0.395015       -10.7489
  62   2.0000      -0.387633       -10.5480
  63   2.0000      -0.382121       -10.3981
  64   2.0000      -0.349809        -9.5188
  65   2.0000      -0.340993        -9.2789
  66   0.0000       0.010738         0.2922
  67   0.0000       0.016560         0.4506
  68   0.0000       0.025375         0.6905
  69   0.0000       0.034917         0.9501
  70   0.0000       0.040678         1.1069

MULLIKEN ATOMIC CHARGES
-----------------------
   0 O :   -0.671142
   1 O :   -0.656513
   2 O :   -0.643249
   3 O :   -0.667110
   4 N :   -0.055239
   5 N :   -0.021843
   6 N :    0.028307
   7 N :    0.026873
   8 C :    0.772717
   9 C :    0.491353
  10 C :    0.076548
  11 C :    0.101655
  12 C :   -1.399522
  13 C :   -1.428228
  14 C :    0.366986
  15 C :    0.605647
  16 C :    0.363035
  17 C :    0.455365
  18 H :    0.149628
  19 H :    0.141706
  20 H :    0.196402
  21 H :    0.337412
  22 H :    0.350732
  23 H :    0.363659
  24 H :    0.329832
  25 H :    0.223380
  26 H :    0.069780
  27 H :    0.019536
  28 H :    0.035807
  29 H :    0.036487
Sum of atomic charges:   -0.0000000

LOEWDIN ATOMIC CHARGES
----------------------
   0 O :    0.091958
   1 O :    0.103243
   2 O :    0.084603
   3 O :    0.072879
   4 N :    0.277236
   5 N :    0.281287
   6 N :    0.342725
   7 N :    0.344161
   8 C :   -0.136595
   9 C :   -0.138951
  10 C :    0.048672
  11 C :    0.055670
  12 C :    0.178649
  13 C :    0.180587
  14 C :   -0.400515
  15 C :   -0.391689
  16 C :   -0.487796
  17 C :   -0.487630
  18 H :    0.039907
  19 H :    0.037037
  20 H :   -0.015154
  21 H :   -0.006033
  22 H :    0.002035
  23 H :    0.001679
  24 H :   -0.005465
  25 H :   -0.013418
  26 H :   -0.022478
  27 H :   -0.021749
  28 H :   -0.003134
  29 H :   -0.011720

  Mayer bond orders larger than 0.100000
B(  0-O , 14-C ) :   1.4718 B(  1-O , 15-C ) :   1.4266 B(  2-O , 16-C ) :   1.5785
B(  3-O , 17-C ) :   1.5376 B(  4-N , 10-C ) :   0.8790 B(  4-N , 16-C ) :   0.9910
B(  4-N , 26-H ) :   1.1096 B(  5-N , 11-C ) :   0.9638 B(  5-N , 17-C ) :   1.0412
B(  5-N , 27-H ) :   1.1360 B(  6-N , 14-C ) :   1.0051 B(  6-N , 16-C ) :   0.9165
B(  6-N , 28-H ) :   1.0981 B(  7-N , 15-C ) :   0.9829 B(  7-N , 17-C ) :   0.9392
B(  7-N , 29-H ) :   1.1174 B(  8-C , 10-C ) :   1.1376 B(  8-C , 12-C ) :   0.3564
B(  8-C , 14-C ) :   0.7516 B(  9-C , 11-C ) :   1.2238 B(  9-C , 13-C ) :   0.3625
B(  9-C , 15-C ) :   0.8354 B(  9-C , 24-H ) :  -0.1000 B(  9-C , 25-H ) :  -0.1103
B( 10-C , 12-C ) :  -0.1034 B( 10-C , 18-H ) :   1.1161 B( 11-C , 13-C ) :  -0.1886
B( 11-C , 19-H ) :   1.0861 B( 12-C , 20-H ) :   1.0340 B( 12-C , 21-H ) :   0.9901
B( 12-C , 22-H ) :   0.9262 B( 13-C , 23-H ) :   0.9044 B( 13-C , 24-H ) :   1.0234
B( 13-C , 25-H ) :   1.0095

Dispersion correction           -0.058512723
FINAL SINGLE POINT ENERGY      -908.934643220818

DIPOLE MOMENT
-------------

Method             : SCF
Type of density    : Electron Density
Multiplicity       :   1
Irrep              :   0
Energy             :  -908.8761304973185133 Eh
Relativity type    :
Basis              : AO
                                X                 Y                 Z
Electronic contribution:     -2.582042291     -10.215611259      -5.909334701
Nuclear contribution   :      1.862506296      11.190049496       8.404108895
                        -----------------------------------------
Total Dipole Moment    :     -0.719535996       0.974438237       2.494774195
                        -----------------------------------------
Magnitude (a.u.)       :      2.773294108
Magnitude (Debye)      :      7.049153417

Rotational constants in cm-1:             0.017336             0.016015             0.012888
Rotational constants in MHz :           519.713054           480.112078           386.365425

                             ****ORCA TERMINATED NORMALLY****
TOTAL RUN TIME: 0 days 1 hours 44 minutes 53 seconds 690 msec
