                         Program Version 6.0.0  -   RELEASE  -
|  1> ! Engrad wB97M-D3BJ def2-TZVPPD
|  2> %pal nprocs 8 end%pal nprocs 16 end
|  3> %tddft nroots 2 Iroot 1
|  4>  sf true
|  5> end
|  6> *xyz 0 3
|  7> O   1.65840654335124 0.94637072388116 0.01128960751807
|  8> C   0.96848417270612 -0.01530709877676 0.20220733236622
|  9> C   -0.30333547614399 -0.67285578420189 -0.24545170230415
| 10> H   1.37312719059222 -0.70541596395116 0.98941335077993
| 11> H   -0.02773404462725 -1.67088650771357 -0.58325433480095
| 12> H   -0.86415808169187 -0.15523611086354 -1.02133969548826
| 13> H   -0.91634172409857 -0.78969008070817 0.64713544192913
| 14> *
| 15>
| 16>                          ****END OF INPUT****

CARTESIAN COORDINATES (ANGSTROEM)
---------------------------------
  O      1.658407    0.946371    0.011290
  C      0.968484   -0.015307    0.202207
  C     -0.303335   -0.672856   -0.245452
  H      1.373127   -0.705416    0.989413
  H     -0.027734   -1.670887   -0.583254
  H     -0.864158   -0.155236   -1.021340
  H     -0.916342   -0.789690    0.647135

 Total Charge           Charge          ....    0
 Multiplicity           Mult            ....    3
 Number of Electrons    NEL             ....   24
 Basis Dimension        Dim             ....  182

ORBITAL ENERGIES
----------------
                 SPIN UP ORBITALS
  NO   OCC          E(Eh)            E(eV)
   0   1.0000     -19.404053      -528.0111
   1   1.0000     -10.381877      -282.5052
   2   1.0000     -10.372657      -282.2543
   3   1.0000      -1.240768       -33.7630
   4   1.0000      -0.890859       -24.2415
   5   1.0000      -0.714711       -19.4483
   6   1.0000      -0.626991       -17.0613
   7   1.0000      -0.589489       -16.0408
   8   1.0000      -0.579807       -15.7774
   9   1.0000      -0.518229       -14.1017
  10   1.0000      -0.517699       -14.0873
  11   1.0000      -0.419882       -11.4256
  12   1.0000      -0.216516        -5.8917
  13   0.0000       0.036738         0.9997
  14   0.0000       0.059557         1.6206
  15   0.0000       0.077361         2.1051
  16   0.0000       0.087246         2.3741
  17   0.0000       0.105571         2.8727

                 SPIN DOWN ORBITALS
  NO   OCC          E(Eh)            E(eV)
   0   1.0000     -19.377229      -527.2812
   1   1.0000     -10.371606      -282.2257
   2   1.0000     -10.370791      -282.2036
   3   1.0000      -1.185591       -32.2616
   4   1.0000      -0.871860       -23.7245
   5   1.0000      -0.668517       -18.1913
   6   1.0000      -0.584525       -15.9057
   7   1.0000      -0.542543       -14.7634
   8   1.0000      -0.535433       -14.5699
   9   1.0000      -0.496620       -13.5137
  10   1.0000      -0.471182       -12.8215
  11   0.0000      -0.080050        -2.1783
  12   0.0000       0.038102         1.0368
  13   0.0000       0.059225         1.6116
  14   0.0000       0.076869         2.0917
  15   0.0000       0.084967         2.3121

----------------------------------------------------------------------------------------------------
          SPIN FLIP ABSORPTION SPECTRUM VIA TRANSITION ELECTRIC DIPOLE MOMENTS
----------------------------------------------------------------------------------------------------
     Transition      Energy     Energy  Wavelength fosc(D2)      D2        DX        DY        DZ
                      (eV)      (cm-1)    (nm)                 (au**2)    (au)      (au)      (au)
----------------------------------------------------------------------------------------------------
  1-3A  ->  2-3A    4.582317   36958.9   270.6   0.000418668   0.00373   0.03095  -0.03066  -0.04279

Dispersion correction             ... done (  0.0 sec)

MULLIKEN ATOMIC CHARGES AND SPIN DENSITIES
------------------------------------------
   0 O :   -0.499063    0.054017
   1 C :    0.211590   -0.168182
   2 C :   -0.698590    0.035553
   3 H :    0.256637    0.072984
   4 H :    0.247367   -0.001046
   5 H :    0.233915    0.007640
   6 H :    0.248143   -0.000966
Sum of atomic charges       :   -0.0000000

LOEWDIN ATOMIC CHARGES AND SPIN DENSITIES
-----------------------------------------
   0 O :    0.054123    0.020330
   1 C :   -0.241248   -0.014774
   2 C :    0.179824   -0.002100
   3 H :    0.025772   -0.002737
   4 H :   -0.005371   -0.001226
   5 H :   -0.007726    0.001730
   6 H :   -0.005374   -0.001222

  Mayer bond orders larger than 0.100000
B(  0-O ,  1-C ) :   1.7963 B(  1-C ,  2-C ) :   0.7492 B(  1-C ,  3-H ) :   0.9549
B(  2-C ,  4-H ) :   0.9824 B(  2-C ,  5-H ) :   0.9722 B(  2-C ,  6-H ) :   0.9823

Dispersion correction           -0.005496463
FINAL SINGLE POINT ENERGY      -153.913217229301

DIPOLE MOMENT
-------------

Method             : TDA/CIS
Type of density    : Electron Density
Level              : Relaxed density
State              :   1
Multiplicity       :   3
Irrep              :   0
Energy             :     0.0000000000000000 Eh
Relativity type    :
Basis              : AO
                                X                 Y                 Z
Electronic contribution:      2.422518783       2.407016352       0.025485951
Nuclear contribution   :     -3.298552820      -3.403594528       0.056365063
                        -----------------------------------------
Total Dipole Moment    :     -0.876034038      -0.996578176       0.081851014
                        -----------------------------------------
Magnitude (a.u.)       :      1.329399596
Magnitude (Debye)      :      3.379065233

Rotational constants in cm-1:             2.483097             0.302429             0.283678
Rotational constants in MHz :         74441.365747          9066.589008          8504.465234

                             ****ORCA TERMINATED NORMALLY****
TOTAL RUN TIME: 0 days 0 hours 0 minutes 16 seconds 377 msec
