                         Program Version 6.0.0  -   RELEASE  -
|  1> ! Engrad def2-TZVPPD wB97M-D3BJ
|  2> %pal nprocs 8 end%pal nprocs 32 end
|  3>  %tddft nroots 2 Iroot 2
|  4> sf true
|  5> end
|  6> *xyz 0 3
|  7> O   2.57971933616606 1.35508942796352 -0.84699980131112
|  8> O   -0.1527726303854 0.09674435759715 -1.8347924209632
|  9> O   1.28317818806531 -2.9530014230898 -0.91498569752602
| 10> O   -4.25016588671191 -0.30744962091242 0.08760231935788
| 11> N   0.49061458959068 -1.65125129110621 0.76104360231471
| 12> N   -2.4754068454957 1.12966978917294 0.48441001057815
| 13> N   2.13723278348019 -0.85850349733658 -0.68809595818656
| 14> N   -2.19804544883439 -0.49032991759924 -0.98170236766089
| 15> C   1.40358865782116 0.61985917091039 1.07987493561494
| 16> C   -1.00433953270479 1.11872962978241 0.23547566340009
| 17> C   0.60733067438366 -0.51961404732436 1.62414880186472
| 18> C   -0.36968076489748 0.63309343624397 1.5005581519943
| 19> C   2.24707717293426 1.45372335541304 2.01043479212655
| 20> C   -0.55562335763967 2.51541985470109 -0.17767309372555
| 21> C   2.02392696024251 0.45347852880221 -0.2685461925619
| 22> C   -0.99897596838159 0.17116928703149 -0.98567910828831
| 23> C   1.30092156203867 -1.90598364353353 -0.31119098131668
| 24> C   -3.12174790011914 0.07224343664748 -0.09058179837266
| 25> H   0.80603052043591 -0.79020588725166 2.65615430363172
| 26> H   -0.50972749608647 1.25989702545125 2.36797083820197
| 27> H   2.29732495113871 2.48135024049674 1.6597072916217
| 28> H   1.8345277273768 1.44684204015738 3.01655485694467
| 29> H   3.26764176263559 1.07170101426429 2.05427543410031
| 30> H   -1.21230545963357 2.89512683586089 -0.95632990004535
| 31> H   -0.60973430270458 3.18448902893979 0.67990266250717
| 32> H   0.46406577727883 2.49969128509864 -0.54674264374452
| 33> H   -0.08241205341116 -2.42896882819676 1.03601995670365
| 34> H   -2.84894719499523 1.48698542547567 1.34618404833281
| 35> H   2.57074337213839 -0.99136650314192 -1.58834573597663
| 36> H   -2.47143919372571 -1.13362851051793 -1.70405196961594
| 37> *
| 38>
| 39>                          ****END OF INPUT****

CARTESIAN COORDINATES (ANGSTROEM)
---------------------------------
  O      2.579719    1.355089   -0.847000
  O     -0.152773    0.096744   -1.834792
  O      1.283178   -2.953001   -0.914986
  O     -4.250166   -0.307450    0.087602
  N      0.490615   -1.651251    0.761044
  N     -2.475407    1.129670    0.484410
  N      2.137233   -0.858503   -0.688096
  N     -2.198045   -0.490330   -0.981702
  C      1.403589    0.619859    1.079875
  C     -1.004340    1.118730    0.235476
  C      0.607331   -0.519614    1.624149
  C     -0.369681    0.633093    1.500558
  C      2.247077    1.453723    2.010435
  C     -0.555623    2.515420   -0.177673
  C      2.023927    0.453479   -0.268546
  C     -0.998976    0.171169   -0.985679
  C      1.300922   -1.905984   -0.311191
  C     -3.121748    0.072243   -0.090582
  H      0.806031   -0.790206    2.656154
  H     -0.509727    1.259897    2.367971
  H      2.297325    2.481350    1.659707
  H      1.834528    1.446842    3.016555
  H      3.267642    1.071701    2.054275
  H     -1.212305    2.895127   -0.956330
  H     -0.609734    3.184489    0.679903
  H      0.464066    2.499691   -0.546743
  H     -0.082412   -2.428969    1.036020
  H     -2.848947    1.486985    1.346184
  H      2.570743   -0.991367   -1.588346
  H     -2.471439   -1.133629   -1.704052

 Total Charge           Charge          ....    0
 Multiplicity           Mult            ....    3
 Number of Electrons    NEL             ....  132
 Basis Dimension        Dim             ....  882

ORBITAL ENERGIES
----------------
                 SPIN UP ORBITALS
  NO   OCC          E(Eh)            E(eV)
   0   1.0000     -19.344104      -526.3798
   1   1.0000     -19.326797      -525.9089
   2   1.0000     -19.311688      -525.4977
   3   1.0000     -19.308824      -525.4198
   4   1.0000     -14.569517      -396.4567
   5   1.0000     -14.563708      -396.2986
   6   1.0000     -14.558370      -396.1534
   7   1.0000     -14.545809      -395.8116
   8   1.0000     -10.505176      -285.8604
   9   1.0000     -10.497531      -285.6523
  10   1.0000     -10.493259      -285.5361
  11   1.0000     -10.459064      -284.6056
  12   1.0000     -10.448496      -284.3180
  13   1.0000     -10.446270      -284.2574
  14   1.0000     -10.425615      -283.6954
  15   1.0000     -10.417171      -283.4656
  16   1.0000     -10.379044      -282.4282
  17   1.0000     -10.361781      -281.9584
  18   1.0000      -1.232675       -33.5428
  19   1.0000      -1.211878       -32.9769
  20   1.0000      -1.204406       -32.7735
  21   1.0000      -1.183318       -32.1997
  22   1.0000      -1.130303       -30.7571
  23   1.0000      -1.110892       -30.2289
  24   1.0000      -1.058725       -28.8094
  25   1.0000      -1.054154       -28.6850
  26   1.0000      -1.013963       -27.5913
  27   1.0000      -0.934624       -25.4324
  28   1.0000      -0.889104       -24.1937
  29   1.0000      -0.824687       -22.4409
  30   1.0000      -0.816674       -22.2228
  31   1.0000      -0.802096       -21.8261
  32   1.0000      -0.784035       -21.3347
  33   1.0000      -0.773531       -21.0488
  34   1.0000      -0.731008       -19.8917
  35   1.0000      -0.694228       -18.8909
  36   1.0000      -0.686332       -18.6760
  37   1.0000      -0.673337       -18.3224
  38   1.0000      -0.642953       -17.4956
  39   1.0000      -0.632160       -17.2020
  40   1.0000      -0.620607       -16.8876
  41   1.0000      -0.614273       -16.7152
  42   1.0000      -0.594490       -16.1769
  43   1.0000      -0.592454       -16.1215
  44   1.0000      -0.578676       -15.7466
  45   1.0000      -0.576494       -15.6872
  46   1.0000      -0.566699       -15.4207
  47   1.0000      -0.560676       -15.2568
  48   1.0000      -0.554233       -15.0814
  49   1.0000      -0.543311       -14.7843
  50   1.0000      -0.539496       -14.6804
  51   1.0000      -0.536272       -14.5927
  52   1.0000      -0.530017       -14.4225
  53   1.0000      -0.510346       -13.8872
  54   1.0000      -0.508221       -13.8294
  55   1.0000      -0.504226       -13.7207
  56   1.0000      -0.486637       -13.2421
  57   1.0000      -0.429670       -11.6919
  58   1.0000      -0.415153       -11.2969
  59   1.0000      -0.413347       -11.2478
  60   1.0000      -0.405865       -11.0442
  61   1.0000      -0.395386       -10.7590
  62   1.0000      -0.391651       -10.6574
  63   1.0000      -0.386168       -10.5082
  64   1.0000      -0.382257       -10.4017
  65   1.0000      -0.376367       -10.2415
  66   1.0000      -0.211826        -5.7641
  67   0.0000       0.013503         0.3674
  68   0.0000       0.030800         0.8381
  69   0.0000       0.033076         0.9000
  70   0.0000       0.039528         1.0756
  71   0.0000       0.046588         1.2677

                 SPIN DOWN ORBITALS
  NO   OCC          E(Eh)            E(eV)
   0   1.0000     -19.344134      -526.3806
   1   1.0000     -19.326585      -525.9031
   2   1.0000     -19.311628      -525.4961
   3   1.0000     -19.305192      -525.3210
   4   1.0000     -14.569521      -396.4568
   5   1.0000     -14.563016      -396.2798
   6   1.0000     -14.556867      -396.1125
   7   1.0000     -14.544935      -395.7878
   8   1.0000     -10.505167      -285.8601
   9   1.0000     -10.497578      -285.6536
  10   1.0000     -10.493236      -285.5355
  11   1.0000     -10.458257      -284.5836
  12   1.0000     -10.448868      -284.3282
  13   1.0000     -10.445663      -284.2409
  14   1.0000     -10.413475      -283.3651
  15   1.0000     -10.403476      -283.0930
  16   1.0000     -10.379332      -282.4360
  17   1.0000     -10.361126      -281.9406
  18   1.0000      -1.232205       -33.5300
  19   1.0000      -1.210610       -32.9424
  20   1.0000      -1.204052       -32.7639
  21   1.0000      -1.178098       -32.0577
  22   1.0000      -1.128552       -30.7095
  23   1.0000      -1.106156       -30.1000
  24   1.0000      -1.055619       -28.7248
  25   1.0000      -1.051493       -28.6126
  26   1.0000      -0.995400       -27.0862
  27   1.0000      -0.928333       -25.2612
  28   1.0000      -0.879298       -23.9269
  29   1.0000      -0.819447       -22.2983
  30   1.0000      -0.806448       -21.9446
  31   1.0000      -0.793883       -21.6026
  32   1.0000      -0.781121       -21.2554
  33   1.0000      -0.769404       -20.9366
  34   1.0000      -0.724403       -19.7120
  35   1.0000      -0.687190       -18.6994
  36   1.0000      -0.676608       -18.4114
  37   1.0000      -0.663548       -18.0561
  38   1.0000      -0.638377       -17.3711
  39   1.0000      -0.630343       -17.1525
  40   1.0000      -0.614994       -16.7348
  41   1.0000      -0.610437       -16.6108
  42   1.0000      -0.587328       -15.9820
  43   1.0000      -0.581750       -15.8302
  44   1.0000      -0.574709       -15.6386
  45   1.0000      -0.570849       -15.5336
  46   1.0000      -0.561378       -15.2759
  47   1.0000      -0.552889       -15.0449
  48   1.0000      -0.547798       -14.9063
  49   1.0000      -0.539715       -14.6864
  50   1.0000      -0.532265       -14.4837
  51   1.0000      -0.529841       -14.4177
  52   1.0000      -0.524934       -14.2842
  53   1.0000      -0.508392       -13.8341
  54   1.0000      -0.501449       -13.6451
  55   1.0000      -0.497303       -13.5323
  56   1.0000      -0.475123       -12.9288
  57   1.0000      -0.420577       -11.4445
  58   1.0000      -0.411003       -11.1840
  59   1.0000      -0.404844       -11.0164
  60   1.0000      -0.396934       -10.8011
  61   1.0000      -0.389725       -10.6050
  62   1.0000      -0.382931       -10.4201
  63   1.0000      -0.375602       -10.2207
  64   1.0000      -0.370968       -10.0945
  65   0.0000      -0.105995        -2.8843
  66   0.0000       0.007677         0.2089
  67   0.0000       0.028652         0.7797
  68   0.0000       0.030272         0.8237
  69   0.0000       0.035676         0.9708

----------------------------------------------------------------------------------------------------
          SPIN FLIP ABSORPTION SPECTRUM VIA TRANSITION ELECTRIC DIPOLE MOMENTS
----------------------------------------------------------------------------------------------------
     Transition      Energy     Energy  Wavelength fosc(D2)      D2        DX        DY        DZ
                      (eV)      (cm-1)    (nm)                 (au**2)    (au)      (au)      (au)
----------------------------------------------------------------------------------------------------
  1-3A  ->  2-3A    4.316007   34810.9   287.3   0.004987929   0.04717   0.19811   0.03781  -0.08059

Dispersion correction             ... done (  0.0 sec)

MULLIKEN ATOMIC CHARGES AND SPIN DENSITIES
------------------------------------------
   0 O :   -0.696400   -0.028636
   1 O :   -0.579313   -0.002437
   2 O :   -0.663606   -0.004394
   3 O :   -0.608223    0.006999
   4 N :   -0.003821    0.052890
   5 N :   -0.230231    0.000577
   6 N :   -0.050934    0.006710
   7 N :    0.041602   -0.000941
   8 C :    1.289536    0.267255
   9 C :    2.009226   -0.285726
  10 C :    0.185899   -0.269867
  11 C :   -1.147272    0.413183
  12 C :   -1.667542    0.024709
  13 C :   -1.603701    0.004345
  14 C :    0.102806   -0.160745
  15 C :   -0.190278    0.013134
  16 C :    0.475069   -0.002088
  17 C :    0.223580   -0.027427
  18 H :    0.250203   -0.024510
  19 H :    0.399577   -0.023425
  20 H :    0.301439    0.005078
  21 H :    0.379277    0.000275
  22 H :    0.352128    0.008664
  23 H :    0.414866    0.001491
  24 H :    0.367084    0.004844
  25 H :    0.289386   -0.002191
  26 H :    0.055248    0.000738
  27 H :    0.149206    0.020285
  28 H :    0.062767    0.001080
  29 H :    0.092424    0.000129
Sum of atomic charges       :    0.0000000

LOEWDIN ATOMIC CHARGES AND SPIN DENSITIES
-----------------------------------------
   0 O :    0.067358   -0.027927
   1 O :    0.141269   -0.001604
   2 O :    0.087943   -0.004516
   3 O :    0.100293   -0.000259
   4 N :    0.299771    0.007024
   5 N :    0.293707    0.002712
   6 N :    0.320859    0.001169
   7 N :    0.354159   -0.000625
   8 C :   -0.114224    0.027430
   9 C :   -0.289921    0.002470
  10 C :   -0.088516    0.006128
  11 C :    0.122061    0.011063
  12 C :    0.218753    0.008818
  13 C :    0.236481    0.004028
  14 C :   -0.466120   -0.026516
  15 C :   -0.352961   -0.000666
  16 C :   -0.487485   -0.001964
  17 C :   -0.485155   -0.003864
  18 H :    0.061867    0.002288
  19 H :    0.007852   -0.008301
  20 H :    0.009229    0.001720
  21 H :   -0.002601   -0.000347
  22 H :    0.024326    0.004897
  23 H :    0.014985    0.000709
  24 H :    0.007602   -0.000261
  25 H :   -0.015471   -0.000353
  26 H :   -0.022617   -0.001238
  27 H :   -0.031471   -0.002192
  28 H :   -0.008685    0.000172
  29 H :   -0.003286    0.000007

  Mayer bond orders larger than 0.100000
B(  0-O , 14-C ) :   1.3072 B(  1-O , 15-C ) :   1.5886 B(  2-O , 16-C ) :   1.5376
B(  3-O , 17-C ) :   1.6589 B(  4-N , 10-C ) :   0.7895 B(  4-N , 11-C ) :  -0.1280
B(  4-N , 15-C ) :   0.1217 B(  4-N , 16-C ) :   1.0418 B(  4-N , 26-H ) :   1.0907
B(  5-N ,  9-C ) :   0.1373 B(  5-N , 15-C ) :   0.2175 B(  5-N , 17-C ) :   1.2469
B(  5-N , 27-H ) :   1.0073 B(  6-N ,  8-C ) :   0.1623 B(  6-N , 14-C ) :   0.6425
B(  6-N , 16-C ) :   0.9974 B(  6-N , 28-H ) :   1.0499 B(  7-N ,  9-C ) :   0.1129
B(  7-N , 15-C ) :   0.9724 B(  7-N , 17-C ) :   1.0244 B(  7-N , 29-H ) :   1.0497
B(  8-C ,  9-C ) :   0.2311 B(  8-C , 10-C ) :   0.3938 B(  8-C , 11-C ) :   0.3521
B(  8-C , 12-C ) :   0.1505 B(  8-C , 14-C ) :   0.5649 B(  8-C , 18-H ) :  -0.1388
B(  8-C , 21-H ) :  -0.1128 B(  9-C , 10-C ) :   0.1515 B(  9-C , 11-C ) :   0.7522
B(  9-C , 13-C ) :   0.4163 B(  9-C , 17-C ) :  -0.1375 B( 10-C , 11-C ) :   0.2158
B( 10-C , 12-C ) :  -0.2564 B( 10-C , 14-C ) :  -0.1389 B( 10-C , 15-C ) :  -0.2141
B( 10-C , 16-C ) :  -0.1093 B( 10-C , 18-H ) :   1.2350 B( 10-C , 19-H ) :  -0.1009
B( 11-C , 15-C ) :   0.4711 B( 11-C , 18-H ) :  -0.1026 B( 11-C , 19-H ) :   0.9164
B( 12-C , 20-H ) :   0.9890 B( 12-C , 21-H ) :   0.9971 B( 12-C , 22-H ) :   0.8529
B( 13-C , 23-H ) :   0.8501 B( 13-C , 24-H ) :   0.9167 B( 13-C , 25-H ) :   1.0242
B( 14-C , 16-C ) :  -0.1494

Dispersion correction           -0.058488613
FINAL SINGLE POINT ENERGY      -908.688715267172

DIPOLE MOMENT
-------------

Method             : TDA/CIS
Type of density    : Electron Density
Level              : Relaxed density
State              :   2
Multiplicity       :   3
Irrep              :   0
Energy             :     0.0000000000000000 Eh
Relativity type    :
Basis              : AO
                                X                 Y                 Z
Electronic contribution:     -3.901767159      -8.824701138      -6.976630536
Nuclear contribution   :      3.959968042       9.756527169       9.191647900
                        -----------------------------------------
Total Dipole Moment    :      0.058200883       0.931826031       2.215017363
                        -----------------------------------------
Magnitude (a.u.)       :      2.403744790
Magnitude (Debye)      :      6.109833700

Rotational constants in cm-1:             0.022728             0.013550             0.011306
Rotational constants in MHz :           681.380336           406.221140           338.955176

                             ****ORCA TERMINATED NORMALLY****
TOTAL RUN TIME: 0 days 0 hours 6 minutes 10 seconds 810 msec
