                         Program Version 6.0.0  -   RELEASE  -
|  1> ! Engrad def2-TZVPPD wB97M-D3BJ
|  2> %pal nprocs 8 end%pal nprocs 64 end
|  3> %tddft
|  4>  Iroot 2 Nroots 3
|  5> sf true
|  6> end
|  7> *xyz 0 3
|  8> O   2.88956191 -0.31756108 -1.75999235
|  9> O   -1.57001825 1.18936145 -2.09847381
| 10> O   -0.74742908 -2.81501205 -0.94773932
| 11> O   -3.20136135 -0.2217326 1.86727775
| 12> N   0.06953567 -1.61431433 0.78984767
| 13> N   -1.26781802 0.97058607 1.87484526
| 14> N   1.06503513 -1.51213183 -1.29099581
| 15> N   -2.36725056 0.52551527 -0.12564894
| 16> C   2.14902073 -0.2515517 0.44590378
| 17> C   -0.18343544 1.35492857 -0.20950008
| 18> C   0.86926842 -0.45410064 1.20106687
| 19> C   0.07426879 0.90891641 1.20457745
| 20> C   3.29726819 0.56325567 0.88030668
| 21> C   0.72671797 2.27076972 -0.91345259
| 22> C   2.0999477 -0.66555857 -0.9513711
| 23> C   -1.37714436 1.0524915 -0.89140425
| 24> C   0.04513639 -2.05546584 -0.47298426
| 25> C   -2.32318003 0.37377398 1.25549795
| 26> H   1.00303501 -0.55228116 2.22723916
| 27> H   0.6868954 1.63022256 1.69120843
| 28> H   3.78182325 -0.0024085 1.69261091
| 29> H   4.00031073 0.88047576 -0.00439936
| 30> H   2.97455996 1.53678573 1.29383553
| 31> H   0.31686636 2.68329747 -1.77943212
| 32> H   0.70685901 3.19506907 -0.32192691
| 33> H   1.66332522 1.83378465 -1.12177791
| 34> H   -0.67960284 -1.87596156 1.37901119
| 35> H   -1.3112544 0.68683705 2.85875432
| 36> H   0.88025635 -1.67454929 -2.30950722
| 37> H   -3.29490608 0.50098495 -0.56673557
| 38> *
| 39>
| 40>                          ****END OF INPUT****

CARTESIAN COORDINATES (ANGSTROEM)
---------------------------------
  O      2.889562   -0.317561   -1.759992
  O     -1.570018    1.189361   -2.098474
  O     -0.747429   -2.815012   -0.947739
  O     -3.201361   -0.221733    1.867278
  N      0.069536   -1.614314    0.789848
  N     -1.267818    0.970586    1.874845
  N      1.065035   -1.512132   -1.290996
  N     -2.367251    0.525515   -0.125649
  C      2.149021   -0.251552    0.445904
  C     -0.183435    1.354929   -0.209500
  C      0.869268   -0.454101    1.201067
  C      0.074269    0.908916    1.204577
  C      3.297268    0.563256    0.880307
  C      0.726718    2.270770   -0.913453
  C      2.099948   -0.665559   -0.951371
  C     -1.377144    1.052491   -0.891404
  C      0.045136   -2.055466   -0.472984
  C     -2.323180    0.373774    1.255498
  H      1.003035   -0.552281    2.227239
  H      0.686895    1.630223    1.691208
  H      3.781823   -0.002408    1.692611
  H      4.000311    0.880476   -0.004399
  H      2.974560    1.536786    1.293836
  H      0.316866    2.683297   -1.779432
  H      0.706859    3.195069   -0.321927
  H      1.663325    1.833785   -1.121778
  H     -0.679603   -1.875962    1.379011
  H     -1.311254    0.686837    2.858754
  H      0.880256   -1.674549   -2.309507
  H     -3.294906    0.500985   -0.566736

 Total Charge           Charge          ....    0
 Multiplicity           Mult            ....    3
 Number of Electrons    NEL             ....  132
 Basis Dimension        Dim             ....  882

ORBITAL ENERGIES
----------------
                 SPIN UP ORBITALS
  NO   OCC          E(Eh)            E(eV)
   0   1.0000     -19.331253      -526.0301
   1   1.0000     -19.327652      -525.9321
   2   1.0000     -19.325951      -525.8859
   3   1.0000     -19.316864      -525.6386
   4   1.0000     -14.570572      -396.4854
   5   1.0000     -14.565459      -396.3463
   6   1.0000     -14.561162      -396.2294
   7   1.0000     -14.557792      -396.1377
   8   1.0000     -10.508718      -285.9567
   9   1.0000     -10.500832      -285.7422
  10   1.0000     -10.475686      -285.0579
  11   1.0000     -10.469004      -284.8761
  12   1.0000     -10.449902      -284.3563
  13   1.0000     -10.449646      -284.3493
  14   1.0000     -10.422209      -283.6027
  15   1.0000     -10.411146      -283.3017
  16   1.0000     -10.389631      -282.7162
  17   1.0000     -10.356166      -281.8056
  18   1.0000      -1.228942       -33.4412
  19   1.0000      -1.220881       -33.2219
  20   1.0000      -1.210617       -32.9426
  21   1.0000      -1.190768       -32.4025
  22   1.0000      -1.120923       -30.5019
  23   1.0000      -1.101476       -29.9727
  24   1.0000      -1.064358       -28.9627
  25   1.0000      -1.054226       -28.6870
  26   1.0000      -0.993505       -27.0346
  27   1.0000      -0.959716       -26.1152
  28   1.0000      -0.899370       -24.4731
  29   1.0000      -0.845029       -22.9944
  30   1.0000      -0.828597       -22.5473
  31   1.0000      -0.806206       -21.9380
  32   1.0000      -0.786198       -21.3935
  33   1.0000      -0.783982       -21.3332
  34   1.0000      -0.702562       -19.1177
  35   1.0000      -0.694341       -18.8940
  36   1.0000      -0.687485       -18.7074
  37   1.0000      -0.679297       -18.4846
  38   1.0000      -0.659900       -17.9568
  39   1.0000      -0.639490       -17.4014
  40   1.0000      -0.616654       -16.7800
  41   1.0000      -0.609299       -16.5799
  42   1.0000      -0.600446       -16.3390
  43   1.0000      -0.592221       -16.1152
  44   1.0000      -0.583798       -15.8860
  45   1.0000      -0.575899       -15.6710
  46   1.0000      -0.568638       -15.4734
  47   1.0000      -0.565405       -15.3854
  48   1.0000      -0.561724       -15.2853
  49   1.0000      -0.558905       -15.2086
  50   1.0000      -0.547811       -14.9067
  51   1.0000      -0.540067       -14.6960
  52   1.0000      -0.534179       -14.5357
  53   1.0000      -0.529006       -14.3950
  54   1.0000      -0.505376       -13.7520
  55   1.0000      -0.497763       -13.5448
  56   1.0000      -0.482677       -13.1343
  57   1.0000      -0.433081       -11.7847
  58   1.0000      -0.419219       -11.4075
  59   1.0000      -0.411107       -11.1868
  60   1.0000      -0.408191       -11.1074
  61   1.0000      -0.403495       -10.9797
  62   1.0000      -0.396068       -10.7776
  63   1.0000      -0.389610       -10.6018
  64   1.0000      -0.384809       -10.4712
  65   1.0000      -0.345871        -9.4116
  66   1.0000      -0.332099        -9.0369
  67   0.0000       0.007422         0.2020
  68   0.0000       0.029789         0.8106
  69   0.0000       0.032189         0.8759
  70   0.0000       0.038157         1.0383
  71   0.0000       0.054376         1.4796

                 SPIN DOWN ORBITALS
  NO   OCC          E(Eh)            E(eV)
   0   1.0000     -19.327892      -525.9387
   1   1.0000     -19.327475      -525.9273
   2   1.0000     -19.321020      -525.7517
   3   1.0000     -19.316828      -525.6376
   4   1.0000     -14.570109      -396.4728
   5   1.0000     -14.565386      -396.3443
   6   1.0000     -14.560557      -396.2129
   7   1.0000     -14.556882      -396.1129
   8   1.0000     -10.508760      -285.9579
   9   1.0000     -10.500885      -285.7436
  10   1.0000     -10.476592      -285.0826
  11   1.0000     -10.470044      -284.9044
  12   1.0000     -10.449576      -284.3474
  13   1.0000     -10.449212      -284.3375
  14   1.0000     -10.410515      -283.2845
  15   1.0000     -10.399906      -282.9958
  16   1.0000     -10.390210      -282.7320
  17   1.0000     -10.356583      -281.8169
  18   1.0000      -1.225928       -33.3592
  19   1.0000      -1.219195       -33.1760
  20   1.0000      -1.208332       -32.8804
  21   1.0000      -1.184976       -32.2448
  22   1.0000      -1.118513       -30.4363
  23   1.0000      -1.099248       -29.9121
  24   1.0000      -1.062027       -28.8992
  25   1.0000      -1.052430       -28.6381
  26   1.0000      -0.980477       -26.6801
  27   1.0000      -0.942040       -25.6342
  28   1.0000      -0.892884       -24.2966
  29   1.0000      -0.840269       -22.8649
  30   1.0000      -0.819532       -22.3006
  31   1.0000      -0.800479       -21.7821
  32   1.0000      -0.784650       -21.3514
  33   1.0000      -0.782414       -21.2906
  34   1.0000      -0.697919       -18.9913
  35   1.0000      -0.688691       -18.7402
  36   1.0000      -0.681268       -18.5383
  37   1.0000      -0.672011       -18.2863
  38   1.0000      -0.646180       -17.5834
  39   1.0000      -0.635137       -17.2830
  40   1.0000      -0.613843       -16.7035
  41   1.0000      -0.602558       -16.3964
  42   1.0000      -0.593190       -16.1415
  43   1.0000      -0.584974       -15.9180
  44   1.0000      -0.576858       -15.6971
  45   1.0000      -0.569428       -15.4949
  46   1.0000      -0.563459       -15.3325
  47   1.0000      -0.559007       -15.2114
  48   1.0000      -0.556256       -15.1365
  49   1.0000      -0.551631       -15.0106
  50   1.0000      -0.539541       -14.6817
  51   1.0000      -0.530218       -14.4280
  52   1.0000      -0.527480       -14.3535
  53   1.0000      -0.519818       -14.1450
  54   1.0000      -0.496872       -13.5206
  55   1.0000      -0.494570       -13.4579
  56   1.0000      -0.478209       -13.0127
  57   1.0000      -0.428681       -11.6650
  58   1.0000      -0.416128       -11.3234
  59   1.0000      -0.407544       -11.0898
  60   1.0000      -0.394905       -10.7459
  61   1.0000      -0.390167       -10.6170
  62   1.0000      -0.387552       -10.5458
  63   1.0000      -0.385609       -10.4929
  64   1.0000      -0.377389       -10.2693
  65   0.0000      -0.059015        -1.6059
  66   0.0000      -0.053804        -1.4641
  67   0.0000       0.007045         0.1917
  68   0.0000       0.029659         0.8071
  69   0.0000       0.031979         0.8702

----------------------------------------------------------------------------------------------------
          SPIN FLIP ABSORPTION SPECTRUM VIA TRANSITION ELECTRIC DIPOLE MOMENTS
----------------------------------------------------------------------------------------------------
     Transition      Energy     Energy  Wavelength fosc(D2)      D2        DX        DY        DZ
                      (eV)      (cm-1)    (nm)                 (au**2)    (au)      (au)      (au)
----------------------------------------------------------------------------------------------------
  1-3A  ->  2-3A    0.002822      22.8  439287.4   0.000000012   0.00017  -0.01294   0.00058  -0.00008
  1-3A  ->  3-3A    2.058850   16605.7   602.2   0.000608534   0.01206  -0.02138  -0.01516  -0.10666

Dispersion correction             ... done (  0.1 sec)

MULLIKEN ATOMIC CHARGES AND SPIN DENSITIES
------------------------------------------
   0 O :   -0.644972   -0.123256
   1 O :   -0.701637    0.178506
   2 O :   -0.638955   -0.002722
   3 O :   -0.650499    0.001062
   4 N :   -0.161774   -0.018072
   5 N :   -0.360744    0.015006
   6 N :   -0.079335   -0.016149
   7 N :    0.046320    0.025672
   8 C :    0.896475    0.180248
   9 C :    0.015331    0.311319
  10 C :   -0.077906   -0.337629
  11 C :    0.650460    0.071452
  12 C :   -1.219094   -0.086146
  13 C :   -1.304613    0.040688
  14 C :   -0.048354   -0.430736
  15 C :    0.245045    0.160960
  16 C :    0.502857    0.030886
  17 C :    0.326382   -0.006453
  18 H :    0.505432   -0.043786
  19 H :    0.524408    0.016157
  20 H :    0.404723   -0.001806
  21 H :    0.265045   -0.007638
  22 H :    0.315572    0.001391
  23 H :    0.307369    0.009839
  24 H :    0.346758    0.011211
  25 H :    0.217402    0.008747
  26 H :    0.006058    0.003203
  27 H :    0.136303   -0.000301
  28 H :    0.087318    0.009351
  29 H :    0.088625   -0.001004
Sum of atomic charges       :    0.0000000

LOEWDIN ATOMIC CHARGES AND SPIN DENSITIES
-----------------------------------------
   0 O :    0.102236   -0.106454
   1 O :    0.092761    0.157660
   2 O :    0.109453   -0.002344
   3 O :    0.076430    0.000741
   4 N :    0.318852   -0.002620
   5 N :    0.284971    0.002950
   6 N :    0.319625   -0.017568
   7 N :    0.318908    0.022835
   8 C :   -0.019247   -0.489325
   9 C :   -0.026955    0.475390
  10 C :   -0.067837   -0.036874
  11 C :   -0.058929    0.013969
  12 C :    0.168141   -0.075188
  13 C :    0.236175    0.064429
  14 C :   -0.494300   -0.085180
  15 C :   -0.429563    0.086867
  16 C :   -0.504047    0.000065
  17 C :   -0.493969    0.000580
  18 H :    0.011719   -0.005622
  19 H :    0.026202    0.002712
  20 H :    0.010722   -0.023617
  21 H :    0.062590    0.000490
  22 H :   -0.000873   -0.017890
  23 H :   -0.029392   -0.001137
  24 H :    0.026415    0.020786
  25 H :   -0.030439    0.013937
  26 H :   -0.044482   -0.000330
  27 H :   -0.019405    0.000252
  28 H :    0.034746   -0.001318
  29 H :    0.019493    0.001803

  Mayer bond orders larger than 0.100000
B(  0-O , 14-C ) :   1.5044 B(  1-O , 15-C ) :   1.3041 B(  2-O , 16-C ) :   1.5422
B(  3-O , 17-C ) :   1.5770 B(  4-N , 10-C ) :   0.4995 B(  4-N , 16-C ) :   0.9972
B(  4-N , 26-H ) :   1.1216 B(  5-N ,  9-C ) :   0.4128 B(  5-N , 11-C ) :  -0.2272
B(  5-N , 15-C ) :   0.1408 B(  5-N , 17-C ) :   1.1191 B(  5-N , 19-H ) :  -0.1353
B(  5-N , 27-H ) :   0.9719 B(  6-N , 10-C ) :   0.1137 B(  6-N , 14-C ) :   0.9933
B(  6-N , 16-C ) :   0.8994 B(  6-N , 28-H ) :   1.0797 B(  7-N ,  9-C ) :  -0.1278
B(  7-N , 11-C ) :   0.1000 B(  7-N , 15-C ) :   1.1294 B(  7-N , 17-C ) :   0.9746
B(  7-N , 29-H ) :   1.0461 B(  8-C ,  9-C ) :   0.1082 B(  8-C , 10-C ) :   0.6240
B(  8-C , 11-C ) :   0.1666 B(  8-C , 12-C ) :   0.4751 B(  8-C , 14-C ) :   0.4089
B(  9-C , 10-C ) :   0.1926 B(  9-C , 11-C ) :  -0.3399 B(  9-C , 13-C ) :   0.4035
B(  9-C , 15-C ) :   0.8411 B(  9-C , 19-H ) :  -0.2970 B(  9-C , 23-H ) :  -0.1490
B( 10-C , 11-C ) :   0.6380 B( 10-C , 14-C ) :   0.1252 B( 10-C , 16-C ) :  -0.1133
B( 10-C , 18-H ) :   0.6768 B( 11-C , 13-C ) :  -0.2750 B( 11-C , 15-C ) :  -0.2429
B( 11-C , 17-C ) :  -0.1049 B( 11-C , 19-H ) :   1.1228 B( 12-C , 20-H ) :   0.8983
B( 12-C , 21-H ) :   1.0093 B( 12-C , 22-H ) :   0.8406 B( 13-C , 23-H ) :   1.0475
B( 13-C , 24-H ) :   0.9398 B( 13-C , 25-H ) :   0.8894

Dispersion correction           -0.059911268
FINAL SINGLE POINT ENERGY      -908.768335050560

DIPOLE MOMENT
-------------

Method             : TDA/CIS
Type of density    : Electron Density
Level              : Relaxed density
State              :   2
Multiplicity       :   3
Irrep              :   0
Energy             :     0.0000000000000000 Eh
Relativity type    :
Basis              : AO
                                X                 Y                 Z
Electronic contribution:     -8.649693588      -7.346764627      -2.728700667
Nuclear contribution   :     10.087886358       8.765150826       4.954146241
                        -----------------------------------------
Total Dipole Moment    :      1.438192770       1.418386199       2.225445574
                        -----------------------------------------
Magnitude (a.u.)       :      3.005465997
Magnitude (Debye)      :      7.639287460

Rotational constants in cm-1:             0.021246             0.013225             0.012465
Rotational constants in MHz :           636.934223           396.477021           373.694293

                             ****ORCA TERMINATED NORMALLY****
TOTAL RUN TIME: 0 days 0 hours 5 minutes 25 seconds 559 msec
