                         Program Version 6.0.0  -   RELEASE  -
|  1> ! Engrad def2-TZVPPD wB97M-D3BJ
|  2> %pal nprocs 8 end%pal nprocs 64 end
|  3> %tddft
|  4> Iroot 3 Nroots 3
|  5> sf true
|  6> end
|  7> *xyz 0 3
|  8> O   2.9470029541257454 0.7856777451894393 -0.7311513627566663
|  9> O   -0.3944404300568816 1.1186842697697579 -2.297910753097744
| 10> O   0.4952955801111135 -2.991115705949361 -0.8727320766525729
| 11> O   -3.1154498714054797 -1.4790418705510904 0.12065079046946314
| 12> N   0.34173434231302413 -1.6974366403392878 0.9407390480043365
| 13> N   -2.0911673500863923 0.16343402828790832 1.1973501527416777
| 14> N   1.6537490944834066 -1.0529344569549985 -0.8127515327702832
| 15> N   -1.5977380693674346 -0.2786023205750135 -1.0126704621499596
| 16> C   1.4372539241219244 0.45470848466223784 0.9859736729434535
| 17> C   -0.5448924239682806 1.5747578550354497 0.008203156028183906
| 18> C   0.48366245511124883 -0.45730963071409403 1.5857673175692149
| 19> C   -0.948063861040555 0.9396765133739349 1.2637341944045202
| 20> C   2.044782297382121 1.467298581950539 1.8210795816068417
| 21> C   -0.41435384734969233 3.0044245165631316 -0.08761132140528324
| 22> C   2.0960124361721677 0.09831541713742242 -0.240341159794097
| 23> C   -0.8103846493104817 0.8254631430511753 -1.2096117840292806
| 24> C   0.7999177718044417 -1.9852054444463048 -0.2939908782696048
| 25> C   -2.3146178933093524 -0.5924741773437032 0.11153030882446995
| 26> H   0.5897026546853993 -0.5999666525497092 2.655635036989489
| 27> H   -1.0347323866189146 1.6454235815348317 2.0787066715536424
| 28> H   2.348243079131111 2.3203739428327546 1.2217047632073408
| 29> H   1.4147767459850458 1.842691907326957 2.624042184092389
| 30> H   2.9483402449357956 1.1444998457447957 2.33537915426916
| 31> H   -1.4105179720024106 3.4177586455403204 -0.25930066769338306
| 32> H   0.01391746765948901 3.525452624581573 0.759081778604478
| 33> H   0.18325849800789662 3.289162592914129 -0.948537000035439
| 34> H   -0.3279880581230854 -2.3611062346077976 1.281090458698213
| 35> H   -2.5839837145969216 -0.09379767023831717 2.02898970760021
| 36> H   2.0307699246016453 -1.2813289365052574 -1.7172245692814563
| 37> H   -1.787488943395687 -0.8324839547214911 -1.831224409671301
| 38> *
| 39>
| 40>                          ****END OF INPUT****

CARTESIAN COORDINATES (ANGSTROEM)
---------------------------------
  O      2.947003    0.785678   -0.731151
  O     -0.394440    1.118684   -2.297911
  O      0.495296   -2.991116   -0.872732
  O     -3.115450   -1.479042    0.120651
  N      0.341734   -1.697437    0.940739
  N     -2.091167    0.163434    1.197350
  N      1.653749   -1.052934   -0.812752
  N     -1.597738   -0.278602   -1.012670
  C      1.437254    0.454708    0.985974
  C     -0.544892    1.574758    0.008203
  C      0.483662   -0.457310    1.585767
  C     -0.948064    0.939677    1.263734
  C      2.044782    1.467299    1.821080
  C     -0.414354    3.004425   -0.087611
  C      2.096012    0.098315   -0.240341
  C     -0.810385    0.825463   -1.209612
  C      0.799918   -1.985205   -0.293991
  C     -2.314618   -0.592474    0.111530
  H      0.589703   -0.599967    2.655635
  H     -1.034732    1.645424    2.078707
  H      2.348243    2.320374    1.221705
  H      1.414777    1.842692    2.624042
  H      2.948340    1.144500    2.335379
  H     -1.410518    3.417759   -0.259301
  H      0.013917    3.525453    0.759082
  H      0.183258    3.289163   -0.948537
  H     -0.327988   -2.361106    1.281090
  H     -2.583984   -0.093798    2.028990
  H      2.030770   -1.281329   -1.717225
  H     -1.787489   -0.832484   -1.831224

 Total Charge           Charge          ....    0
 Multiplicity           Mult            ....    3
 Number of Electrons    NEL             ....  132
 Basis Dimension        Dim             ....  882

ORBITAL ENERGIES
----------------
                 SPIN UP ORBITALS
  NO   OCC          E(Eh)            E(eV)
   0   1.0000     -19.327695      -525.9333
   1   1.0000     -19.317453      -525.6546
   2   1.0000     -19.316068      -525.6169
   3   1.0000     -19.314968      -525.5870
   4   1.0000     -14.571071      -396.4990
   5   1.0000     -14.570017      -396.4703
   6   1.0000     -14.563750      -396.2998
   7   1.0000     -14.556571      -396.1044
   8   1.0000     -10.500619      -285.7364
   9   1.0000     -10.500285      -285.7273
  10   1.0000     -10.474552      -285.0270
  11   1.0000     -10.461770      -284.6792
  12   1.0000     -10.446430      -284.2618
  13   1.0000     -10.445203      -284.2284
  14   1.0000     -10.404731      -283.1271
  15   1.0000     -10.389809      -282.7211
  16   1.0000     -10.364127      -282.0222
  17   1.0000     -10.359000      -281.8827
  18   1.0000      -1.235254       -33.6130
  19   1.0000      -1.226988       -33.3880
  20   1.0000      -1.203969       -32.7617
  21   1.0000      -1.196036       -32.5458
  22   1.0000      -1.128837       -30.7172
  23   1.0000      -1.114499       -30.3271
  24   1.0000      -1.077096       -29.3093
  25   1.0000      -1.069756       -29.1095
  26   1.0000      -0.984339       -26.7852
  27   1.0000      -0.954814       -25.9818
  28   1.0000      -0.868537       -23.6341
  29   1.0000      -0.846967       -23.0471
  30   1.0000      -0.826802       -22.4984
  31   1.0000      -0.811467       -22.0811
  32   1.0000      -0.799368       -21.7519
  33   1.0000      -0.792295       -21.5594
  34   1.0000      -0.705511       -19.1979
  35   1.0000      -0.701110       -19.0782
  36   1.0000      -0.697743       -18.9865
  37   1.0000      -0.680243       -18.5103
  38   1.0000      -0.662571       -18.0295
  39   1.0000      -0.640293       -17.4233
  40   1.0000      -0.632571       -17.2131
  41   1.0000      -0.597780       -16.2664
  42   1.0000      -0.597404       -16.2562
  43   1.0000      -0.589075       -16.0296
  44   1.0000      -0.583133       -15.8679
  45   1.0000      -0.567979       -15.4555
  46   1.0000      -0.563678       -15.3385
  47   1.0000      -0.560376       -15.2486
  48   1.0000      -0.554784       -15.0964
  49   1.0000      -0.552685       -15.0393
  50   1.0000      -0.544523       -14.8172
  51   1.0000      -0.542684       -14.7672
  52   1.0000      -0.535714       -14.5775
  53   1.0000      -0.515741       -14.0340
  54   1.0000      -0.512503       -13.9459
  55   1.0000      -0.496112       -13.4999
  56   1.0000      -0.492171       -13.3927
  57   1.0000      -0.437772       -11.9124
  58   1.0000      -0.416964       -11.3462
  59   1.0000      -0.411063       -11.1856
  60   1.0000      -0.405876       -11.0444
  61   1.0000      -0.401997       -10.9389
  62   1.0000      -0.389921       -10.6103
  63   1.0000      -0.386609       -10.5202
  64   1.0000      -0.384116       -10.4523
  65   1.0000      -0.311600        -8.4791
  66   1.0000      -0.285331        -7.7643
  67   0.0000       0.006006         0.1634
  68   0.0000       0.025818         0.7026
  69   0.0000       0.031783         0.8648
  70   0.0000       0.037704         1.0260
  71   0.0000       0.050922         1.3857

                 SPIN DOWN ORBITALS
  NO   OCC          E(Eh)            E(eV)
   0   1.0000     -19.324912      -525.8576
   1   1.0000     -19.317216      -525.6482
   2   1.0000     -19.315491      -525.6012
   3   1.0000     -19.311270      -525.4864
   4   1.0000     -14.570416      -396.4812
   5   1.0000     -14.568646      -396.4330
   6   1.0000     -14.563240      -396.2859
   7   1.0000     -14.556050      -396.0902
   8   1.0000     -10.500652      -285.7373
   9   1.0000     -10.500289      -285.7274
  10   1.0000     -10.475232      -285.0455
  11   1.0000     -10.462055      -284.6870
  12   1.0000     -10.443363      -284.1784
  13   1.0000     -10.443291      -284.1764
  14   1.0000     -10.394214      -282.8409
  15   1.0000     -10.380130      -282.4577
  16   1.0000     -10.364444      -282.0308
  17   1.0000     -10.359485      -281.8959
  18   1.0000      -1.233520       -33.5658
  19   1.0000      -1.225716       -33.3534
  20   1.0000      -1.200239       -32.6602
  21   1.0000      -1.191282       -32.4164
  22   1.0000      -1.125193       -30.6181
  23   1.0000      -1.112020       -30.2596
  24   1.0000      -1.074855       -29.2483
  25   1.0000      -1.067704       -29.0537
  26   1.0000      -0.969515       -26.3819
  27   1.0000      -0.941024       -25.6066
  28   1.0000      -0.862598       -23.4725
  29   1.0000      -0.842604       -22.9284
  30   1.0000      -0.819504       -22.2998
  31   1.0000      -0.804757       -21.8986
  32   1.0000      -0.797388       -21.6980
  33   1.0000      -0.790626       -21.5140
  34   1.0000      -0.699343       -19.0301
  35   1.0000      -0.692353       -18.8399
  36   1.0000      -0.691511       -18.8170
  37   1.0000      -0.674073       -18.3425
  38   1.0000      -0.651507       -17.7284
  39   1.0000      -0.636380       -17.3168
  40   1.0000      -0.629258       -17.1230
  41   1.0000      -0.593127       -16.1398
  42   1.0000      -0.591032       -16.0828
  43   1.0000      -0.584321       -15.9002
  44   1.0000      -0.568084       -15.4584
  45   1.0000      -0.562752       -15.3132
  46   1.0000      -0.557961       -15.1829
  47   1.0000      -0.552886       -15.0448
  48   1.0000      -0.550202       -14.9718
  49   1.0000      -0.546166       -14.8619
  50   1.0000      -0.534243       -14.5375
  51   1.0000      -0.532386       -14.4870
  52   1.0000      -0.528669       -14.3858
  53   1.0000      -0.507555       -13.8113
  54   1.0000      -0.503779       -13.7085
  55   1.0000      -0.491197       -13.3661
  56   1.0000      -0.485333       -13.2066
  57   1.0000      -0.428877       -11.6703
  58   1.0000      -0.413916       -11.2632
  59   1.0000      -0.408327       -11.1111
  60   1.0000      -0.395586       -10.7644
  61   1.0000      -0.390397       -10.6232
  62   1.0000      -0.384738       -10.4693
  63   1.0000      -0.378541       -10.3006
  64   1.0000      -0.342763        -9.3271
  65   0.0000      -0.059829        -1.6280
  66   0.0000      -0.034956        -0.9512
  67   0.0000       0.006067         0.1651
  68   0.0000       0.027249         0.7415
  69   0.0000       0.032663         0.8888

----------------------------------------------------------------------------------------------------
          SPIN FLIP ABSORPTION SPECTRUM VIA TRANSITION ELECTRIC DIPOLE MOMENTS
----------------------------------------------------------------------------------------------------
     Transition      Energy     Energy  Wavelength fosc(D2)      D2        DX        DY        DZ
                      (eV)      (cm-1)    (nm)                 (au**2)    (au)      (au)      (au)
----------------------------------------------------------------------------------------------------
  1-3A  ->  2-3A    0.234423    1890.7  5288.9   0.000261245   0.04549  -0.12652  -0.12683   0.11573
  1-3A  ->  3-1A    0.757749    6111.7  1636.2   0.009123327   0.49144  -0.48142   0.28570  -0.42196

Dispersion correction             ... done (  0.1 sec)

MULLIKEN ATOMIC CHARGES AND SPIN DENSITIES
------------------------------------------
   0 O :   -0.654110    0.014567
   1 O :   -0.723275    0.012682
   2 O :   -0.651385   -0.002259
   3 O :   -0.651356   -0.020465
   4 N :   -0.116649   -0.005477
   5 N :   -0.126592   -0.022133
   6 N :    0.047495   -0.003454
   7 N :    0.066808    0.014753
   8 C :    0.821332    0.063912
   9 C :    1.141801    0.540180
  10 C :    0.077215   -0.039467
  11 C :    0.014673   -0.371292
  12 C :   -1.675155    0.046576
  13 C :   -1.830746    0.053763
  14 C :    0.418495   -0.090582
  15 C :   -0.022654   -0.239001
  16 C :    0.472533    0.004290
  17 C :    0.341058    0.015959
  18 H :    0.430642    0.009465
  19 H :    0.343962   -0.001921
  20 H :    0.336768    0.000950
  21 H :    0.316829   -0.000301
  22 H :    0.372962    0.003218
  23 H :    0.409720    0.003186
  24 H :    0.382708    0.005579
  25 H :    0.315717   -0.000245
  26 H :    0.033312    0.001431
  27 H :    0.082789    0.002351
  28 H :    0.000737    0.001848
  29 H :    0.024366    0.001889
Sum of atomic charges       :   -0.0000000

LOEWDIN ATOMIC CHARGES AND SPIN DENSITIES
-----------------------------------------
   0 O :    0.148692    0.011620
   1 O :    0.078233    0.010575
   2 O :    0.111258   -0.001972
   3 O :    0.107310   -0.018957
   4 N :    0.286481   -0.004418
   5 N :    0.296302   -0.030444
   6 N :    0.364904   -0.004536
   7 N :    0.338674    0.009534
   8 C :   -0.079257    0.038243
   9 C :   -0.202831    0.036899
  10 C :    0.017254   -0.014569
  11 C :    0.017475   -0.047100
  12 C :    0.189633    0.005696
  13 C :    0.131516    0.006163
  14 C :   -0.411046   -0.001586
  15 C :   -0.474541    0.015591
  16 C :   -0.511124   -0.002517
  17 C :   -0.520083   -0.005275
  18 H :    0.047431   -0.002504
  19 H :    0.049835   -0.005701
  20 H :    0.012209    0.000947
  21 H :    0.009209    0.000176
  22 H :    0.025364    0.002636
  23 H :    0.000979    0.004205
  24 H :   -0.012522    0.001335
  25 H :    0.000029   -0.001701
  26 H :   -0.016493   -0.000200
  27 H :   -0.013425   -0.002812
  28 H :    0.009677   -0.000269
  29 H :   -0.001143    0.000936

  Mayer bond orders larger than 0.100000
B(  0-O ,  8-C ) :   0.1040 B(  0-O , 14-C ) :   1.2390 B(  1-O , 15-C ) :   1.4405
B(  2-O , 16-C ) :   1.5226 B(  3-O , 17-C ) :   1.5591 B(  4-N ,  8-C ) :   0.2313
B(  4-N , 10-C ) :   0.5307 B(  4-N , 16-C ) :   1.0454 B(  4-N , 26-H ) :   1.1097
B(  5-N ,  9-C ) :   0.1764 B(  5-N , 11-C ) :   0.4560 B(  5-N , 17-C ) :   1.1534
B(  5-N , 27-H ) :   1.0725 B(  6-N , 14-C ) :   1.0952 B(  6-N , 16-C ) :   0.9228
B(  6-N , 28-H ) :   1.1189 B(  7-N , 11-C ) :   0.1016 B(  7-N , 15-C ) :   0.8694
B(  7-N , 17-C ) :   0.9914 B(  7-N , 29-H ) :   1.1184 B(  8-C ,  9-C ) :   0.2657
B(  8-C , 10-C ) :   0.8328 B(  8-C , 11-C ) :   0.2156 B(  8-C , 12-C ) :   0.1179
B(  8-C , 14-C ) :   0.6630 B(  8-C , 15-C ) :   0.1713 B(  8-C , 16-C ) :   0.1006
B(  8-C , 20-H ) :  -0.1157 B(  8-C , 21-H ) :  -0.1653 B(  9-C , 10-C ) :  -0.1051
B(  9-C , 11-C ) :   0.5429 B(  9-C , 13-C ) :   0.1240 B(  9-C , 15-C ) :   0.3470
B(  9-C , 17-C ) :   0.1070 B(  9-C , 19-H ) :  -0.1509 B(  9-C , 25-H ) :  -0.1491
B( 10-C , 12-C ) :  -0.1664 B( 10-C , 15-C ) :  -0.1134 B( 10-C , 16-C ) :  -0.1153
B( 10-C , 18-H ) :   0.9376 B( 11-C , 13-C ) :  -0.2418 B( 11-C , 17-C ) :  -0.1948
B( 11-C , 19-H ) :   1.0322 B( 12-C , 20-H ) :   0.9700 B( 12-C , 21-H ) :   1.0905
B( 12-C , 22-H ) :   0.7812 B( 13-C , 23-H ) :   0.8214 B( 13-C , 24-H ) :   0.9028
B( 13-C , 25-H ) :   1.0754 B( 15-C , 17-C ) :  -0.1288

Dispersion correction           -0.061556659
FINAL SINGLE POINT ENERGY      -908.739524779520

DIPOLE MOMENT
-------------

Method             : TDA/CIS
Type of density    : Electron Density
Level              : Relaxed density
State              :   3
Multiplicity       :   3
Irrep              :   0
Energy             :     0.0000000000000000 Eh
Relativity type    :
Basis              : AO
                                X                 Y                 Z
Electronic contribution:     -1.908438466     -10.949876645      -6.057627952
Nuclear contribution   :      2.245712650      11.447539157       9.470968702
                        -----------------------------------------
Total Dipole Moment    :      0.337274184       0.497662512       3.413340749
                        -----------------------------------------
Magnitude (a.u.)       :      3.465878954
Magnitude (Debye)      :      8.809564193

Rotational constants in cm-1:             0.019491             0.016314             0.013341
Rotational constants in MHz :           584.327884           489.067685           399.947424

                             ****ORCA TERMINATED NORMALLY****
TOTAL RUN TIME: 0 days 0 hours 6 minutes 22 seconds 50 msec
