                         Program Version 6.0.0  -   RELEASE  -
|  1> ! Engrad def2-TZVPPD wB97M-D3BJ
|  2> %pal nprocs 8 end%pal nprocs 64 end
|  3> %tddft
|  4> Iroot 0 Nroots 3
|  5> sf true
|  6> end
|  7> *xyz 0 3
|  8> O   2.698125064571979 1.04898724930618 -0.546840117025879
|  9> O   -0.5881088179115586 0.9575782116434715 -2.3409866568323046
| 10> O   0.5150852874446257 -2.8265181414569183 -1.2779626729895368
| 11> O   -2.732596948573855 -1.5414290977250114 0.690150208134162
| 12> N   0.5121896842953252 -1.9569687425071371 0.7697736572960263
| 13> N   -2.002034460356423 0.41965002879645225 1.3394434653460479
| 14> N   1.6321308319504537 -0.9004014892687525 -0.8807492656235023
| 15> N   -1.6190090755470075 -0.29819794423761437 -0.7976145309085055
| 16> C   1.4846685174803813 0.1675883829240604 1.191034366527092
| 17> C   -0.7602999157729173 1.778254623862286 -0.14957783833185834
| 18> C   0.7144252894078525 -0.8828765007547819 1.5901590372617194
| 19> C   -1.1609752916835427 1.44467175055909 1.1072511811976902
| 20> C   1.9207943225651851 1.1623729454193856 2.1228113947091156
| 21> C   -0.36422816360381255 3.1103243550540958 -0.46275076621555084
| 22> C   2.0062233476297493 0.16690002243081525 -0.12987325945157782
| 23> C   -0.958091038861861 0.8277089252390433 -1.2073402388663934
| 24> C   0.860776014996826 -1.9577013391739666 -0.5306999991930168
| 25> C   -2.1493686597613784 -0.5349576870888146 0.4227386997119413
| 26> H   0.580592957623378 -1.1027686348001984 2.63378337386951
| 27> H   -1.1764345402608591 2.19076096669344 1.876853867265524
| 28> H   1.7952019007870788 2.1552792112567025 1.698583716324026
| 29> H   1.3999546846664799 1.1744738051675068 3.0802423107930985
| 30> H   2.968115814115836 1.1412262564910138 2.415098723526153
| 31> H   -1.146837575570334 3.5294598868656117 -1.0954833851156545
| 32> H   -0.16410734319891654 3.8131744452155463 0.3360618660477676
| 33> H   0.5362376759207722 3.1279610850225317 -1.0736652069142512
| 34> H   -0.1314454672613553 -2.679672101394137 1.025297436771296
| 35> H   -2.369682241795312 0.2607718730105339 2.253017629575042
| 36> H   1.8905027416991818 -0.8733184676829786 -1.8527992870584336
| 37> H   -1.739204594995991 -1.0073338788675215 -1.5013577098297466
| 38> *
| 39>
| 40>                          ****END OF INPUT****

CARTESIAN COORDINATES (ANGSTROEM)
---------------------------------
  O      2.698125    1.048987   -0.546840
  O     -0.588109    0.957578   -2.340987
  O      0.515085   -2.826518   -1.277963
  O     -2.732597   -1.541429    0.690150
  N      0.512190   -1.956969    0.769774
  N     -2.002034    0.419650    1.339443
  N      1.632131   -0.900401   -0.880749
  N     -1.619009   -0.298198   -0.797615
  C      1.484669    0.167588    1.191034
  C     -0.760300    1.778255   -0.149578
  C      0.714425   -0.882877    1.590159
  C     -1.160975    1.444672    1.107251
  C      1.920794    1.162373    2.122811
  C     -0.364228    3.110324   -0.462751
  C      2.006223    0.166900   -0.129873
  C     -0.958091    0.827709   -1.207340
  C      0.860776   -1.957701   -0.530700
  C     -2.149369   -0.534958    0.422739
  H      0.580593   -1.102769    2.633783
  H     -1.176435    2.190761    1.876854
  H      1.795202    2.155279    1.698584
  H      1.399955    1.174474    3.080242
  H      2.968116    1.141226    2.415099
  H     -1.146838    3.529460   -1.095483
  H     -0.164107    3.813174    0.336062
  H      0.536238    3.127961   -1.073665
  H     -0.131445   -2.679672    1.025297
  H     -2.369682    0.260772    2.253018
  H      1.890503   -0.873318   -1.852799
  H     -1.739205   -1.007334   -1.501358

 Total Charge           Charge          ....    0
 Multiplicity           Mult            ....    3
 Number of Electrons    NEL             ....  132
 Basis Dimension        Dim             ....  882

ORBITAL ENERGIES
----------------
                 SPIN UP ORBITALS
  NO   OCC          E(Eh)            E(eV)
   0   1.0000     -19.325515      -525.8740
   1   1.0000     -19.318323      -525.6783
   2   1.0000     -19.315130      -525.5914
   3   1.0000     -19.313159      -525.5378
   4   1.0000     -14.586606      -396.9217
   5   1.0000     -14.575970      -396.6323
   6   1.0000     -14.562250      -396.2590
   7   1.0000     -14.554757      -396.0551
   8   1.0000     -10.502682      -285.7925
   9   1.0000     -10.499349      -285.7018
  10   1.0000     -10.464787      -284.7613
  11   1.0000     -10.456922      -284.5473
  12   1.0000     -10.431368      -283.8520
  13   1.0000     -10.398594      -282.9601
  14   1.0000     -10.394665      -282.8532
  15   1.0000     -10.373821      -282.2860
  16   1.0000     -10.358330      -281.8645
  17   1.0000     -10.351772      -281.6860
  18   1.0000      -1.244893       -33.8753
  19   1.0000      -1.232317       -33.5331
  20   1.0000      -1.200395       -32.6644
  21   1.0000      -1.197183       -32.5770
  22   1.0000      -1.138060       -30.9682
  23   1.0000      -1.126364       -30.6499
  24   1.0000      -1.078729       -29.3537
  25   1.0000      -1.076322       -29.2882
  26   1.0000      -0.983573       -26.7644
  27   1.0000      -0.963811       -26.2266
  28   1.0000      -0.860518       -23.4159
  29   1.0000      -0.853790       -23.2328
  30   1.0000      -0.823559       -22.4102
  31   1.0000      -0.817047       -22.2330
  32   1.0000      -0.805096       -21.9078
  33   1.0000      -0.798940       -21.7403
  34   1.0000      -0.707851       -19.2616
  35   1.0000      -0.705198       -19.1894
  36   1.0000      -0.699765       -19.0416
  37   1.0000      -0.695235       -18.9183
  38   1.0000      -0.657809       -17.8999
  39   1.0000      -0.640744       -17.4355
  40   1.0000      -0.637964       -17.3599
  41   1.0000      -0.609250       -16.5785
  42   1.0000      -0.597084       -16.2475
  43   1.0000      -0.592668       -16.1273
  44   1.0000      -0.582579       -15.8528
  45   1.0000      -0.571666       -15.5558
  46   1.0000      -0.563589       -15.3360
  47   1.0000      -0.556037       -15.1305
  48   1.0000      -0.551032       -14.9944
  49   1.0000      -0.548737       -14.9319
  50   1.0000      -0.538772       -14.6607
  51   1.0000      -0.536102       -14.5881
  52   1.0000      -0.533482       -14.5168
  53   1.0000      -0.514019       -13.9872
  54   1.0000      -0.503957       -13.7134
  55   1.0000      -0.493748       -13.4356
  56   1.0000      -0.492529       -13.4024
  57   1.0000      -0.470820       -12.8117
  58   1.0000      -0.419602       -11.4180
  59   1.0000      -0.411810       -11.2059
  60   1.0000      -0.410655       -11.1745
  61   1.0000      -0.399703       -10.8765
  62   1.0000      -0.387776       -10.5519
  63   1.0000      -0.383214       -10.4278
  64   1.0000      -0.379620       -10.3300
  65   1.0000      -0.336640        -9.1604
  66   1.0000      -0.218987        -5.9589
  67   0.0000       0.009120         0.2482
  68   0.0000       0.015673         0.4265
  69   0.0000       0.031290         0.8515
  70   0.0000       0.037397         1.0176
  71   0.0000       0.039702         1.0804

                 SPIN DOWN ORBITALS
  NO   OCC          E(Eh)            E(eV)
   0   1.0000     -19.323493      -525.8190
   1   1.0000     -19.314936      -525.5861
   2   1.0000     -19.313247      -525.5402
   3   1.0000     -19.313011      -525.5338
   4   1.0000     -14.582817      -396.8186
   5   1.0000     -14.575697      -396.6249
   6   1.0000     -14.562281      -396.2598
   7   1.0000     -14.553801      -396.0291
   8   1.0000     -10.502860      -285.7973
   9   1.0000     -10.499358      -285.7021
  10   1.0000     -10.464756      -284.7605
  11   1.0000     -10.456839      -284.5451
  12   1.0000     -10.430780      -283.8360
  13   1.0000     -10.388847      -282.6949
  14   1.0000     -10.383628      -282.5529
  15   1.0000     -10.373823      -282.2861
  16   1.0000     -10.358652      -281.8732
  17   1.0000     -10.351684      -281.6836
  18   1.0000      -1.240723       -33.7618
  19   1.0000      -1.231891       -33.5215
  20   1.0000      -1.197236       -32.5784
  21   1.0000      -1.192623       -32.4529
  22   1.0000      -1.128930       -30.7197
  23   1.0000      -1.125460       -30.6253
  24   1.0000      -1.076116       -29.2826
  25   1.0000      -1.073835       -29.2205
  26   1.0000      -0.966288       -26.2940
  27   1.0000      -0.957999       -26.0685
  28   1.0000      -0.853171       -23.2160
  29   1.0000      -0.847203       -23.0536
  30   1.0000      -0.817989       -22.2586
  31   1.0000      -0.812314       -22.1042
  32   1.0000      -0.799277       -21.7494
  33   1.0000      -0.798380       -21.7250
  34   1.0000      -0.699785       -19.0421
  35   1.0000      -0.699733       -19.0407
  36   1.0000      -0.694657       -18.9026
  37   1.0000      -0.693000       -18.8575
  38   1.0000      -0.647240       -17.6123
  39   1.0000      -0.637093       -17.3362
  40   1.0000      -0.634513       -17.2660
  41   1.0000      -0.600982       -16.3535
  42   1.0000      -0.592011       -16.1094
  43   1.0000      -0.588093       -16.0028
  44   1.0000      -0.566614       -15.4183
  45   1.0000      -0.564700       -15.3663
  46   1.0000      -0.561105       -15.2684
  47   1.0000      -0.549460       -14.9516
  48   1.0000      -0.547649       -14.9023
  49   1.0000      -0.541085       -14.7237
  50   1.0000      -0.534338       -14.5401
  51   1.0000      -0.529941       -14.4204
  52   1.0000      -0.522202       -14.2098
  53   1.0000      -0.507332       -13.8052
  54   1.0000      -0.496230       -13.5031
  55   1.0000      -0.493253       -13.4221
  56   1.0000      -0.470841       -12.8122
  57   1.0000      -0.452849       -12.3227
  58   1.0000      -0.415255       -11.2997
  59   1.0000      -0.410310       -11.1651
  60   1.0000      -0.399197       -10.8627
  61   1.0000      -0.388704       -10.5772
  62   1.0000      -0.382514       -10.4087
  63   1.0000      -0.380261       -10.3474
  64   1.0000      -0.337452        -9.1825
  65   0.0000      -0.096343        -2.6216
  66   0.0000       0.009051         0.2463
  67   0.0000       0.018249         0.4966
  68   0.0000       0.029243         0.7957
  69   0.0000       0.036547         0.9945

MULLIKEN ATOMIC CHARGES AND SPIN POPULATIONS
--------------------------------------------
   0 O :   -0.680966    0.006508
   1 O :   -0.682601    0.192456
   2 O :   -0.656020    0.007022
   3 O :   -0.656719    0.073425
   4 N :   -0.043385    0.012503
   5 N :   -0.028111    0.198297
   6 N :    0.043939   -0.000054
   7 N :    0.035393    0.038800
   8 C :    0.992039    0.058467
   9 C :    0.846096    0.298435
  10 C :   -0.022062    0.010483
  11 C :   -0.217508    0.883803
  12 C :   -1.508916   -0.014467
  13 C :   -1.496107   -0.000215
  14 C :    0.343645    0.006619
  15 C :    0.670562    0.204570
  16 C :    0.409034   -0.004694
  17 C :    0.345537   -0.007256
  18 H :    0.185007    0.008204
  19 H :    0.143973   -0.008070
  20 H :    0.250579   -0.009450
  21 H :    0.318218    0.002541
  22 H :    0.353465    0.004147
  23 H :    0.362438    0.024459
  24 H :    0.354783    0.013565
  25 H :    0.267700    0.023609
  26 H :    0.040994    0.000198
  27 H :    0.029567   -0.023772
  28 H :    0.002949    0.001722
  29 H :   -0.003522   -0.001857
Sum of atomic charges         :    0.0000000

LOEWDIN ATOMIC CHARGES AND SPIN POPULATIONS
-------------------------------------------
   0 O :    0.119290    0.005909
   1 O :    0.115388    0.169279
   2 O :    0.107273    0.006373
   3 O :    0.114466    0.067150
   4 N :    0.289053    0.012895
   5 N :    0.294679    0.188985
   6 N :    0.358352   -0.000051
   7 N :    0.336572    0.036502
   8 C :   -0.169076    0.021138
   9 C :   -0.126365    0.514238
  10 C :    0.077268    0.028955
  11 C :   -0.002810    0.549460
  12 C :    0.149747    0.006873
  13 C :    0.194178    0.090380
  14 C :   -0.448214    0.005051
  15 C :   -0.444523    0.122506
  16 C :   -0.522724    0.002340
  17 C :   -0.542324    0.030827
  18 H :    0.043132    0.003148
  19 H :    0.015412    0.061998
  20 H :   -0.002680    0.000775
  21 H :    0.004310    0.001974
  22 H :    0.010464   -0.000279
  23 H :    0.023036    0.032546
  24 H :    0.004326    0.001930
  25 H :    0.018256    0.022307
  26 H :   -0.016174    0.001129
  27 H :   -0.005865    0.010871
  28 H :    0.007045    0.000262
  29 H :   -0.001494    0.004526

  Mayer bond orders larger than 0.100000
B(  0-O , 14-C ) :   1.3956 B(  1-O , 15-C ) :   1.2995 B(  2-O , 16-C ) :   1.5329
B(  3-O , 17-C ) :   1.5314 B(  4-N , 10-C ) :   0.7429 B(  4-N , 16-C ) :   1.0004
B(  4-N , 26-H ) :   1.1265 B(  5-N ,  9-C ) :   0.1033 B(  5-N , 11-C ) :   0.8865
B(  5-N , 17-C ) :   1.0605 B(  5-N , 27-H ) :   1.1162 B(  6-N ,  8-C ) :  -0.1274
B(  6-N , 14-C ) :   1.0691 B(  6-N , 15-C ) :   0.1151 B(  6-N , 16-C ) :   0.9277
B(  6-N , 28-H ) :   1.1270 B(  7-N , 15-C ) :   0.9141 B(  7-N , 17-C ) :   0.9526
B(  7-N , 29-H ) :   1.1468 B(  8-C ,  9-C ) :   0.1639 B(  8-C , 10-C ) :   1.0782
B(  8-C , 12-C ) :   0.1779 B(  8-C , 14-C ) :   0.6894 B(  8-C , 20-H ) :  -0.1065
B(  8-C , 21-H ) :  -0.1363 B(  9-C , 11-C ) :   0.1647 B(  9-C , 13-C ) :   0.3801
B(  9-C , 15-C ) :   0.8169 B(  9-C , 17-C ) :   0.1420 B(  9-C , 19-H ) :  -0.1728
B(  9-C , 25-H ) :  -0.1226 B( 10-C , 18-H ) :   1.0659 B( 11-C , 15-C ) :  -0.1984
B( 11-C , 17-C ) :  -0.1564 B( 11-C , 19-H ) :   1.2594 B( 12-C , 20-H ) :   0.9800
B( 12-C , 21-H ) :   1.0553 B( 12-C , 22-H ) :   0.8683 B( 13-C , 15-C ) :  -0.1399
B( 13-C , 23-H ) :   0.8127 B( 13-C , 24-H ) :   0.9518 B( 13-C , 25-H ) :   1.0590

----------------------------------------------------------------------------------------------------
          SPIN FLIP ABSORPTION SPECTRUM VIA TRANSITION ELECTRIC DIPOLE MOMENTS
----------------------------------------------------------------------------------------------------
     Transition      Energy     Energy  Wavelength fosc(D2)      D2        DX        DY        DZ
                      (eV)      (cm-1)    (nm)                 (au**2)    (au)      (au)      (au)
----------------------------------------------------------------------------------------------------
  1-3A  ->  2-3A    3.670480   29604.4   337.8   0.000584293   0.00650   0.01038  -0.05560  -0.05743
  1-3A  ->  3-1A    4.771436   38484.2   259.8   0.245121106   2.09688   0.49794   0.28269  -1.33005

Dispersion correction           -0.060868190
FINAL SINGLE POINT ENERGY      -908.769409618866

DIPOLE MOMENT
-------------

Method             : SCF
Type of density    : Electron Density
Multiplicity       :   3
Irrep              :   0
Energy             :  -908.7085414291855159 Eh
Relativity type    :
Basis              : AO
                                X                 Y                 Z
Electronic contribution:     -2.770469164     -10.069014046      -6.247248810
Nuclear contribution   :      2.317983721      10.992254043       8.790760862
                        -----------------------------------------
Total Dipole Moment    :     -0.452485443       0.923239997       2.543512052
                        -----------------------------------------
Magnitude (a.u.)       :      2.743459263
Magnitude (Debye)      :      6.973319268

Rotational constants in cm-1:             0.017667             0.016876             0.013757
Rotational constants in MHz :           529.654178           505.941468           412.423473

                             ****ORCA TERMINATED NORMALLY****
TOTAL RUN TIME: 0 days 0 hours 3 minutes 48 seconds 214 msec
