                         Program Version 6.0.0  -   RELEASE  -
|  1> ! Engrad wB97M-D3BJ def2-TZVPPD
|  2> %pal nprocs 8 end%pal nprocs 16 end
|  3> %tddft nroots 2 Iroot 1
|  4>  sf true
|  5> end
|  6> *xyz 0 3
|  7> O   0.99561363297406 1.17158907505222 0.0927846530848
|  8> C   0.88721283543079 0.03957795329939 -0.31268700251503
|  9> C   -0.31212664316167 -0.71314041746958 0.21424687157662
| 10> H   -0.00082018610902 -1.61485349818655 0.74494214585241
| 11> H   1.59893175408743 -0.42391058964326 -1.01275287084294
| 12> H   -0.95356492281263 -1.04268030277758 -0.60525531009471
| 13> H   -0.85852112865554 -0.05510232720766 0.87872151293885
| 14> *
| 15>
| 16>                          ****END OF INPUT****

CARTESIAN COORDINATES (ANGSTROEM)
---------------------------------
  O      0.995614    1.171589    0.092785
  C      0.887213    0.039578   -0.312687
  C     -0.312127   -0.713140    0.214247
  H     -0.000820   -1.614853    0.744942
  H      1.598932   -0.423911   -1.012753
  H     -0.953565   -1.042680   -0.605255
  H     -0.858521   -0.055102    0.878722

 Total Charge           Charge          ....    0
 Multiplicity           Mult            ....    3
 Number of Electrons    NEL             ....   24
 Basis Dimension        Dim             ....  182

ORBITAL ENERGIES
----------------
                 SPIN UP ORBITALS
  NO   OCC          E(Eh)            E(eV)
   0   1.0000     -19.411068      -528.2020
   1   1.0000     -10.380515      -282.4682
   2   1.0000     -10.366245      -282.0799
   3   1.0000      -1.246987       -33.9322
   4   1.0000      -0.876623       -23.8541
   5   1.0000      -0.720884       -19.6162
   6   1.0000      -0.638611       -17.3775
   7   1.0000      -0.582695       -15.8559
   8   1.0000      -0.582284       -15.8447
   9   1.0000      -0.514166       -13.9912
  10   1.0000      -0.510443       -13.8899
  11   1.0000      -0.436459       -11.8766
  12   1.0000      -0.224217        -6.1013
  13   0.0000       0.042601         1.1592
  14   0.0000       0.060486         1.6459
  15   0.0000       0.079515         2.1637
  16   0.0000       0.088440         2.4066
  17   0.0000       0.108749         2.9592

                 SPIN DOWN ORBITALS
  NO   OCC          E(Eh)            E(eV)
   0   1.0000     -19.383009      -527.4385
   1   1.0000     -10.370127      -282.1855
   2   1.0000     -10.363858      -282.0149
   3   1.0000      -1.188286       -32.3349
   4   1.0000      -0.856914       -23.3178
   5   1.0000      -0.677603       -18.4385
   6   1.0000      -0.585502       -15.9323
   7   1.0000      -0.539966       -14.6932
   8   1.0000      -0.532932       -14.5018
   9   1.0000      -0.501950       -13.6587
  10   1.0000      -0.469664       -12.7802
  11   0.0000      -0.079876        -2.1735
  12   0.0000       0.042421         1.1543
  13   0.0000       0.060135         1.6363
  14   0.0000       0.079880         2.1736
  15   0.0000       0.082180         2.2362

----------------------------------------------------------------------------------------------------
          SPIN FLIP ABSORPTION SPECTRUM VIA TRANSITION ELECTRIC DIPOLE MOMENTS
----------------------------------------------------------------------------------------------------
     Transition      Energy     Energy  Wavelength fosc(D2)      D2        DX        DY        DZ
                      (eV)      (cm-1)    (nm)                 (au**2)    (au)      (au)      (au)
----------------------------------------------------------------------------------------------------
  1-3A  ->  2-3A    4.397268   35466.4   282.0   0.000001155   0.00001  -0.00182   0.00108  -0.00250

Dispersion correction             ... done (  0.0 sec)

MULLIKEN ATOMIC CHARGES AND SPIN DENSITIES
------------------------------------------
   0 O :   -0.511970    0.054475
   1 C :    0.210463   -0.171028
   2 C :   -0.672274    0.046964
   3 H :    0.219211   -0.005432
   4 H :    0.296130    0.075916
   5 H :    0.220003   -0.005404
   6 H :    0.238437    0.004509
Sum of atomic charges       :    0.0000000

LOEWDIN ATOMIC CHARGES AND SPIN DENSITIES
-----------------------------------------
   0 O :    0.023937    0.021450
   1 C :   -0.190295   -0.014033
   2 C :    0.172312   -0.001195
   3 H :   -0.012875   -0.001197
   4 H :    0.029737   -0.004206
   5 H :   -0.012926   -0.001177
   6 H :   -0.009890    0.000357

  Mayer bond orders larger than 0.100000
B(  0-O ,  1-C ) :   1.7874 B(  1-C ,  2-C ) :   0.7566 B(  1-C ,  4-H ) :   0.9299
B(  2-C ,  3-H ) :   0.9946 B(  2-C ,  5-H ) :   0.9946 B(  2-C ,  6-H ) :   0.9598

Dispersion correction           -0.005554405
FINAL SINGLE POINT ENERGY      -153.919456205789

DIPOLE MOMENT
-------------

Method             : TDA/CIS
Type of density    : Electron Density
Level              : Relaxed density
State              :   1
Multiplicity       :   3
Irrep              :   0
Energy             :     0.0000000000000000 Eh
Relativity type    :
Basis              : AO
                                X                 Y                 Z
Electronic contribution:      1.848676481       2.428950905      -0.272568503
Nuclear contribution   :     -2.120568560      -3.566076011      -0.019645403
                        -----------------------------------------
Total Dipole Moment    :     -0.271892079      -1.137125107      -0.292213906
                        -----------------------------------------
Magnitude (a.u.)       :      1.205142223
Magnitude (Debye)      :      3.063228093

Rotational constants in cm-1:             1.670927             0.367416             0.318743
Rotational constants in MHz :         50093.138221         11014.857065          9555.688775

                             ****ORCA TERMINATED NORMALLY****
TOTAL RUN TIME: 0 days 0 hours 0 minutes 16 seconds 621 msec
