                         Program Version 6.0.0  -   RELEASE  -
|  1> ! Engrad def2-TZVPPD wB97M-D3BJ
|  2> %pal nprocs 8 end%pal nprocs 64 end
|  3> %tddft
|  4>  Iroot 1 Nroots 3
|  5> sf true
|  6> end
|  7> *xyz 0 3
|  8> O   1.32790661 0.64252519 0.53726851
|  9> C   0.06858552 0.40977785 0.1955921
| 10> C   -0.18410998 -0.95063045 -0.50199235
| 11> H   -0.20488756 1.09955074 -0.59227541
| 12> H   -0.53971508 0.55304076 1.08331075
| 13> H   -0.96927418 -0.88678578 -1.2277187
| 14> H   0.60349804 -1.61781172 -0.94013188
| 15> *
| 16>
| 17>                          ****END OF INPUT****

CARTESIAN COORDINATES (ANGSTROEM)
---------------------------------
  O      1.327907    0.642525    0.537269
  C      0.068586    0.409778    0.195592
  C     -0.184110   -0.950630   -0.501992
  H     -0.204888    1.099551   -0.592275
  H     -0.539715    0.553041    1.083311
  H     -0.969274   -0.886786   -1.227719
  H      0.603498   -1.617812   -0.940132

 Total Charge           Charge          ....    0
 Multiplicity           Mult            ....    3
 Number of Electrons    NEL             ....   24
 Basis Dimension        Dim             ....  182

ORBITAL ENERGIES
----------------
                 SPIN UP ORBITALS
  NO   OCC          E(Eh)            E(eV)
   0   1.0000     -19.390777      -527.6499
   1   1.0000     -10.416530      -283.4482
   2   1.0000     -10.369949      -282.1806
   3   1.0000      -1.189127       -32.3578
   4   1.0000      -0.867939       -23.6178
   5   1.0000      -0.738315       -20.0906
   6   1.0000      -0.628456       -17.1011
   7   1.0000      -0.588718       -16.0198
   8   1.0000      -0.559754       -15.2317
   9   1.0000      -0.499981       -13.6052
  10   1.0000      -0.450575       -12.2608
  11   1.0000      -0.412114       -11.2142
  12   1.0000      -0.326827        -8.8934
  13   0.0000       0.040671         1.1067
  14   0.0000       0.060856         1.6560
  15   0.0000       0.080302         2.1851
  16   0.0000       0.084192         2.2910
  17   0.0000       0.111668         3.0386

                 SPIN DOWN ORBITALS
  NO   OCC          E(Eh)            E(eV)
   0   1.0000     -19.367879      -527.0268
   1   1.0000     -10.417364      -283.4709
   2   1.0000     -10.356236      -281.8075
   3   1.0000      -1.138186       -30.9716
   4   1.0000      -0.837002       -22.7760
   5   1.0000      -0.709502       -19.3065
   6   1.0000      -0.583738       -15.8843
   7   1.0000      -0.560848       -15.2614
   8   1.0000      -0.536453       -14.5976
   9   1.0000      -0.482906       -13.1406
  10   1.0000      -0.379229       -10.3193
  11   0.0000      -0.059295        -1.6135
  12   0.0000      -0.000047        -0.0013
  13   0.0000       0.040716         1.1079
  14   0.0000       0.061431         1.6716
  15   0.0000       0.080957         2.2029

----------------------------------------------------------------------------------------------------
          SPIN FLIP ABSORPTION SPECTRUM VIA TRANSITION ELECTRIC DIPOLE MOMENTS
----------------------------------------------------------------------------------------------------
     Transition      Energy     Energy  Wavelength fosc(D2)      D2        DX        DY        DZ
                      (eV)      (cm-1)    (nm)                 (au**2)    (au)      (au)      (au)
----------------------------------------------------------------------------------------------------
  1-3A  ->  2-3A    0.388903    3136.7  3188.1   0.000174006   0.01826  -0.02935  -0.10217  -0.08344
  1-3A  ->  3-3A    1.085241    8753.1  1142.5   0.009001826   0.33857  -0.46209  -0.27849  -0.21791

Dispersion correction             ... done (  0.1 sec)

MULLIKEN ATOMIC CHARGES AND SPIN DENSITIES
------------------------------------------
   0 O :   -0.460077   -0.493529
   1 C :    0.003613   -0.108052
   2 C :   -0.488883    0.510491
   3 H :    0.216544   -0.066331
   4 H :    0.244225    0.094179
   5 H :    0.240263    0.038817
   6 H :    0.244315    0.024424
Sum of atomic charges       :   -0.0000000

LOEWDIN ATOMIC CHARGES AND SPIN DENSITIES
-----------------------------------------
   0 O :   -0.028822   -0.492204
   1 C :   -0.282808   -0.019421
   2 C :    0.343085    0.438219
   3 H :    0.026330   -0.059275
   4 H :    0.026710    0.037004
   5 H :   -0.072120    0.051395
   6 H :   -0.012374    0.044281

  Mayer bond orders larger than 0.100000
B(  0-O ,  1-C ) :   1.1461 B(  0-O ,  2-C ) :   0.2687 B(  1-C ,  2-C ) :   0.7960
B(  1-C ,  3-H ) :   0.9127 B(  1-C ,  4-H ) :   0.9466 B(  2-C ,  5-H ) :   0.9834
B(  2-C ,  6-H ) :   0.9677

Dispersion correction           -0.005498809
FINAL SINGLE POINT ENERGY      -153.750965667919

DIPOLE MOMENT
-------------

Method             : TDA/CIS
Type of density    : Electron Density
Level              : Relaxed density
State              :   1
Multiplicity       :   3
Irrep              :   0
Energy             :     0.0000000000000000 Eh
Relativity type    :
Basis              : AO
                                X                 Y                 Z
Electronic contribution:      1.559290957       0.664918745       1.187000736
Nuclear contribution   :     -2.624631271      -1.039960205      -1.841041144
                        -----------------------------------------
Total Dipole Moment    :     -1.065340315      -0.375041460      -0.654040408
                        -----------------------------------------
Magnitude (a.u.)       :      1.305134069
Magnitude (Debye)      :      3.317387165

Rotational constants in cm-1:             1.504403             0.343450             0.298202
Rotational constants in MHz :         45100.866148         10296.376987          8939.881840

                             ****ORCA TERMINATED NORMALLY****
TOTAL RUN TIME: 0 days 0 hours 0 minutes 26 seconds 883 msec
