                         Program Version 6.0.0  -   RELEASE  -
|  1> ! Engrad def2-TZVPPD wB97M-D3BJ
|  2> %pal nprocs 8 end%pal nprocs 64 end
|  3> %tddft Nroots 2 Iroot 1
|  4> sf true
|  5> end
|  6> *xyz 0 3
|  7> O   2.82647487 1.20180363 -0.42356147
|  8> O   -0.60142395 0.88829555 -2.30868517
|  9> O   0.9173794 -2.7874108 -1.53724968
| 10> O   -2.80602827 -1.64377178 0.80416906
| 11> N   0.51468111 -1.91746829 0.54540669
| 12> N   -2.28663406 0.50528758 1.42318478
| 13> N   1.9278574 -0.84901887 -0.90155727
| 14> N   -1.86091962 -0.28260872 -0.79467124
| 15> C   1.59892225 0.03709412 1.29741722
| 16> C   -0.84906675 1.73451071 -0.12168962
| 17> C   0.76144322 -1.08682425 1.60958668
| 18> C   -1.50453199 1.57389755 1.12241625
| 19> C   1.87634063 1.18870245 2.28173602
| 20> C   -0.15635466 3.04244138 -0.42532254
| 21> C   2.16596726 0.22022072 -0.06422804
| 22> C   -1.02970171 0.78065733 -1.16892182
| 23> C   1.08033772 -1.89110241 -0.69415787
| 24> C   -2.34149499 -0.59167323 0.4765344
| 25> H   0.20947343 -1.08249449 2.60253824
| 26> H   -1.68649652 2.42930089 1.76593037
| 27> H   2.0633913 2.11713033 1.61889817
| 28> H   1.01928734 1.43400929 2.94716761
| 29> H   2.6920605 0.92310611 2.92236819
| 30> H   -0.66830552 3.5303764 -1.26915805
| 31> H   -0.20753522 3.7147787 0.42610466
| 32> H   0.86280486 2.86596647 -0.72178875
| 33> H   -0.13670592 -2.71572522 0.66464399
| 34> H   -2.60765033 0.36418277 2.42236009
| 35> H   2.05399563 -0.66411333 -1.86031065
| 36> H   -2.06336337 -1.08720537 -1.3965248
| 37> *
| 38>
| 39>                          ****END OF INPUT****

CARTESIAN COORDINATES (ANGSTROEM)
---------------------------------
  O      2.826475    1.201804   -0.423561
  O     -0.601424    0.888296   -2.308685
  O      0.917379   -2.787411   -1.537250
  O     -2.806028   -1.643772    0.804169
  N      0.514681   -1.917468    0.545407
  N     -2.286634    0.505288    1.423185
  N      1.927857   -0.849019   -0.901557
  N     -1.860920   -0.282609   -0.794671
  C      1.598922    0.037094    1.297417
  C     -0.849067    1.734511   -0.121690
  C      0.761443   -1.086824    1.609587
  C     -1.504532    1.573898    1.122416
  C      1.876341    1.188702    2.281736
  C     -0.156355    3.042441   -0.425323
  C      2.165967    0.220221   -0.064228
  C     -1.029702    0.780657   -1.168922
  C      1.080338   -1.891102   -0.694158
  C     -2.341495   -0.591673    0.476534
  H      0.209473   -1.082494    2.602538
  H     -1.686497    2.429301    1.765930
  H      2.063391    2.117130    1.618898
  H      1.019287    1.434009    2.947168
  H      2.692061    0.923106    2.922368
  H     -0.668306    3.530376   -1.269158
  H     -0.207535    3.714779    0.426105
  H      0.862805    2.865966   -0.721789
  H     -0.136706   -2.715725    0.664644
  H     -2.607650    0.364183    2.422360
  H      2.053996   -0.664113   -1.860311
  H     -2.063363   -1.087205   -1.396525

 Total Charge           Charge          ....    0
 Multiplicity           Mult            ....    3
 Number of Electrons    NEL             ....  132
 Basis Dimension        Dim             ....  882

ORBITAL ENERGIES
----------------
                 SPIN UP ORBITALS
  NO   OCC          E(Eh)            E(eV)
   0   1.0000     -19.345188      -526.4093
   1   1.0000     -19.329063      -525.9705
   2   1.0000     -19.325506      -525.8738
   3   1.0000     -19.324223      -525.8388
   4   1.0000     -14.596325      -397.1862
   5   1.0000     -14.594799      -397.1447
   6   1.0000     -14.580340      -396.7512
   7   1.0000     -14.552476      -395.9930
   8   1.0000     -10.528430      -286.4931
   9   1.0000     -10.510871      -286.0153
  10   1.0000     -10.482579      -285.2455
  11   1.0000     -10.470572      -284.9187
  12   1.0000     -10.444247      -284.2024
  13   1.0000     -10.417489      -283.4743
  14   1.0000     -10.415453      -283.4189
  15   1.0000     -10.386623      -282.6344
  16   1.0000     -10.373665      -282.2818
  17   1.0000     -10.350919      -281.6628
  18   1.0000      -1.237781       -33.6817
  19   1.0000      -1.218519       -33.1576
  20   1.0000      -1.191204       -32.4143
  21   1.0000      -1.180115       -32.1125
  22   1.0000      -1.122268       -30.5385
  23   1.0000      -1.118514       -30.4363
  24   1.0000      -1.073854       -29.2210
  25   1.0000      -1.070926       -29.1414
  26   1.0000      -0.952223       -25.9113
  27   1.0000      -0.944140       -25.6914
  28   1.0000      -0.850642       -23.1471
  29   1.0000      -0.835856       -22.7448
  30   1.0000      -0.817889       -22.2559
  31   1.0000      -0.808812       -22.0089
  32   1.0000      -0.791274       -21.5316
  33   1.0000      -0.788043       -21.4437
  34   1.0000      -0.698326       -19.0024
  35   1.0000      -0.690556       -18.7910
  36   1.0000      -0.688190       -18.7266
  37   1.0000      -0.681166       -18.5355
  38   1.0000      -0.640469       -17.4281
  39   1.0000      -0.638043       -17.3620
  40   1.0000      -0.633423       -17.2363
  41   1.0000      -0.605014       -16.4633
  42   1.0000      -0.601545       -16.3689
  43   1.0000      -0.587198       -15.9785
  44   1.0000      -0.571754       -15.5582
  45   1.0000      -0.567867       -15.4524
  46   1.0000      -0.560641       -15.2558
  47   1.0000      -0.549852       -14.9622
  48   1.0000      -0.549324       -14.9479
  49   1.0000      -0.544568       -14.8185
  50   1.0000      -0.525911       -14.3108
  51   1.0000      -0.517718       -14.0878
  52   1.0000      -0.515175       -14.0186
  53   1.0000      -0.509833       -13.8733
  54   1.0000      -0.498174       -13.5560
  55   1.0000      -0.490797       -13.3553
  56   1.0000      -0.488114       -13.2823
  57   1.0000      -0.482064       -13.1176
  58   1.0000      -0.430865       -11.7244
  59   1.0000      -0.415922       -11.3178
  60   1.0000      -0.412150       -11.2152
  61   1.0000      -0.404110       -10.9964
  62   1.0000      -0.391382       -10.6501
  63   1.0000      -0.387808       -10.5528
  64   1.0000      -0.378150       -10.2900
  65   1.0000      -0.338539        -9.2121
  66   1.0000      -0.229564        -6.2468
  67   0.0000       0.003578         0.0974
  68   0.0000       0.007383         0.2009
  69   0.0000       0.030393         0.8270
  70   0.0000       0.037059         1.0084
  71   0.0000       0.039445         1.0734

                 SPIN DOWN ORBITALS
  NO   OCC          E(Eh)            E(eV)
   0   1.0000     -19.345175      -526.4090
   1   1.0000     -19.326671      -525.9054
   2   1.0000     -19.324297      -525.8408
   3   1.0000     -19.320081      -525.7261
   4   1.0000     -14.594527      -397.1373
   5   1.0000     -14.592092      -397.0710
   6   1.0000     -14.580320      -396.7507
   7   1.0000     -14.551487      -395.9661
   8   1.0000     -10.528425      -286.4930
   9   1.0000     -10.511146      -286.0228
  10   1.0000     -10.482570      -285.2452
  11   1.0000     -10.470940      -284.9288
  12   1.0000     -10.443881      -284.1924
  13   1.0000     -10.406665      -283.1797
  14   1.0000     -10.405015      -283.1348
  15   1.0000     -10.386644      -282.6350
  16   1.0000     -10.374192      -282.2961
  17   1.0000     -10.350901      -281.6623
  18   1.0000      -1.237692       -33.6793
  19   1.0000      -1.213756       -33.0280
  20   1.0000      -1.191274       -32.4162
  21   1.0000      -1.172264       -31.8989
  22   1.0000      -1.121779       -30.5252
  23   1.0000      -1.108978       -30.1768
  24   1.0000      -1.073598       -29.2141
  25   1.0000      -1.065532       -28.9946
  26   1.0000      -0.945133       -25.7184
  27   1.0000      -0.926934       -25.2231
  28   1.0000      -0.839118       -22.8336
  29   1.0000      -0.835554       -22.7366
  30   1.0000      -0.817565       -22.2471
  31   1.0000      -0.798607       -21.7312
  32   1.0000      -0.788010       -21.4429
  33   1.0000      -0.785798       -21.3827
  34   1.0000      -0.698195       -18.9989
  35   1.0000      -0.681084       -18.5332
  36   1.0000      -0.680163       -18.5082
  37   1.0000      -0.677515       -18.4361
  38   1.0000      -0.639948       -17.4139
  39   1.0000      -0.628340       -17.0980
  40   1.0000      -0.627635       -17.0788
  41   1.0000      -0.603733       -16.4284
  42   1.0000      -0.591563       -16.0972
  43   1.0000      -0.578757       -15.7488
  44   1.0000      -0.571394       -15.5484
  45   1.0000      -0.556234       -15.1359
  46   1.0000      -0.555309       -15.1107
  47   1.0000      -0.549299       -14.9472
  48   1.0000      -0.542339       -14.7578
  49   1.0000      -0.536274       -14.5927
  50   1.0000      -0.518241       -14.1021
  51   1.0000      -0.510015       -13.8782
  52   1.0000      -0.506822       -13.7913
  53   1.0000      -0.503382       -13.6977
  54   1.0000      -0.497518       -13.5382
  55   1.0000      -0.487602       -13.2683
  56   1.0000      -0.478403       -13.0180
  57   1.0000      -0.444552       -12.0969
  58   1.0000      -0.430564       -11.7162
  59   1.0000      -0.411795       -11.2055
  60   1.0000      -0.408722       -11.1219
  61   1.0000      -0.391226       -10.6458
  62   1.0000      -0.383622       -10.4389
  63   1.0000      -0.378190       -10.2911
  64   1.0000      -0.339144        -9.2286
  65   0.0000      -0.092936        -2.5289
  66   0.0000       0.004296         0.1169
  67   0.0000       0.006258         0.1703
  68   0.0000       0.027396         0.7455
  69   0.0000       0.034708         0.9445

----------------------------------------------------------------------------------------------------
          SPIN FLIP ABSORPTION SPECTRUM VIA TRANSITION ELECTRIC DIPOLE MOMENTS
----------------------------------------------------------------------------------------------------
     Transition      Energy     Energy  Wavelength fosc(D2)      D2        DX        DY        DZ
                      (eV)      (cm-1)    (nm)                 (au**2)    (au)      (au)      (au)
----------------------------------------------------------------------------------------------------
  1-3A  ->  2-3A    3.340282   26941.2   371.2   0.000981150   0.01199  -0.04365  -0.05483   0.08413

Dispersion correction             ... done (  0.1 sec)

MULLIKEN ATOMIC CHARGES AND SPIN DENSITIES
------------------------------------------
   0 O :   -0.688248    0.031381
   1 O :   -0.681439    0.000216
   2 O :   -0.685118    0.007762
   3 O :   -0.610304   -0.000339
   4 N :    0.001211    0.036088
   5 N :   -0.092693    0.004654
   6 N :   -0.010857    0.000651
   7 N :    0.038714    0.001766
   8 C :    0.826671    0.461198
   9 C :    0.880711   -0.034979
  10 C :   -0.293387   -0.349546
  11 C :   -0.126621    0.027740
  12 C :   -1.370171   -0.017479
  13 C :   -1.453232    0.003168
  14 C :    0.390476   -0.228394
  15 C :    0.401168   -0.001720
  16 C :    0.503370    0.005648
  17 C :    0.310011   -0.001355
  18 H :    0.257655    0.023533
  19 H :    0.189097   -0.001760
  20 H :    0.236557   -0.007418
  21 H :    0.289699    0.012042
  22 H :    0.429462    0.024209
  23 H :    0.378583   -0.000375
  24 H :    0.335755    0.000459
  25 H :    0.221820   -0.002964
  26 H :    0.085595    0.003326
  27 H :    0.138565   -0.000224
  28 H :    0.029654    0.002962
  29 H :    0.067296   -0.000249
Sum of atomic charges       :    0.0000000

LOEWDIN ATOMIC CHARGES AND SPIN DENSITIES
-----------------------------------------
   0 O :    0.048367    0.027177
   1 O :    0.089515   -0.000601
   2 O :    0.062894    0.006495
   3 O :    0.087465   -0.000012
   4 N :    0.239131    0.017850
   5 N :    0.243435    0.000971
   6 N :    0.348027   -0.000853
   7 N :    0.332134    0.000448
   8 C :   -0.103201   -0.025365
   9 C :   -0.124501   -0.001063
  10 C :    0.081264   -0.030878
  11 C :    0.039739    0.000617
  12 C :    0.156871   -0.002466
  13 C :    0.178613   -0.000043
  14 C :   -0.399549    0.008577
  15 C :   -0.423691   -0.000233
  16 C :   -0.466472   -0.000642
  17 C :   -0.461668   -0.000081
  18 H :    0.063699   -0.002149
  19 H :    0.032888    0.000201
  20 H :    0.025804   -0.000071
  21 H :   -0.011299    0.000474
  22 H :   -0.032786   -0.000097
  23 H :    0.009150   -0.000039
  24 H :   -0.010215    0.000011
  25 H :   -0.028650    0.000041
  26 H :    0.014542    0.001515
  27 H :    0.029203    0.000066
  28 H :   -0.029221    0.000120
  29 H :    0.008511    0.000031

  Mayer bond orders larger than 0.100000
B(  0-O , 14-C ) :   1.3755 B(  1-O , 15-C ) :   1.3934 B(  2-O , 16-C ) :   1.5145
B(  3-O , 17-C ) :   1.5600 B(  4-N , 10-C ) :   0.8994 B(  4-N , 16-C ) :   0.9970
B(  4-N , 26-H ) :   1.0950 B(  5-N , 11-C ) :   0.9244 B(  5-N , 17-C ) :   0.9929
B(  5-N , 27-H ) :   1.0335 B(  6-N , 14-C ) :   0.8946 B(  6-N , 16-C ) :   0.9344
B(  6-N , 28-H ) :   1.0955 B(  7-N , 15-C ) :   0.9101 B(  7-N , 17-C ) :   1.0018
B(  7-N , 29-H ) :   1.0667 B(  8-C , 10-C ) :   1.1492 B(  8-C , 12-C ) :   0.5036
B(  8-C , 14-C ) :   0.7434 B(  9-C , 11-C ) :   1.0202 B(  9-C , 13-C ) :   0.3582
B(  9-C , 15-C ) :   0.7044 B(  9-C , 25-H ) :  -0.1237 B( 10-C , 16-C ) :  -0.1042
B( 10-C , 18-H ) :   1.0352 B( 11-C , 19-H ) :   1.0714 B( 12-C , 20-H ) :   1.0153
B( 12-C , 21-H ) :   0.9793 B( 12-C , 22-H ) :   0.8345 B( 13-C , 23-H ) :   0.8687
B( 13-C , 24-H ) :   0.9688 B( 13-C , 25-H ) :   1.0415 B( 14-C , 16-C ) :  -0.1257

Dispersion correction           -0.056972057
FINAL SINGLE POINT ENERGY      -908.866817094550

DIPOLE MOMENT
-------------

Method             : TDA/CIS
Type of density    : Electron Density
Level              : Relaxed density
State              :   1
Multiplicity       :   3
Irrep              :   0
Energy             :     0.0000000000000000 Eh
Relativity type    :
Basis              : AO
                                X                 Y                 Z
Electronic contribution:     -2.615946586     -10.461075148      -6.244367874
Nuclear contribution   :      1.329253495      11.094846402       8.979847174
                        -----------------------------------------
Total Dipole Moment    :     -1.286693091       0.633771255       2.735479300
                        -----------------------------------------
Magnitude (a.u.)       :      3.088703953
Magnitude (Debye)      :      7.850861532

Rotational constants in cm-1:             0.017266             0.014913             0.012489
Rotational constants in MHz :           517.618686           447.069695           374.412509

                             ****ORCA TERMINATED NORMALLY****
TOTAL RUN TIME: 0 days 0 hours 5 minutes 44 seconds 967 msec
