                         Program Version 6.0.0  -   RELEASE  -
|  1> ! Opt wB97M-D3BJ def2-TZVPPD
|  2> %pal nprocs 8 end %pal nprocs 64 end
|  3> %geom
|  4> Constraints
|  5>     {A 2 1 0 148.47457627118644 C }
|  6> end
|  7> MaxIter 200
|  8> end
|  9> *xyz 0 1
| 10> O   1.9722314493390605 0.3439108280504426 0.0
| 11> C   0.7509 -0.4065 0.0
| 12> C   -0.7502 -0.4076 0.0
| 13> H   1.2625 -0.6786 0.9136
| 14> H   1.2625 -0.6787 -0.9136
| 15> H   -1.2614 -0.6806 -0.9136
| 16> H   -1.2614 -0.6805 0.9136
| 17> *
| 18>
| 19>                          ****END OF INPUT****
 Total Charge           Charge          ....    0
 Multiplicity           Mult            ....    1
 Number of Electrons    NEL             ....   24
Dispersion correction           -0.005273557
FINAL SINGLE POINT ENERGY      -153.676040543366
Dispersion correction             ... done (  0.1 sec)
Dispersion correction           -0.005378824
FINAL SINGLE POINT ENERGY      -153.700479303039
Dispersion correction             ... done (  0.1 sec)
Dispersion correction           -0.005449931
FINAL SINGLE POINT ENERGY      -153.711124705582
Dispersion correction             ... done (  0.1 sec)
FINAL SINGLE POINT ENERGY      -153.718596365575
FINAL SINGLE POINT ENERGY      -153.726234026105
FINAL SINGLE POINT ENERGY      -153.735527107548
FINAL SINGLE POINT ENERGY      -153.744993832591
FINAL SINGLE POINT ENERGY      -153.768598880201
FINAL SINGLE POINT ENERGY      -153.801722409218
FINAL SINGLE POINT ENERGY      -153.824078336662
FINAL SINGLE POINT ENERGY      -153.907449169074
FINAL SINGLE POINT ENERGY      -153.907320894296
FINAL SINGLE POINT ENERGY      -153.908182066052
FINAL SINGLE POINT ENERGY      -153.908384932048
FINAL SINGLE POINT ENERGY      -153.908714650513
FINAL SINGLE POINT ENERGY      -153.908910807587
FINAL SINGLE POINT ENERGY      -153.909010447710
Dispersion correction             ... done (  0.1 sec)
Dispersion correction           -0.005486305
FINAL SINGLE POINT ENERGY      -153.909037038068
Dispersion correction             ... done (  0.1 sec)
Dispersion correction           -0.005487062
FINAL SINGLE POINT ENERGY      -153.909041292267
Dispersion correction             ... done (  0.1 sec)
                    ***********************HURRAY********************

CARTESIAN COORDINATES (ANGSTROEM)
---------------------------------
  O      1.767797    0.876727    0.068778
  C      0.986167   -0.026381    0.180759
  C     -0.302753   -0.668464   -0.255238
  H      1.329937   -0.764045    0.962949
  H     -0.028416   -1.669857   -0.581381
  H     -0.883331   -0.166994   -1.028637
  H     -0.894269   -0.769576    0.652770

 Multiplicity           Mult            ....    1
 Number of Electrons    NEL             ....   24
 Basis Dimension        Dim             ....  182

ORBITAL ENERGIES
----------------

  NO   OCC          E(Eh)            E(eV)
   0   2.0000     -19.345444      -526.4163
   1   2.0000     -10.448256      -284.3115
   2   2.0000     -10.372932      -282.2618
   3   2.0000      -1.191261       -32.4159
   4   2.0000      -0.900942       -24.5159
   5   2.0000      -0.693588       -18.8735
   6   2.0000      -0.594864       -16.1871
   7   2.0000      -0.569335       -15.4924
   8   2.0000      -0.563406       -15.3311
   9   2.0000      -0.511904       -13.9296
  10   2.0000      -0.483613       -13.1598
  11   2.0000      -0.356139        -9.6910
  12   0.0000       0.032046         0.8720
  13   0.0000       0.058360         1.5881
  14   0.0000       0.059096         1.6081
  15   0.0000       0.080556         2.1920
  16   0.0000       0.084555         2.3009

MULLIKEN ATOMIC CHARGES
-----------------------
   0 O :   -0.456244
   1 C :    0.220984
   2 C :   -0.684725
   3 H :    0.182247
   4 H :    0.247430
   5 H :    0.242571
   6 H :    0.247737
Sum of atomic charges:   -0.0000000

LOEWDIN ATOMIC CHARGES
----------------------
   0 O :    0.078099
   1 C :   -0.241714
   2 C :    0.172111
   3 H :    0.015625
   4 H :   -0.006053
   5 H :   -0.012057
   6 H :   -0.006011

  Mayer bond orders larger than 0.100000
B(  0-O ,  1-C ) :   1.7769 B(  1-C ,  2-C ) :   0.7619 B(  1-C ,  3-H ) :   1.0306
B(  2-C ,  4-H ) :   0.9790 B(  2-C ,  5-H ) :   0.9674 B(  2-C ,  6-H ) :   0.9784

Dispersion correction           -0.005486676
FINAL SINGLE POINT ENERGY      -153.909041749500

DIPOLE MOMENT
-------------

Method             : SCF
Type of density    : Electron Density
Multiplicity       :   1
Irrep              :   0
Energy             :  -153.9035550739699261 Eh
Relativity type    :
Basis              : AO
                                X                 Y                 Z
Electronic contribution:      2.612612294       2.491954453       0.011877421
Nuclear contribution   :     -3.500278474      -3.344423937      -0.011725797
                        -----------------------------------------
Total Dipole Moment    :     -0.887666179      -0.852469484       0.000151624
                        -----------------------------------------
Magnitude (a.u.)       :      1.230713407
Magnitude (Debye)      :      3.128224877

Rotational constants in cm-1:             2.711834             0.292381             0.277425
Rotational constants in MHz :         81298.741623          8765.361225          8316.982912

                             ****ORCA TERMINATED NORMALLY****
TOTAL RUN TIME: 0 days 0 hours 6 minutes 8 seconds 385 msec
