                         Program Version 6.0.0  -   RELEASE  -
|  1> ! Engrad def2-TZVPPD wB97M-D3BJ
|  2> %pal nprocs 8 end%pal nprocs 64 end
|  3> %tddft
|  4>  Iroot 2 Nroots 3
|  5> sf true
|  6> end
|  7> *xyz 0 3
|  8> O   1.29408974 0.52859716 0.64620519
|  9> C   0.66042299 -0.10741344 -0.40036896
| 10> C   -0.86201668 -0.27871102 -0.04917457
| 11> H   1.07703078 -1.07715421 -0.68856524
| 12> H   0.62878644 0.6156323 -1.27129998
| 13> H   -1.41590384 -0.45709764 -0.90917714
| 14> H   -1.33000303 -0.25988353 0.97031002
| 15> *
| 16>
| 17>                          ****END OF INPUT****

CARTESIAN COORDINATES (ANGSTROEM)
---------------------------------
  O      1.294090    0.528597    0.646205
  C      0.660423   -0.107413   -0.400369
  C     -0.862017   -0.278711   -0.049175
  H      1.077031   -1.077154   -0.688565
  H      0.628786    0.615632   -1.271300
  H     -1.415904   -0.457098   -0.909177
  H     -1.330003   -0.259884    0.970310

 Total Charge           Charge          ....    0
 Multiplicity           Mult            ....    3
 Number of Electrons    NEL             ....   24
 Basis Dimension        Dim             ....  182

ORBITAL ENERGIES
----------------
                 SPIN UP ORBITALS
  NO   OCC          E(Eh)            E(eV)
   0   1.0000     -19.386217      -527.5258
   1   1.0000     -10.420902      -283.5672
   2   1.0000     -10.385245      -282.5969
   3   1.0000      -1.160432       -31.5770
   4   1.0000      -0.870034       -23.6748
   5   1.0000      -0.733516       -19.9600
   6   1.0000      -0.597773       -16.2662
   7   1.0000      -0.589538       -16.0421
   8   1.0000      -0.556137       -15.1333
   9   1.0000      -0.521549       -14.1921
  10   1.0000      -0.436320       -11.8729
  11   1.0000      -0.410764       -11.1775
  12   1.0000      -0.327622        -8.9151
  13   0.0000       0.040712         1.1078
  14   0.0000       0.059701         1.6246
  15   0.0000       0.081040         2.2052
  16   0.0000       0.084632         2.3029
  17   0.0000       0.111094         3.0230

                 SPIN DOWN ORBITALS
  NO   OCC          E(Eh)            E(eV)
   0   1.0000     -19.363492      -526.9074
   1   1.0000     -10.422275      -283.6045
   2   1.0000     -10.369338      -282.1640
   3   1.0000      -1.108375       -30.1604
   4   1.0000      -0.834282       -22.7020
   5   1.0000      -0.706357       -19.2210
   6   1.0000      -0.577358       -15.7107
   7   1.0000      -0.561042       -15.2667
   8   1.0000      -0.507063       -13.7979
   9   1.0000      -0.502212       -13.6659
  10   1.0000      -0.381101       -10.3703
  11   0.0000      -0.055698        -1.5156
  12   0.0000       0.004032         0.1097
  13   0.0000       0.040913         1.1133
  14   0.0000       0.060725         1.6524
  15   0.0000       0.081571         2.2197

----------------------------------------------------------------------------------------------------
          SPIN FLIP ABSORPTION SPECTRUM VIA TRANSITION ELECTRIC DIPOLE MOMENTS
----------------------------------------------------------------------------------------------------
     Transition      Energy     Energy  Wavelength fosc(D2)      D2        DX        DY        DZ
                      (eV)      (cm-1)    (nm)                 (au**2)    (au)      (au)      (au)
----------------------------------------------------------------------------------------------------
  1-3A  ->  2-3A    0.242844    1958.7  5105.5   0.000156314   0.02627   0.16045  -0.01137  -0.01999
  1-3A  ->  3-3A    0.828467    6682.0  1496.5   0.019166542   0.94430  -0.86827  -0.24419  -0.36163

Dispersion correction             ... done (  0.1 sec)

MULLIKEN ATOMIC CHARGES AND SPIN DENSITIES
------------------------------------------
   0 O :   -0.326304    0.114804
   1 C :   -0.079845   -0.017178
   2 C :   -0.423000    0.010011
   3 H :    0.234678   -0.040926
   4 H :    0.205312    0.004127
   5 H :    0.205598   -0.035418
   6 H :    0.183562   -0.035420
Sum of atomic charges       :    0.0000000

LOEWDIN ATOMIC CHARGES AND SPIN DENSITIES
-----------------------------------------
   0 O :    0.024569    0.095104
   1 C :   -0.219799   -0.011815
   2 C :    0.297090   -0.047912
   3 H :    0.010228   -0.018336
   4 H :    0.045884    0.007732
   5 H :   -0.123159   -0.012281
   6 H :   -0.034814   -0.012492

  Mayer bond orders larger than 0.100000
B(  0-O ,  1-C ) :   0.8842 B(  1-C ,  2-C ) :   0.8245 B(  1-C ,  3-H ) :   0.9788
B(  1-C ,  4-H ) :   0.9333 B(  2-C ,  5-H ) :   1.0019 B(  2-C ,  6-H ) :   0.9779

Dispersion correction           -0.005471351
FINAL SINGLE POINT ENERGY      -153.740164091884

DIPOLE MOMENT
-------------

Method             : TDA/CIS
Type of density    : Electron Density
Level              : Relaxed density
State              :   2
Multiplicity       :   3
Irrep              :   0
Energy             :     0.0000000000000000 Eh
Relativity type    :
Basis              : AO
                                X                 Y                 Z
Electronic contribution:      2.064422261       0.968365445       1.392467566
Nuclear contribution   :     -2.430566136      -1.322864529      -2.030513789
                        -----------------------------------------
Total Dipole Moment    :     -0.366143875      -0.354499084      -0.638046223
                        -----------------------------------------
Magnitude (a.u.)       :      0.816598996
Magnitude (Debye)      :      2.075629695

Rotational constants in cm-1:             1.317134             0.349782             0.294497
Rotational constants in MHz :         39486.670896         10486.195561          8828.788652

                             ****ORCA TERMINATED NORMALLY****
TOTAL RUN TIME: 0 days 0 hours 0 minutes 26 seconds 480 msec
