                         Program Version 6.0.0  -   RELEASE  -
|  1> ! Opt wB97M-D3BJ def2-TZVPPD
|  2> %pal nprocs 8 end %pal nprocs 64 end
|  3> %geom
|  4> Constraints
|  5>     {A 2 1 0 88.18181818181819 C }
|  6> end
|  7> MaxIter 500
|  8> end
|  9> *xyz 0 1
| 10> O   -0.0007 0.8141 0.0
| 11> C   0.7509 -0.4065 0.0
| 12> C   -0.7502 -0.4076 0.0
| 13> H   1.2625 -0.6786 0.9136
| 14> H   1.2625 -0.6787 -0.9136
| 15> H   -1.2614 -0.6806 -0.9136
| 16> H   -1.2614 -0.6805 0.9136
| 17> *
| 18>
| 19>                          ****END OF INPUT****
 Total Charge           Charge          ....    0
 Multiplicity           Mult            ....    1
 Number of Electrons    NEL             ....   24
Dispersion correction           -0.005555096
FINAL SINGLE POINT ENERGY      -153.803958896849
Dispersion correction             ... done (  0.1 sec)
Dispersion correction           -0.005592168
FINAL SINGLE POINT ENERGY      -153.821806751136
Dispersion correction             ... done (  0.1 sec)
Dispersion correction           -0.005602870
FINAL SINGLE POINT ENERGY      -153.827812676077
Dispersion correction             ... done (  0.1 sec)
FINAL SINGLE POINT ENERGY      -153.829638266636
FINAL SINGLE POINT ENERGY      -153.830075898911
FINAL SINGLE POINT ENERGY      -153.830228834158
FINAL SINGLE POINT ENERGY      -153.830294534443
FINAL SINGLE POINT ENERGY      -153.830321911623
Dispersion correction             ... done (  0.2 sec)
Dispersion correction           -0.005625296
FINAL SINGLE POINT ENERGY      -153.830335821927
Dispersion correction             ... done (  0.1 sec)
Dispersion correction           -0.005624991
FINAL SINGLE POINT ENERGY      -153.830341589302
Dispersion correction             ... done (  0.1 sec)
                    ***********************HURRAY********************

CARTESIAN COORDINATES (ANGSTROEM)
---------------------------------
  O      0.269347    0.967362   -0.001866
  C      0.642003   -0.322035   -0.000433
  C     -0.736133   -0.673366    0.000386
  H      1.199223   -0.640739    0.888779
  H      1.199850   -0.642279   -0.888626
  H     -1.286786   -0.705271   -0.926379
  H     -1.285304   -0.702072    0.928139

 Multiplicity           Mult            ....    1
 Number of Electrons    NEL             ....   24
 Basis Dimension        Dim             ....  182

ORBITAL ENERGIES
----------------

  NO   OCC          E(Eh)            E(eV)
   0   2.0000     -19.338438      -526.2256
   1   2.0000     -10.428904      -283.7849
   2   2.0000     -10.396833      -282.9122
   3   2.0000      -1.147222       -31.2175
   4   2.0000      -0.864631       -23.5278
   5   2.0000      -0.735316       -20.0090
   6   2.0000      -0.625639       -17.0245
   7   2.0000      -0.580770       -15.8035
   8   2.0000      -0.513910       -13.9842
   9   2.0000      -0.506333       -13.7780
  10   2.0000      -0.388532       -10.5725
  11   2.0000      -0.364299        -9.9131
  12   0.0000      -0.011866        -0.3229
  13   0.0000       0.040608         1.1050
  14   0.0000       0.060784         1.6540
  15   0.0000       0.076635         2.0853
  16   0.0000       0.098427         2.6783

MULLIKEN ATOMIC CHARGES
-----------------------
   0 O :   -0.478891
   1 C :   -0.083225
   2 C :   -0.306785
   3 H :    0.216760
   4 H :    0.216903
   5 H :    0.217570
   6 H :    0.217667
Sum of atomic charges:    0.0000000

LOEWDIN ATOMIC CHARGES
----------------------
   0 O :   -0.017950
   1 C :   -0.339802
   2 C :    0.321221
   3 H :    0.024554
   4 H :    0.024557
   5 H :   -0.006286
   6 H :   -0.006294

  Mayer bond orders larger than 0.100000
B(  0-O ,  1-C ) :   0.6685 B(  0-O ,  2-C ) :   0.9476 B(  1-C ,  2-C ) :   0.7665
B(  1-C ,  3-H ) :   1.0491 B(  1-C ,  4-H ) :   1.0488 B(  2-C ,  5-H ) :   0.9642
B(  2-C ,  6-H ) :   0.9642

Dispersion correction           -0.005624568
FINAL SINGLE POINT ENERGY      -153.830343049202

DIPOLE MOMENT
-------------

Method             : SCF
Type of density    : Electron Density
Multiplicity       :   1
Irrep              :   0
Energy             :  -153.8247184815388380 Eh
Relativity type    :
Basis              : AO
                                X                 Y                 Z
Electronic contribution:      0.054763082       1.438263717      -0.002720005
Nuclear contribution   :     -0.415269547      -2.578929117       0.004205241
                        -----------------------------------------
Total Dipole Moment    :     -0.360506465      -1.140665400       0.001485237
                        -----------------------------------------
Magnitude (a.u.)       :      1.196279513
Magnitude (Debye)      :      3.040700873

Rotational constants in cm-1:             1.042547             0.516978             0.400167
Rotational constants in MHz :         31254.779517         15498.599273         11996.700834

                             ****ORCA TERMINATED NORMALLY****
TOTAL RUN TIME: 0 days 0 hours 2 minutes 31 seconds 150 msec
