                         Program Version 6.0.0  -   RELEASE  -
|  1> ! Engrad def2-TZVPPD wB97M-D3BJ
|  2> %pal nprocs 8 end%pal nprocs 32 end
|  3>  %tddft nroots 2 Iroot 2
|  4> sf true
|  5> end
|  6> *xyz 0 3
|  7> O   2.67703839281085 1.12932486277831 -0.62799593921626
|  8> O   -0.50087464308271 0.84072334210426 -2.16419465454083
|  9> O   0.67944337407255 -2.85381098747635 -1.50946210010062
| 10> O   -2.5635841829164 -1.66927789128977 1.00893888107049
| 11> N   0.63855136902323 -2.06477368173342 0.62599068237566
| 12> N   -2.16683015241359 0.53223471524406 1.43653837454716
| 13> N   1.77514372719145 -0.91390968608284 -1.01511589854442
| 14> N   -1.61236582819653 -0.36623293859762 -0.60527862561181
| 15> C   1.48725401772887 0.10289632950932 1.14690700101623
| 16> C   -0.89079205382129 1.87134698671032 -0.06035398595734
| 17> C   0.83604018360176 -1.01551166570375 1.49221371801557
| 18> C   -1.55327938384246 1.71754858348207 1.08996239959131
| 19> C   1.74863866104808 1.23368218141739 2.08810883826323
| 20> C   -0.17368092529629 3.12148109292509 -0.45659552619231
| 21> C   2.04064100724697 0.18782552341284 -0.20512909410296
| 22> C   -0.96057732493901 0.78928588335058 -1.04566815561442
| 23> C   1.00696116277936 -2.01365773370518 -0.70172670487664
| 24> C   -2.14944637060438 -0.5897444647343 0.64000112596155
| 25> H   0.42046632419185 -1.15651714289176 2.47863033050396
| 26> H   -1.59965394883844 2.49528312996811 1.83690855042194
| 27> H   1.39661420803077 2.17335834607936 1.66908443330279
| 28> H   1.25263589466308 1.06330411325594 3.041373376605
| 29> H   2.81656463201278 1.34779847911911 2.2656198654679
| 30> H   -0.60078931482194 3.53531075009002 -1.36783847520218
| 31> H   -0.23358975426087 3.86747207909966 0.33289734865771
| 32> H   0.87308918240042 2.90546352250293 -0.66355249731289
| 33> H   -0.01205756415542 -2.79501216554531 0.8613819553833
| 34> H   -2.589973975635 0.41238557613008 2.33875947546009
| 35> H   2.02277487353536 -0.81973066184193 -1.98801632436139
| 36> H   -1.61176158751307 -1.15354647757728 -1.23778837500983
| 37> *
| 38>
| 39>                          ****END OF INPUT****

CARTESIAN COORDINATES (ANGSTROEM)
---------------------------------
  O      2.677038    1.129325   -0.627996
  O     -0.500875    0.840723   -2.164195
  O      0.679443   -2.853811   -1.509462
  O     -2.563584   -1.669278    1.008939
  N      0.638551   -2.064774    0.625991
  N     -2.166830    0.532235    1.436538
  N      1.775144   -0.913910   -1.015116
  N     -1.612366   -0.366233   -0.605279
  C      1.487254    0.102896    1.146907
  C     -0.890792    1.871347   -0.060354
  C      0.836040   -1.015512    1.492214
  C     -1.553279    1.717549    1.089962
  C      1.748639    1.233682    2.088109
  C     -0.173681    3.121481   -0.456596
  C      2.040641    0.187826   -0.205129
  C     -0.960577    0.789286   -1.045668
  C      1.006961   -2.013658   -0.701727
  C     -2.149446   -0.589744    0.640001
  H      0.420466   -1.156517    2.478630
  H     -1.599654    2.495283    1.836909
  H      1.396614    2.173358    1.669084
  H      1.252636    1.063304    3.041373
  H      2.816565    1.347798    2.265620
  H     -0.600789    3.535311   -1.367838
  H     -0.233590    3.867472    0.332897
  H      0.873089    2.905464   -0.663552
  H     -0.012058   -2.795012    0.861382
  H     -2.589974    0.412386    2.338759
  H      2.022775   -0.819731   -1.988016
  H     -1.611762   -1.153546   -1.237788

 Total Charge           Charge          ....    0
 Multiplicity           Mult            ....    3
 Number of Electrons    NEL             ....  132
 Basis Dimension        Dim             ....  882

ORBITAL ENERGIES
----------------
                 SPIN UP ORBITALS
  NO   OCC          E(Eh)            E(eV)
   0   1.0000     -19.331425      -526.0348
   1   1.0000     -19.329178      -525.9737
   2   1.0000     -19.323660      -525.8235
   3   1.0000     -19.317195      -525.6476
   4   1.0000     -14.592245      -397.0752
   5   1.0000     -14.584445      -396.8629
   6   1.0000     -14.571606      -396.5135
   7   1.0000     -14.547702      -395.8631
   8   1.0000     -10.515579      -286.1435
   9   1.0000     -10.508350      -285.9467
  10   1.0000     -10.479586      -285.1640
  11   1.0000     -10.455012      -284.4954
  12   1.0000     -10.433498      -283.9099
  13   1.0000     -10.407416      -283.2002
  14   1.0000     -10.396547      -282.9044
  15   1.0000     -10.382030      -282.5094
  16   1.0000     -10.370217      -282.1879
  17   1.0000     -10.351975      -281.6916
  18   1.0000      -1.228828       -33.4381
  19   1.0000      -1.223991       -33.3065
  20   1.0000      -1.194752       -32.5109
  21   1.0000      -1.187808       -32.3219
  22   1.0000      -1.124600       -30.6019
  23   1.0000      -1.123689       -30.5771
  24   1.0000      -1.071507       -29.1572
  25   1.0000      -1.058986       -28.8165
  26   1.0000      -0.975061       -26.5327
  27   1.0000      -0.957916       -26.0662
  28   1.0000      -0.857110       -23.3232
  29   1.0000      -0.848129       -23.0788
  30   1.0000      -0.812046       -22.0969
  31   1.0000      -0.808560       -22.0020
  32   1.0000      -0.795375       -21.6432
  33   1.0000      -0.787631       -21.4325
  34   1.0000      -0.700146       -19.0519
  35   1.0000      -0.696828       -18.9617
  36   1.0000      -0.693160       -18.8618
  37   1.0000      -0.689865       -18.7722
  38   1.0000      -0.645834       -17.5740
  39   1.0000      -0.640934       -17.4407
  40   1.0000      -0.628074       -17.0908
  41   1.0000      -0.601673       -16.3724
  42   1.0000      -0.598490       -16.2858
  43   1.0000      -0.592491       -16.1225
  44   1.0000      -0.575391       -15.6572
  45   1.0000      -0.568845       -15.4791
  46   1.0000      -0.568426       -15.4677
  47   1.0000      -0.553149       -15.0519
  48   1.0000      -0.550816       -14.9885
  49   1.0000      -0.546452       -14.8697
  50   1.0000      -0.530704       -14.4412
  51   1.0000      -0.525064       -14.2877
  52   1.0000      -0.516481       -14.0542
  53   1.0000      -0.515143       -14.0178
  54   1.0000      -0.509408       -13.8617
  55   1.0000      -0.499983       -13.6052
  56   1.0000      -0.492721       -13.4076
  57   1.0000      -0.480165       -13.0659
  58   1.0000      -0.421440       -11.4680
  59   1.0000      -0.418616       -11.3911
  60   1.0000      -0.406675       -11.0662
  61   1.0000      -0.400817       -10.9068
  62   1.0000      -0.389467       -10.5979
  63   1.0000      -0.385632       -10.4936
  64   1.0000      -0.384732       -10.4691
  65   1.0000      -0.348691        -9.4884
  66   1.0000      -0.207766        -5.6536
  67   0.0000       0.011091         0.3018
  68   0.0000       0.019360         0.5268
  69   0.0000       0.032946         0.8965
  70   0.0000       0.037937         1.0323
  71   0.0000       0.042383         1.1533

                 SPIN DOWN ORBITALS
  NO   OCC          E(Eh)            E(eV)
   0   1.0000     -19.329492      -525.9822
   1   1.0000     -19.329163      -525.9733
   2   1.0000     -19.323746      -525.8259
   3   1.0000     -19.310861      -525.4752
   4   1.0000     -14.586887      -396.9294
   5   1.0000     -14.584121      -396.8541
   6   1.0000     -14.571606      -396.5136
   7   1.0000     -14.546797      -395.8385
   8   1.0000     -10.515592      -286.1438
   9   1.0000     -10.508760      -285.9579
  10   1.0000     -10.479556      -285.1632
  11   1.0000     -10.454645      -284.4854
  12   1.0000     -10.433105      -283.8992
  13   1.0000     -10.398009      -282.9442
  14   1.0000     -10.386413      -282.6287
  15   1.0000     -10.382125      -282.5120
  16   1.0000     -10.370693      -282.2009
  17   1.0000     -10.351945      -281.6907
  18   1.0000      -1.228247       -33.4223
  19   1.0000      -1.220051       -33.1993
  20   1.0000      -1.194735       -32.5104
  21   1.0000      -1.178458       -32.0675
  22   1.0000      -1.123693       -30.5772
  23   1.0000      -1.113092       -30.2888
  24   1.0000      -1.071333       -29.1525
  25   1.0000      -1.053410       -28.6647
  26   1.0000      -0.959330       -26.1047
  27   1.0000      -0.949639       -25.8410
  28   1.0000      -0.847808       -23.0700
  29   1.0000      -0.846136       -23.0245
  30   1.0000      -0.811426       -22.0800
  31   1.0000      -0.798334       -21.7238
  32   1.0000      -0.794501       -21.6195
  33   1.0000      -0.780806       -21.2468
  34   1.0000      -0.696470       -18.9519
  35   1.0000      -0.693155       -18.8617
  36   1.0000      -0.688268       -18.7287
  37   1.0000      -0.681775       -18.5520
  38   1.0000      -0.644136       -17.5278
  39   1.0000      -0.631852       -17.1936
  40   1.0000      -0.621718       -16.9178
  41   1.0000      -0.598403       -16.2834
  42   1.0000      -0.590900       -16.0792
  43   1.0000      -0.584204       -15.8970
  44   1.0000      -0.568868       -15.4797
  45   1.0000      -0.562284       -15.3005
  46   1.0000      -0.561248       -15.2723
  47   1.0000      -0.551449       -15.0057
  48   1.0000      -0.543486       -14.7890
  49   1.0000      -0.539505       -14.6807
  50   1.0000      -0.522260       -14.2114
  51   1.0000      -0.517812       -14.0904
  52   1.0000      -0.513473       -13.9723
  53   1.0000      -0.506886       -13.7931
  54   1.0000      -0.501549       -13.6478
  55   1.0000      -0.496216       -13.5027
  56   1.0000      -0.478814       -13.0292
  57   1.0000      -0.446134       -12.1399
  58   1.0000      -0.420972       -11.4552
  59   1.0000      -0.413760       -11.2590
  60   1.0000      -0.404477       -11.0064
  61   1.0000      -0.388389       -10.5686
  62   1.0000      -0.377672       -10.2770
  63   1.0000      -0.376082       -10.2337
  64   1.0000      -0.347658        -9.4602
  65   0.0000      -0.106458        -2.8969
  66   0.0000       0.010550         0.2871
  67   0.0000       0.020144         0.5481
  68   0.0000       0.030186         0.8214
  69   0.0000       0.035900         0.9769

----------------------------------------------------------------------------------------------------
          SPIN FLIP ABSORPTION SPECTRUM VIA TRANSITION ELECTRIC DIPOLE MOMENTS
----------------------------------------------------------------------------------------------------
     Transition      Energy     Energy  Wavelength fosc(D2)      D2        DX        DY        DZ
                      (eV)      (cm-1)    (nm)                 (au**2)    (au)      (au)      (au)
----------------------------------------------------------------------------------------------------
  1-3A  ->  2-3A    4.239933   34197.4   292.4   0.001758765   0.01693  -0.05676  -0.08908   0.07599

Dispersion correction             ... done (  0.1 sec)

MULLIKEN ATOMIC CHARGES AND SPIN DENSITIES
------------------------------------------
   0 O :   -0.692208    0.007498
   1 O :   -0.657398   -0.000746
   2 O :   -0.617501    0.005596
   3 O :   -0.667517    0.000590
   4 N :    0.035732    0.037243
   5 N :   -0.010300   -0.004447
   6 N :    0.000624   -0.012470
   7 N :    0.018587   -0.004627
   8 C :    1.288691    0.085315
   9 C :    0.521004    0.008639
  10 C :   -0.348135   -0.005022
  11 C :    0.111224   -0.018760
  12 C :   -1.373551   -0.016432
  13 C :   -1.460769    0.007828
  14 C :    0.111457   -0.101858
  15 C :    0.565746    0.003290
  16 C :    0.434521    0.003790
  17 C :    0.451473   -0.000844
  18 H :    0.128307   -0.007711
  19 H :    0.158193   -0.000942
  20 H :    0.214696    0.009703
  21 H :    0.339279   -0.002343
  22 H :    0.373272    0.009299
  23 H :    0.368742   -0.000097
  24 H :    0.330379    0.000375
  25 H :    0.229498   -0.001831
  26 H :    0.082908   -0.002320
  27 H :    0.020737    0.001167
  28 H :    0.024202    0.001200
  29 H :    0.018107   -0.001085
Sum of atomic charges       :    0.0000000

LOEWDIN ATOMIC CHARGES AND SPIN DENSITIES
-----------------------------------------
   0 O :    0.072852    0.005893
   1 O :    0.105389   -0.000155
   2 O :    0.109896    0.004253
   3 O :    0.072518   -0.000051
   4 N :    0.314816    0.025747
   5 N :    0.277077   -0.002864
   6 N :    0.317884   -0.008445
   7 N :    0.343191   -0.000480
   8 C :   -0.100877    0.008127
   9 C :   -0.143686    0.000434
  10 C :    0.003215   -0.016397
  11 C :    0.053422   -0.001467
  12 C :    0.211090    0.002039
  13 C :    0.180843    0.000275
  14 C :   -0.438009   -0.009351
  15 C :   -0.392715   -0.000195
  16 C :   -0.474200   -0.002589
  17 C :   -0.492613   -0.000390
  18 H :    0.006916   -0.007027
  19 H :    0.037520   -0.000364
  20 H :   -0.009636    0.000971
  21 H :   -0.003380   -0.000530
  22 H :    0.015518    0.001199
  23 H :    0.003344    0.000086
  24 H :   -0.005385   -0.000038
  25 H :   -0.015031    0.000059
  26 H :   -0.010637    0.002493
  27 H :   -0.021629   -0.000209
  28 H :   -0.008888   -0.000982
  29 H :   -0.008804   -0.000044

  Mayer bond orders larger than 0.100000
B(  0-O , 14-C ) :   1.2602 B(  1-O , 15-C ) :   1.4102 B(  2-O , 16-C ) :   1.5771
B(  3-O , 17-C ) :   1.5360 B(  4-N , 10-C ) :   0.8537 B(  4-N , 16-C ) :   0.9361
B(  4-N , 26-H ) :   1.0824 B(  5-N , 11-C ) :   0.9588 B(  5-N , 17-C ) :   1.0358
B(  5-N , 27-H ) :   1.1350 B(  6-N , 14-C ) :   0.9091 B(  6-N , 16-C ) :   0.9261
B(  6-N , 28-H ) :   1.1080 B(  7-N , 15-C ) :   0.9773 B(  7-N , 17-C ) :   0.9243
B(  7-N , 29-H ) :   1.1250 B(  8-C , 10-C ) :   0.4267 B(  8-C , 12-C ) :   0.3412
B(  8-C , 14-C ) :   0.8069 B(  8-C , 18-H ) :  -0.1539 B(  8-C , 21-H ) :  -0.1070
B(  9-C , 11-C ) :   1.1629 B(  9-C , 13-C ) :   0.3405 B(  9-C , 15-C ) :   0.8071
B(  9-C , 24-H ) :  -0.1093 B(  9-C , 25-H ) :  -0.1110 B( 10-C , 12-C ) :  -0.1135
B( 10-C , 18-H ) :   1.2242 B( 11-C , 13-C ) :  -0.2151 B( 11-C , 19-H ) :   1.0948
B( 12-C , 14-C ) :  -0.1002 B( 12-C , 20-H ) :   1.0080 B( 12-C , 21-H ) :   1.0027
B( 12-C , 22-H ) :   0.8704 B( 13-C , 23-H ) :   0.8802 B( 13-C , 24-H ) :   1.0558
B( 13-C , 25-H ) :   0.9992

Dispersion correction           -0.059645881
FINAL SINGLE POINT ENERGY      -908.770641379017

DIPOLE MOMENT
-------------

Method             : TDA/CIS
Type of density    : Electron Density
Level              : Relaxed density
State              :   2
Multiplicity       :   3
Irrep              :   0
Energy             :     0.0000000000000000 Eh
Relativity type    :
Basis              : AO
                                X                 Y                 Z
Electronic contribution:     -2.564521570     -10.286217136      -5.954304041
Nuclear contribution   :      1.800761365      11.238802268       8.432786242
                        -----------------------------------------
Total Dipole Moment    :     -0.763760205       0.952585132       2.478482200
                        -----------------------------------------
Magnitude (a.u.)       :      2.762901030
Magnitude (Debye)      :      7.022736312

Rotational constants in cm-1:             0.017534             0.016358             0.012931
Rotational constants in MHz :           525.655790           490.405591           387.671170

                             ****ORCA TERMINATED NORMALLY****
TOTAL RUN TIME: 0 days 0 hours 8 minutes 17 seconds 839 msec
