                         Program Version 6.0.0  -   RELEASE  -
|  1> ! Engrad def2-TZVPPD wB97M-D3BJ
|  2> %pal nprocs 8 end%pal nprocs 64 end
|  3> %tddft Nroots 2 Iroot 2
|  4> sf true
|  5> end
|  6> *xyz 0 3
|  7> O   2.884504 1.10149799 -0.83775594
|  8> O   -0.55283178 0.9096638 -2.03509247
|  9> O   1.32900018 -3.18735968 -1.18800294
| 10> O   -3.21279599 -1.58546779 0.58629355
| 11> N   0.81545597 -2.04084386 0.70259465
| 12> N   -2.47292853 0.41256351 1.46353018
| 13> N   1.94640366 -1.00438314 -1.02034473
| 14> N   -1.90344043 -0.29124904 -0.69186335
| 15> C   1.84257462 0.17588569 1.07169115
| 16> C   -1.24077732 1.88521889 -0.04368508
| 17> C   1.00662966 -0.89582706 1.49840995
| 18> C   -1.96688313 1.69411655 1.16981465
| 19> C   2.35553733 1.26816385 1.94665725
| 20> C   -0.51417115 3.18379328 -0.13250702
| 21> C   2.26520564 0.23715162 -0.28282087
| 22> C   -1.18222915 0.85271909 -1.02504429
| 23> C   1.39629365 -2.16632484 -0.5723785
| 24> C   -2.6163131 -0.57896458 0.43224563
| 25> H   0.49188519 -0.85735236 2.42059037
| 26> H   -2.02887147 2.39479276 1.98216524
| 27> H   1.64563152 1.98514782 2.55829043
| 28> H   3.03279219 0.79258111 2.67408804
| 29> H   2.99783472 1.99813593 1.4553932
| 30> H   -1.13306966 4.00642495 0.28726611
| 31> H   0.46583294 3.21488554 0.51421827
| 32> H   0.03747771 3.22999531 -1.07748926
| 33> H   0.25449807 -2.84081666 1.01574231
| 34> H   -2.99846531 0.26888758 2.32358175
| 35> H   2.48158793 -0.97655696 -1.86439038
| 36> H   -1.8950436 -1.02308238 -1.33422446
| 37> *
| 38>
| 39>                          ****END OF INPUT****

CARTESIAN COORDINATES (ANGSTROEM)
---------------------------------
  O      2.884504    1.101498   -0.837756
  O     -0.552832    0.909664   -2.035092
  O      1.329000   -3.187360   -1.188003
  O     -3.212796   -1.585468    0.586294
  N      0.815456   -2.040844    0.702595
  N     -2.472929    0.412564    1.463530
  N      1.946404   -1.004383   -1.020345
  N     -1.903440   -0.291249   -0.691863
  C      1.842575    0.175886    1.071691
  C     -1.240777    1.885219   -0.043685
  C      1.006630   -0.895827    1.498410
  C     -1.966883    1.694117    1.169815
  C      2.355537    1.268164    1.946657
  C     -0.514171    3.183793   -0.132507
  C      2.265206    0.237152   -0.282821
  C     -1.182229    0.852719   -1.025044
  C      1.396294   -2.166325   -0.572378
  C     -2.616313   -0.578965    0.432246
  H      0.491885   -0.857352    2.420590
  H     -2.028871    2.394793    1.982165
  H      1.645632    1.985148    2.558290
  H      3.032792    0.792581    2.674088
  H      2.997835    1.998136    1.455393
  H     -1.133070    4.006425    0.287266
  H      0.465833    3.214886    0.514218
  H      0.037478    3.229995   -1.077489
  H      0.254498   -2.840817    1.015742
  H     -2.998465    0.268888    2.323582
  H      2.481588   -0.976557   -1.864390
  H     -1.895044   -1.023082   -1.334224

 Total Charge           Charge          ....    0
 Multiplicity           Mult            ....    3
 Number of Electrons    NEL             ....  132
 Basis Dimension        Dim             ....  882

ORBITAL ENERGIES
----------------
                 SPIN UP ORBITALS
  NO   OCC          E(Eh)            E(eV)
   0   1.0000     -19.331858      -526.0466
   1   1.0000     -19.331279      -526.0308
   2   1.0000     -19.322615      -525.7951
   3   1.0000     -19.318261      -525.6766
   4   1.0000     -14.584039      -396.8519
   5   1.0000     -14.582683      -396.8150
   6   1.0000     -14.563566      -396.2948
   7   1.0000     -14.541291      -395.6886
   8   1.0000     -10.513209      -286.0790
   9   1.0000     -10.500692      -285.7384
  10   1.0000     -10.472693      -284.9765
  11   1.0000     -10.463589      -284.7287
  12   1.0000     -10.444568      -284.2111
  13   1.0000     -10.417055      -283.4625
  14   1.0000     -10.403304      -283.0883
  15   1.0000     -10.383207      -282.5414
  16   1.0000     -10.377549      -282.3875
  17   1.0000     -10.362677      -281.9828
  18   1.0000      -1.237002       -33.6605
  19   1.0000      -1.220076       -33.2000
  20   1.0000      -1.203063       -32.7370
  21   1.0000      -1.200952       -32.6796
  22   1.0000      -1.113129       -30.2898
  23   1.0000      -1.105344       -30.0779
  24   1.0000      -1.068917       -29.0867
  25   1.0000      -1.043951       -28.4073
  26   1.0000      -0.964530       -26.2462
  27   1.0000      -0.943874       -25.6841
  28   1.0000      -0.846189       -23.0260
  29   1.0000      -0.831435       -22.6245
  30   1.0000      -0.814878       -22.1740
  31   1.0000      -0.803506       -21.8645
  32   1.0000      -0.788236       -21.4490
  33   1.0000      -0.777601       -21.1596
  34   1.0000      -0.696051       -18.9405
  35   1.0000      -0.682721       -18.5778
  36   1.0000      -0.681710       -18.5503
  37   1.0000      -0.673801       -18.3350
  38   1.0000      -0.641581       -17.4583
  39   1.0000      -0.626341       -17.0436
  40   1.0000      -0.612516       -16.6674
  41   1.0000      -0.602114       -16.3844
  42   1.0000      -0.600051       -16.3282
  43   1.0000      -0.595121       -16.1941
  44   1.0000      -0.571721       -15.5573
  45   1.0000      -0.570489       -15.5238
  46   1.0000      -0.562135       -15.2965
  47   1.0000      -0.558423       -15.1955
  48   1.0000      -0.556206       -15.1351
  49   1.0000      -0.542501       -14.7622
  50   1.0000      -0.533285       -14.5114
  51   1.0000      -0.523527       -14.2459
  52   1.0000      -0.520296       -14.1580
  53   1.0000      -0.512822       -13.9546
  54   1.0000      -0.490814       -13.3557
  55   1.0000      -0.488145       -13.2831
  56   1.0000      -0.481798       -13.1104
  57   1.0000      -0.459838       -12.5128
  58   1.0000      -0.424789       -11.5591
  59   1.0000      -0.419763       -11.4223
  60   1.0000      -0.406172       -11.0525
  61   1.0000      -0.399519       -10.8715
  62   1.0000      -0.389974       -10.6117
  63   1.0000      -0.386764       -10.5244
  64   1.0000      -0.377158       -10.2630
  65   1.0000      -0.330141        -8.9836
  66   1.0000      -0.229969        -6.2578
  67   0.0000       0.005012         0.1364
  68   0.0000       0.011023         0.3000
  69   0.0000       0.030219         0.8223
  70   0.0000       0.033916         0.9229
  71   0.0000       0.042879         1.1668

                 SPIN DOWN ORBITALS
  NO   OCC          E(Eh)            E(eV)
   0   1.0000     -19.331274      -526.0307
   1   1.0000     -19.325367      -525.8700
   2   1.0000     -19.320864      -525.7474
   3   1.0000     -19.318302      -525.6777
   4   1.0000     -14.582588      -396.8124
   5   1.0000     -14.578910      -396.7123
   6   1.0000     -14.563573      -396.2950
   7   1.0000     -14.540658      -395.6714
   8   1.0000     -10.513207      -286.0789
   9   1.0000     -10.501059      -285.7483
  10   1.0000     -10.472683      -284.9762
  11   1.0000     -10.463669      -284.7309
  12   1.0000     -10.444433      -284.2075
  13   1.0000     -10.407386      -283.1994
  14   1.0000     -10.392576      -282.7964
  15   1.0000     -10.383222      -282.5418
  16   1.0000     -10.378089      -282.4022
  17   1.0000     -10.362671      -281.9826
  18   1.0000      -1.236986       -33.6601
  19   1.0000      -1.216084       -33.0913
  20   1.0000      -1.203039       -32.7363
  21   1.0000      -1.191399       -32.4196
  22   1.0000      -1.113023       -30.2869
  23   1.0000      -1.095043       -29.7976
  24   1.0000      -1.068835       -29.0845
  25   1.0000      -1.038385       -28.2559
  26   1.0000      -0.944380       -25.6979
  27   1.0000      -0.940662       -25.5967
  28   1.0000      -0.833679       -22.6856
  29   1.0000      -0.831231       -22.6189
  30   1.0000      -0.814804       -22.1719
  31   1.0000      -0.789268       -21.4771
  32   1.0000      -0.788107       -21.4455
  33   1.0000      -0.772194       -21.0125
  34   1.0000      -0.696028       -18.9399
  35   1.0000      -0.676105       -18.3978
  36   1.0000      -0.673766       -18.3341
  37   1.0000      -0.669793       -18.2260
  38   1.0000      -0.641419       -17.4539
  39   1.0000      -0.618437       -16.8285
  40   1.0000      -0.608280       -16.5521
  41   1.0000      -0.600058       -16.3284
  42   1.0000      -0.589437       -16.0394
  43   1.0000      -0.583763       -15.8850
  44   1.0000      -0.570824       -15.5329
  45   1.0000      -0.563310       -15.3284
  46   1.0000      -0.558156       -15.1882
  47   1.0000      -0.551004       -14.9936
  48   1.0000      -0.545205       -14.8358
  49   1.0000      -0.536737       -14.6054
  50   1.0000      -0.521824       -14.1996
  51   1.0000      -0.520944       -14.1756
  52   1.0000      -0.513443       -13.9715
  53   1.0000      -0.500730       -13.6256
  54   1.0000      -0.489452       -13.3187
  55   1.0000      -0.483669       -13.1613
  56   1.0000      -0.459794       -12.5116
  57   1.0000      -0.435561       -11.8522
  58   1.0000      -0.424696       -11.5566
  59   1.0000      -0.413463       -11.2509
  60   1.0000      -0.403910       -10.9909
  61   1.0000      -0.388542       -10.5728
  62   1.0000      -0.383248       -10.4287
  63   1.0000      -0.377776       -10.2798
  64   1.0000      -0.330346        -8.9892
  65   0.0000      -0.095863        -2.6086
  66   0.0000       0.005583         0.1519
  67   0.0000       0.010333         0.2812
  68   0.0000       0.028554         0.7770
  69   0.0000       0.032037         0.8718

----------------------------------------------------------------------------------------------------
          SPIN FLIP ABSORPTION SPECTRUM VIA TRANSITION ELECTRIC DIPOLE MOMENTS
----------------------------------------------------------------------------------------------------
     Transition      Energy     Energy  Wavelength fosc(D2)      D2        DX        DY        DZ
                      (eV)      (cm-1)    (nm)                 (au**2)    (au)      (au)      (au)
----------------------------------------------------------------------------------------------------
  1-3A  ->  2-3A    3.409032   27495.7   363.7   0.000731746   0.00876   0.04208   0.03916  -0.07387

Dispersion correction             ... done (  0.1 sec)

MULLIKEN ATOMIC CHARGES AND SPIN DENSITIES
------------------------------------------
   0 O :   -0.648313    0.003351
   1 O :   -0.637640   -0.000282
   2 O :   -0.613378    0.001650
   3 O :   -0.605777    0.000157
   4 N :    0.024570    0.024569
   5 N :    0.019323   -0.005202
   6 N :    0.030848   -0.003988
   7 N :    0.053470   -0.000070
   8 C :    1.050790    0.078671
   9 C :    0.625398    0.000006
  10 C :   -0.496249    0.062511
  11 C :   -0.068898    0.005441
  12 C :   -1.275160   -0.020894
  13 C :   -1.238006    0.000893
  14 C :    0.290986   -0.140550
  15 C :    0.483523   -0.007436
  16 C :    0.457274    0.006779
  17 C :    0.430130    0.000110
  18 H :    0.177350   -0.022455
  19 H :    0.158835    0.001409
  20 H :    0.254003    0.004633
  21 H :    0.396499    0.008994
  22 H :    0.268373    0.000880
  23 H :    0.374902   -0.000145
  24 H :    0.134743   -0.000183
  25 H :    0.262808    0.000047
  26 H :    0.085219   -0.000800
  27 H :    0.059961    0.000488
  28 H :    0.003253    0.001363
  29 H :   -0.058835    0.000053
Sum of atomic charges       :    0.0000000

LOEWDIN ATOMIC CHARGES AND SPIN DENSITIES
-----------------------------------------
   0 O :    0.096314    0.003096
   1 O :    0.115443   -0.000021
   2 O :    0.114929    0.001231
   3 O :    0.113924   -0.000003
   4 N :    0.283179    0.015306
   5 N :    0.259098   -0.000842
   6 N :    0.328256   -0.004432
   7 N :    0.355036   -0.000151
   8 C :   -0.098743    0.005588
   9 C :   -0.133973   -0.000038
  10 C :    0.055422   -0.009159
  11 C :    0.106948   -0.000498
  12 C :    0.158837    0.000419
  13 C :    0.144672   -0.000056
  14 C :   -0.413779   -0.005648
  15 C :   -0.441868   -0.000015
  16 C :   -0.502261   -0.001580
  17 C :   -0.485341   -0.000037
  18 H :   -0.032259   -0.004880
  19 H :    0.021111   -0.000039
  20 H :    0.054158    0.000438
  21 H :    0.002365    0.000270
  22 H :   -0.016164    0.000069
  23 H :    0.001979   -0.000007
  24 H :    0.028292   -0.000014
  25 H :   -0.012624   -0.000013
  26 H :    0.003052    0.001493
  27 H :   -0.025962   -0.000015
  28 H :   -0.034979   -0.000459
  29 H :   -0.045062   -0.000002

  Mayer bond orders larger than 0.100000
B(  0-O , 14-C ) :   1.2727 B(  1-O , 15-C ) :   1.4436 B(  2-O , 16-C ) :   1.5912
B(  3-O , 17-C ) :   1.5813 B(  4-N , 10-C ) :   0.9602 B(  4-N , 16-C ) :   0.9743
B(  4-N , 26-H ) :   1.0779 B(  5-N , 11-C ) :   0.9614 B(  5-N , 17-C ) :   1.0268
B(  5-N , 27-H ) :   1.1008 B(  6-N ,  8-C ) :  -0.1019 B(  6-N , 14-C ) :   0.9319
B(  6-N , 16-C ) :   1.0337 B(  6-N , 28-H ) :   1.1108 B(  7-N , 15-C ) :   0.8742
B(  7-N , 17-C ) :   0.9701 B(  7-N , 29-H ) :   1.1886 B(  8-C , 10-C ) :   0.5528
B(  8-C , 12-C ) :   0.5097 B(  8-C , 14-C ) :   0.8052 B(  8-C , 22-H ) :  -0.1066
B(  9-C , 11-C ) :   1.0810 B(  9-C , 13-C ) :   0.5979 B(  9-C , 15-C ) :   0.8125
B(  9-C , 19-H ) :  -0.1128 B( 10-C , 18-H ) :   1.0792 B( 11-C , 19-H ) :   1.1411
B( 12-C , 20-H ) :   0.9134 B( 12-C , 21-H ) :   0.8375 B( 12-C , 22-H ) :   1.0371
B( 13-C , 23-H ) :   0.9093 B( 13-C , 24-H ) :   1.0039 B( 13-C , 25-H ) :   0.9971

Dispersion correction           -0.052469738
FINAL SINGLE POINT ENERGY      -908.726540603814

DIPOLE MOMENT
-------------

Method             : TDA/CIS
Type of density    : Electron Density
Level              : Relaxed density
State              :   2
Multiplicity       :   3
Irrep              :   0
Energy             :     0.0000000000000000 Eh
Relativity type    :
Basis              : AO
                                X                 Y                 Z
Electronic contribution:     -3.641516150     -10.552340777      -7.047285177
Nuclear contribution   :      2.958477994      11.603246962       9.752305573
                        -----------------------------------------
Total Dipole Moment    :     -0.683038156       1.050906185       2.705020396
                        -----------------------------------------
Magnitude (a.u.)       :      2.981288358
Magnitude (Debye)      :      7.577832786

Rotational constants in cm-1:             0.017477             0.013047             0.010323
Rotational constants in MHz :           523.939899           391.148044           309.462851

                             ****ORCA TERMINATED NORMALLY****
TOTAL RUN TIME: 0 days 0 hours 5 minutes 10 seconds 188 msec
