                         Program Version 6.0.0  -   RELEASE  -
|  1> ! Engrad def2-TZVPPD wB97M-D3BJ
|  2> %pal nprocs 8 end%pal nprocs 64 end
|  3> %tddft Nroots 2 Iroot 2
|  4> sf true
|  5> end
|  6> *xyz 0 3
|  7> O   3.86828067 0.37467699 -0.08506424
|  8> O   -1.52122646 1.19027113 -2.44062832
|  9> O   0.93575628 -2.94177479 -1.05637016
| 10> O   -3.64322511 -1.277388 0.70484716
| 11> N   0.20471066 -1.35498704 0.37409391
| 12> N   -1.91202395 0.07503462 1.3706976
| 13> N   2.3209846 -1.20531659 -0.66154885
| 14> N   -2.50058364 -0.08641485 -0.83435971
| 15> C   1.81730582 0.46393599 0.96506246
| 16> C   -0.79072639 1.46764119 -0.20717762
| 17> C   0.50613826 -0.20342487 1.23877339
| 18> C   -0.66554078 0.81461355 1.12795034
| 19> C   2.16939294 1.5932093 1.92070124
| 20> C   -0.03683845 2.72267976 -0.49021426
| 21> C   2.78724398 -0.10683741 0.07782721
| 22> C   -1.5849759 0.8259315 -1.25855944
| 23> C   1.12722488 -1.89212641 -0.49913569
| 24> C   -2.75116837 -0.49467591 0.46348294
| 25> H   0.52376613 -0.48528466 2.28413199
| 26> H   -0.64245772 1.5717076 1.91517405
| 27> H   3.0606221 1.24670429 2.44207691
| 28> H   2.27525469 2.5186536 1.39539184
| 29> H   1.34188851 1.74900628 2.67913973
| 30> H   -0.47946638 3.55730181 0.09814933
| 31> H   1.02377081 2.68181086 -0.32496919
| 32> H   -0.17254081 2.8874223 -1.57185075
| 33> H   -0.60086155 -1.94062288 0.6201387
| 34> H   -2.27748178 0.03713433 2.26434822
| 35> H   3.01757914 -1.62517941 -1.30126554
| 36> H   -3.02446896 -0.58805485 -1.58464418
| 37> *
| 38>
| 39>                          ****END OF INPUT****

CARTESIAN COORDINATES (ANGSTROEM)
---------------------------------
  O      3.868281    0.374677   -0.085064
  O     -1.521226    1.190271   -2.440628
  O      0.935756   -2.941775   -1.056370
  O     -3.643225   -1.277388    0.704847
  N      0.204711   -1.354987    0.374094
  N     -1.912024    0.075035    1.370698
  N      2.320985   -1.205317   -0.661549
  N     -2.500584   -0.086415   -0.834360
  C      1.817306    0.463936    0.965062
  C     -0.790726    1.467641   -0.207178
  C      0.506138   -0.203425    1.238773
  C     -0.665541    0.814614    1.127950
  C      2.169393    1.593209    1.920701
  C     -0.036838    2.722680   -0.490214
  C      2.787244   -0.106837    0.077827
  C     -1.584976    0.825932   -1.258559
  C      1.127225   -1.892126   -0.499136
  C     -2.751168   -0.494676    0.463483
  H      0.523766   -0.485285    2.284132
  H     -0.642458    1.571708    1.915174
  H      3.060622    1.246704    2.442077
  H      2.275255    2.518654    1.395392
  H      1.341889    1.749006    2.679140
  H     -0.479466    3.557302    0.098149
  H      1.023771    2.681811   -0.324969
  H     -0.172541    2.887422   -1.571851
  H     -0.600862   -1.940623    0.620139
  H     -2.277482    0.037134    2.264348
  H      3.017579   -1.625179   -1.301266
  H     -3.024469   -0.588055   -1.584644

 Total Charge           Charge          ....    0
 Multiplicity           Mult            ....    3
 Number of Electrons    NEL             ....  132
 Basis Dimension        Dim             ....  882

ORBITAL ENERGIES
----------------
                 SPIN UP ORBITALS
  NO   OCC          E(Eh)            E(eV)
   0   1.0000     -19.337948      -526.2123
   1   1.0000     -19.331159      -526.0276
   2   1.0000     -19.325674      -525.8783
   3   1.0000     -19.314802      -525.5825
   4   1.0000     -14.565805      -396.3557
   5   1.0000     -14.565380      -396.3441
   6   1.0000     -14.561302      -396.2332
   7   1.0000     -14.560357      -396.2075
   8   1.0000     -10.509706      -285.9836
   9   1.0000     -10.504593      -285.8445
  10   1.0000     -10.482415      -285.2410
  11   1.0000     -10.481692      -285.2213
  12   1.0000     -10.448962      -284.3307
  13   1.0000     -10.446353      -284.2597
  14   1.0000     -10.422640      -283.6145
  15   1.0000     -10.418214      -283.4940
  16   1.0000     -10.387497      -282.6582
  17   1.0000     -10.371668      -282.2274
  18   1.0000      -1.224848       -33.3298
  19   1.0000      -1.222668       -33.2705
  20   1.0000      -1.205564       -32.8051
  21   1.0000      -1.188675       -32.3455
  22   1.0000      -1.121764       -30.5248
  23   1.0000      -1.095995       -29.8235
  24   1.0000      -1.068627       -29.0788
  25   1.0000      -1.054124       -28.6842
  26   1.0000      -0.986537       -26.8450
  27   1.0000      -0.955214       -25.9927
  28   1.0000      -0.892549       -24.2875
  29   1.0000      -0.844000       -22.9664
  30   1.0000      -0.829568       -22.5737
  31   1.0000      -0.800628       -21.7862
  32   1.0000      -0.793221       -21.5846
  33   1.0000      -0.784148       -21.3377
  34   1.0000      -0.705731       -19.2039
  35   1.0000      -0.699069       -19.0226
  36   1.0000      -0.687776       -18.7153
  37   1.0000      -0.678289       -18.4572
  38   1.0000      -0.648636       -17.6503
  39   1.0000      -0.639521       -17.4022
  40   1.0000      -0.630478       -17.1562
  41   1.0000      -0.605433       -16.4747
  42   1.0000      -0.594291       -16.1715
  43   1.0000      -0.587664       -15.9912
  44   1.0000      -0.583627       -15.8813
  45   1.0000      -0.576643       -15.6913
  46   1.0000      -0.568752       -15.4765
  47   1.0000      -0.562800       -15.3146
  48   1.0000      -0.561112       -15.2686
  49   1.0000      -0.557889       -15.1809
  50   1.0000      -0.552164       -15.0251
  51   1.0000      -0.538033       -14.6406
  52   1.0000      -0.532523       -14.4907
  53   1.0000      -0.527612       -14.3571
  54   1.0000      -0.518845       -14.1185
  55   1.0000      -0.506426       -13.7806
  56   1.0000      -0.485916       -13.2224
  57   1.0000      -0.423502       -11.5241
  58   1.0000      -0.419313       -11.4101
  59   1.0000      -0.413295       -11.2463
  60   1.0000      -0.405814       -11.0428
  61   1.0000      -0.401302       -10.9200
  62   1.0000      -0.393644       -10.7116
  63   1.0000      -0.390254       -10.6193
  64   1.0000      -0.386700       -10.5226
  65   1.0000      -0.348260        -9.4766
  66   1.0000      -0.334974        -9.1151
  67   0.0000       0.006339         0.1725
  68   0.0000       0.028833         0.7846
  69   0.0000       0.030644         0.8339
  70   0.0000       0.034802         0.9470
  71   0.0000       0.052752         1.4355

                 SPIN DOWN ORBITALS
  NO   OCC          E(Eh)            E(eV)
   0   1.0000     -19.333895      -526.1020
   1   1.0000     -19.326755      -525.9077
   2   1.0000     -19.325498      -525.8735
   3   1.0000     -19.314784      -525.5820
   4   1.0000     -14.565363      -396.3437
   5   1.0000     -14.564563      -396.3219
   6   1.0000     -14.561342      -396.2343
   7   1.0000     -14.560105      -396.2006
   8   1.0000     -10.509739      -285.9845
   9   1.0000     -10.504633      -285.8456
  10   1.0000     -10.483371      -285.2670
  11   1.0000     -10.482812      -285.2518
  12   1.0000     -10.448733      -284.3245
  13   1.0000     -10.446069      -284.2520
  14   1.0000     -10.411090      -283.3002
  15   1.0000     -10.406571      -283.1772
  16   1.0000     -10.387983      -282.6714
  17   1.0000     -10.372185      -282.2415
  18   1.0000      -1.222600       -33.2686
  19   1.0000      -1.220136       -33.2016
  20   1.0000      -1.202959       -32.7342
  21   1.0000      -1.183132       -32.1947
  22   1.0000      -1.119330       -30.4585
  23   1.0000      -1.093842       -29.7649
  24   1.0000      -1.066638       -29.0247
  25   1.0000      -1.052765       -28.6472
  26   1.0000      -0.974310       -26.5123
  27   1.0000      -0.937441       -25.5091
  28   1.0000      -0.886433       -24.1211
  29   1.0000      -0.838800       -22.8249
  30   1.0000      -0.820799       -22.3351
  31   1.0000      -0.795650       -21.6507
  32   1.0000      -0.791020       -21.5247
  33   1.0000      -0.782786       -21.3007
  34   1.0000      -0.702011       -19.1027
  35   1.0000      -0.692855       -18.8535
  36   1.0000      -0.681157       -18.5352
  37   1.0000      -0.671815       -18.2810
  38   1.0000      -0.637731       -17.3536
  39   1.0000      -0.635570       -17.2947
  40   1.0000      -0.622332       -16.9345
  41   1.0000      -0.600377       -16.3371
  42   1.0000      -0.586201       -15.9513
  43   1.0000      -0.582296       -15.8451
  44   1.0000      -0.576560       -15.6890
  45   1.0000      -0.569245       -15.4899
  46   1.0000      -0.562987       -15.3197
  47   1.0000      -0.558047       -15.1852
  48   1.0000      -0.554834       -15.0978
  49   1.0000      -0.550378       -14.9765
  50   1.0000      -0.546273       -14.8648
  51   1.0000      -0.528765       -14.3884
  52   1.0000      -0.523016       -14.2320
  53   1.0000      -0.522696       -14.2233
  54   1.0000      -0.509363       -13.8605
  55   1.0000      -0.502079       -13.6623
  56   1.0000      -0.480810       -13.0835
  57   1.0000      -0.419308       -11.4100
  58   1.0000      -0.415725       -11.3125
  59   1.0000      -0.404978       -11.0200
  60   1.0000      -0.393844       -10.7170
  61   1.0000      -0.392502       -10.6805
  62   1.0000      -0.388285       -10.5658
  63   1.0000      -0.386437       -10.5155
  64   1.0000      -0.379631       -10.3303
  65   0.0000      -0.059365        -1.6154
  66   0.0000      -0.054306        -1.4777
  67   0.0000       0.006131         0.1668
  68   0.0000       0.028683         0.7805
  69   0.0000       0.030289         0.8242

----------------------------------------------------------------------------------------------------
          SPIN FLIP ABSORPTION SPECTRUM VIA TRANSITION ELECTRIC DIPOLE MOMENTS
----------------------------------------------------------------------------------------------------
     Transition      Energy     Energy  Wavelength fosc(D2)      D2        DX        DY        DZ
                      (eV)      (cm-1)    (nm)                 (au**2)    (au)      (au)      (au)
----------------------------------------------------------------------------------------------------
  1-3A  ->  2-3A    0.023625     190.5  52481.2   0.000000018   0.00003  -0.00554  -0.00036   0.00070

Dispersion correction             ... done (  0.1 sec)

MULLIKEN ATOMIC CHARGES AND SPIN DENSITIES
------------------------------------------
   0 O :   -0.619447    0.149821
   1 O :   -0.708311   -0.163110
   2 O :   -0.653856    0.001402
   3 O :   -0.650943   -0.004621
   4 N :   -0.172733   -0.005019
   5 N :   -0.204640   -0.011388
   6 N :   -0.074925    0.037052
   7 N :   -0.038666   -0.024866
   8 C :   -0.234854    0.353745
   9 C :    1.166474    0.444529
  10 C :    0.365118    0.132836
  11 C :   -0.168620   -0.533376
  12 C :   -1.259416   -0.036346
  13 C :   -1.340876   -0.076746
  14 C :    0.516023    0.141132
  15 C :   -0.115097   -0.515526
  16 C :    0.460094   -0.017718
  17 C :    0.504939    0.035333
  18 H :    0.449232    0.042464
  19 H :    0.710244   -0.011217
  20 H :    0.388787    0.018407
  21 H :    0.248357    0.011139
  22 H :    0.303397    0.006635
  23 H :    0.350004    0.012676
  24 H :    0.298850    0.033697
  25 H :    0.305881   -0.018198
  26 H :    0.055076   -0.003771
  27 H :   -0.048395   -0.003524
  28 H :    0.078375   -0.004313
  29 H :    0.089929    0.008870
Sum of atomic charges       :   -0.0000000

LOEWDIN ATOMIC CHARGES AND SPIN DENSITIES
-----------------------------------------
   0 O :    0.120532    0.129255
   1 O :    0.056568   -0.146767
   2 O :    0.092017    0.000482
   3 O :    0.090721   -0.004674
   4 N :    0.287635   -0.005165
   5 N :    0.294736   -0.005217
   6 N :    0.316213    0.030860
   7 N :    0.302324   -0.020564
   8 C :   -0.029087    0.509979
   9 C :    0.023101   -0.489813
  10 C :   -0.103858    0.038222
  11 C :   -0.111318   -0.038069
  12 C :    0.201207    0.057527
  13 C :    0.203230   -0.069440
  14 C :   -0.426476    0.088280
  15 C :   -0.410013   -0.084130
  16 C :   -0.483684    0.000283
  17 C :   -0.501859   -0.001495
  18 H :    0.050921    0.019207
  19 H :    0.050289   -0.005963
  20 H :    0.006992    0.015607
  21 H :   -0.023961    0.013839
  22 H :    0.022050   -0.000452
  23 H :    0.032192   -0.022674
  24 H :   -0.028278   -0.011571
  25 H :    0.003293    0.001828
  26 H :   -0.010947   -0.000260
  27 H :   -0.077517   -0.000095
  28 H :    0.017011    0.002284
  29 H :    0.035966   -0.001304

  Mayer bond orders larger than 0.100000
B(  0-O , 14-C ) :   1.3698 B(  1-O ,  9-C ) :   0.1296 B(  1-O , 15-C ) :   1.2273
B(  2-O , 16-C ) :   1.5770 B(  3-O , 17-C ) :   1.6096 B(  4-N , 10-C ) :   0.7926
B(  4-N , 11-C ) :   0.1080 B(  4-N , 16-C ) :   1.0728 B(  4-N , 26-H ) :   1.1064
B(  5-N ,  9-C ) :   0.1061 B(  5-N , 10-C ) :   0.2029 B(  5-N , 11-C ) :   0.2805
B(  5-N , 17-C ) :   1.0948 B(  5-N , 27-H ) :   1.2154 B(  6-N , 14-C ) :   1.0661
B(  6-N , 16-C ) :   0.9333 B(  6-N , 28-H ) :   1.0836 B(  7-N , 15-C ) :   1.0219
B(  7-N , 17-C ) :   0.9381 B(  7-N , 29-H ) :   1.0752 B(  8-C , 11-C ) :   0.3047
B(  8-C , 12-C ) :   0.7092 B(  8-C , 14-C ) :   0.7927 B(  8-C , 22-H ) :  -0.1491
B(  9-C , 11-C ) :   0.1984 B(  9-C , 13-C ) :   0.4810 B(  9-C , 15-C ) :   0.1716
B(  9-C , 19-H ) :  -0.1523 B(  9-C , 25-H ) :  -0.1306 B( 10-C , 11-C ) :   0.6448
B( 10-C , 12-C ) :  -0.2920 B( 10-C , 16-C ) :  -0.1059 B( 10-C , 18-H ) :   0.8487
B( 11-C , 12-C ) :   0.1133 B( 11-C , 13-C ) :  -0.1036 B( 11-C , 15-C ) :   0.3595
B( 11-C , 17-C ) :  -0.1398 B( 11-C , 19-H ) :   0.6243 B( 12-C , 20-H ) :   0.8464
B( 12-C , 21-H ) :   0.9239 B( 12-C , 22-H ) :   1.0897 B( 13-C , 23-H ) :   0.8750
B( 13-C , 24-H ) :   0.8544 B( 13-C , 25-H ) :   1.0913 B( 15-C , 17-C ) :  -0.1137

Dispersion correction           -0.057496831
FINAL SINGLE POINT ENERGY      -908.788177528959

DIPOLE MOMENT
-------------

Method             : TDA/CIS
Type of density    : Electron Density
Level              : Relaxed density
State              :   2
Multiplicity       :   3
Irrep              :   0
Energy             :     0.0000000000000000 Eh
Relativity type    :
Basis              : AO
                                X                 Y                 Z
Electronic contribution:     -3.300584589      -9.493654821      -5.644626944
Nuclear contribution   :      3.651790760      11.038729338       8.029331245
                        -----------------------------------------
Total Dipole Moment    :      0.351206171       1.545074518       2.384704301
                        -----------------------------------------
Magnitude (a.u.)       :      2.863112929
Magnitude (Debye)      :      7.277454717

Rotational constants in cm-1:             0.020799             0.011910             0.010493
Rotational constants in MHz :           623.539542           357.048017           314.570484

                             ****ORCA TERMINATED NORMALLY****
TOTAL RUN TIME: 0 days 0 hours 4 minutes 27 seconds 349 msec
