                         Program Version 6.0.0  -   RELEASE  -
|  1> ! Engrad def2-TZVPPD wB97M-D3BJ
|  2> %pal nprocs 8 end%pal nprocs 64 end
|  3> %tddft Nroots 2 Iroot 2
|  4> sf true
|  5> end
|  6> *xyz 0 3
|  7> O   2.94063903 1.25966878 -0.48770123
|  8> O   -0.52985717 0.42496032 -1.88040462
|  9> O   1.40267064 -2.83733071 -1.76901223
| 10> O   -3.13221888 -1.36995945 1.36597094
| 11> N   0.74050304 -1.99413649 0.23358534
| 12> N   -2.33282148 0.74315132 1.65902081
| 13> N   2.19902 -0.81527097 -1.08706819
| 14> N   -1.9332019 -0.39086201 -0.30293383
| 15> C   1.46361317 0.1794631 0.98076256
| 16> C   -0.90519335 1.76983398 0.04740073
| 17> C   0.74029967 -1.02820029 1.18654451
| 18> C   -1.58062289 1.80584701 1.1985909
| 19> C   1.55416015 1.21086418 2.03238617
| 20> C   -0.09763732 2.90909281 -0.48760287
| 21> C   2.23776052 0.28020038 -0.21322806
| 22> C   -1.06801709 0.59171127 -0.80783221
| 23> C   1.44856225 -1.9464222 -0.95505954
| 24> C   -2.51814508 -0.42653871 0.9423109
| 25> H   0.17491892 -1.21415735 2.06624256
| 26> H   -1.54020382 2.65780918 1.84945186
| 27> H   1.37355479 2.18809637 1.60998707
| 28> H   0.87534931 1.01023406 2.85228632
| 29> H   2.58930311 1.2343847 2.40605939
| 30> H   -0.49069478 3.22373735 -1.45083059
| 31> H   -0.10088946 3.75019636 0.19470838
| 32> H   0.94373857 2.63571705 -0.65253983
| 33> H   0.19548302 -2.84731224 0.37336941
| 34> H   -2.78500948 0.76639495 2.54992446
| 35> H   2.67225797 -0.68271682 -1.96300738
| 36> H   -2.05058519 -1.21674474 -0.87918651
| 37> *
| 38>
| 39>                          ****END OF INPUT****

CARTESIAN COORDINATES (ANGSTROEM)
---------------------------------
  O      2.940639    1.259669   -0.487701
  O     -0.529857    0.424960   -1.880405
  O      1.402671   -2.837331   -1.769012
  O     -3.132219   -1.369959    1.365971
  N      0.740503   -1.994136    0.233585
  N     -2.332821    0.743151    1.659021
  N      2.199020   -0.815271   -1.087068
  N     -1.933202   -0.390862   -0.302934
  C      1.463613    0.179463    0.980763
  C     -0.905193    1.769834    0.047401
  C      0.740300   -1.028200    1.186545
  C     -1.580623    1.805847    1.198591
  C      1.554160    1.210864    2.032386
  C     -0.097637    2.909093   -0.487603
  C      2.237761    0.280200   -0.213228
  C     -1.068017    0.591711   -0.807832
  C      1.448562   -1.946422   -0.955060
  C     -2.518145   -0.426539    0.942311
  H      0.174919   -1.214157    2.066243
  H     -1.540204    2.657809    1.849452
  H      1.373555    2.188096    1.609987
  H      0.875349    1.010234    2.852286
  H      2.589303    1.234385    2.406059
  H     -0.490695    3.223737   -1.450831
  H     -0.100889    3.750196    0.194708
  H      0.943739    2.635717   -0.652540
  H      0.195483   -2.847312    0.373369
  H     -2.785009    0.766395    2.549924
  H      2.672258   -0.682717   -1.963007
  H     -2.050585   -1.216745   -0.879187

 Total Charge           Charge          ....    0
 Multiplicity           Mult            ....    3
 Number of Electrons    NEL             ....  132
 Basis Dimension        Dim             ....  882

ORBITAL ENERGIES
----------------
                 SPIN UP ORBITALS
  NO   OCC          E(Eh)            E(eV)
   0   1.0000     -19.330111      -525.9991
   1   1.0000     -19.327460      -525.9269
   2   1.0000     -19.323473      -525.8184
   3   1.0000     -19.320963      -525.7501
   4   1.0000     -14.586236      -396.9117
   5   1.0000     -14.585596      -396.8942
   6   1.0000     -14.571421      -396.5085
   7   1.0000     -14.547440      -395.8560
   8   1.0000     -10.515109      -286.1307
   9   1.0000     -10.502565      -285.7893
  10   1.0000     -10.482522      -285.2439
  11   1.0000     -10.458237      -284.5831
  12   1.0000     -10.435374      -283.9610
  13   1.0000     -10.410714      -283.2899
  14   1.0000     -10.397213      -282.9225
  15   1.0000     -10.383532      -282.5503
  16   1.0000     -10.368984      -282.1544
  17   1.0000     -10.352712      -281.7116
  18   1.0000      -1.230905       -33.4946
  19   1.0000      -1.219591       -33.1867
  20   1.0000      -1.197903       -32.5966
  21   1.0000      -1.180011       -32.1097
  22   1.0000      -1.125247       -30.6195
  23   1.0000      -1.118346       -30.4317
  24   1.0000      -1.070291       -29.1241
  25   1.0000      -1.057754       -28.7829
  26   1.0000      -0.969839       -26.3907
  27   1.0000      -0.957947       -26.0671
  28   1.0000      -0.855123       -23.2691
  29   1.0000      -0.849238       -23.1089
  30   1.0000      -0.814811       -22.1721
  31   1.0000      -0.811730       -22.0883
  32   1.0000      -0.795480       -21.6461
  33   1.0000      -0.782894       -21.3036
  34   1.0000      -0.698460       -19.0061
  35   1.0000      -0.695036       -18.9129
  36   1.0000      -0.690953       -18.8018
  37   1.0000      -0.689568       -18.7641
  38   1.0000      -0.643912       -17.5217
  39   1.0000      -0.636774       -17.3275
  40   1.0000      -0.632150       -17.2017
  41   1.0000      -0.604676       -16.4541
  42   1.0000      -0.600751       -16.3473
  43   1.0000      -0.590313       -16.0632
  44   1.0000      -0.575514       -15.6605
  45   1.0000      -0.570624       -15.5275
  46   1.0000      -0.563110       -15.3230
  47   1.0000      -0.554892       -15.0994
  48   1.0000      -0.553116       -15.0511
  49   1.0000      -0.541020       -14.7219
  50   1.0000      -0.531759       -14.4699
  51   1.0000      -0.524914       -14.2836
  52   1.0000      -0.519762       -14.1434
  53   1.0000      -0.517200       -14.0737
  54   1.0000      -0.509514       -13.8646
  55   1.0000      -0.500623       -13.6226
  56   1.0000      -0.486752       -13.2452
  57   1.0000      -0.480446       -13.0736
  58   1.0000      -0.423256       -11.5174
  59   1.0000      -0.414288       -11.2733
  60   1.0000      -0.408499       -11.1158
  61   1.0000      -0.396759       -10.7963
  62   1.0000      -0.390851       -10.6356
  63   1.0000      -0.385935       -10.5018
  64   1.0000      -0.378308       -10.2943
  65   1.0000      -0.347030        -9.4432
  66   1.0000      -0.220361        -5.9963
  67   0.0000       0.010593         0.2883
  68   0.0000       0.018591         0.5059
  69   0.0000       0.028751         0.7823
  70   0.0000       0.037500         1.0204
  71   0.0000       0.041450         1.1279

                 SPIN DOWN ORBITALS
  NO   OCC          E(Eh)            E(eV)
   0   1.0000     -19.330064      -525.9978
   1   1.0000     -19.327525      -525.9287
   2   1.0000     -19.321569      -525.7666
   3   1.0000     -19.314187      -525.5657
   4   1.0000     -14.585397      -396.8888
   5   1.0000     -14.581426      -396.7808
   6   1.0000     -14.571364      -396.5070
   7   1.0000     -14.546588      -395.8328
   8   1.0000     -10.515106      -286.1306
   9   1.0000     -10.502932      -285.7993
  10   1.0000     -10.482486      -285.2429
  11   1.0000     -10.458149      -284.5807
  12   1.0000     -10.434919      -283.9486
  13   1.0000     -10.401243      -283.0322
  14   1.0000     -10.386787      -282.6389
  15   1.0000     -10.383620      -282.5527
  16   1.0000     -10.369450      -282.1671
  17   1.0000     -10.352695      -281.7111
  18   1.0000      -1.230749       -33.4904
  19   1.0000      -1.215397       -33.0726
  20   1.0000      -1.197917       -32.5970
  21   1.0000      -1.170122       -31.8406
  22   1.0000      -1.124870       -30.6093
  23   1.0000      -1.107812       -30.1451
  24   1.0000      -1.070048       -29.1175
  25   1.0000      -1.052168       -28.6309
  26   1.0000      -0.962122       -26.1807
  27   1.0000      -0.943820       -25.6826
  28   1.0000      -0.849026       -23.1032
  29   1.0000      -0.842990       -22.9389
  30   1.0000      -0.812016       -22.0961
  31   1.0000      -0.801983       -21.8231
  32   1.0000      -0.795197       -21.6384
  33   1.0000      -0.776649       -21.1337
  34   1.0000      -0.698110       -18.9966
  35   1.0000      -0.694223       -18.8908
  36   1.0000      -0.684102       -18.6154
  37   1.0000      -0.677774       -18.4432
  38   1.0000      -0.643550       -17.5119
  39   1.0000      -0.628739       -17.1089
  40   1.0000      -0.623688       -16.9714
  41   1.0000      -0.601053       -16.3555
  42   1.0000      -0.592957       -16.1352
  43   1.0000      -0.581771       -15.8308
  44   1.0000      -0.570944       -15.5362
  45   1.0000      -0.563259       -15.3271
  46   1.0000      -0.557267       -15.1640
  47   1.0000      -0.553467       -15.0606
  48   1.0000      -0.546394       -14.8681
  49   1.0000      -0.536405       -14.5963
  50   1.0000      -0.524786       -14.2802
  51   1.0000      -0.520047       -14.1512
  52   1.0000      -0.513946       -13.9852
  53   1.0000      -0.506767       -13.7898
  54   1.0000      -0.499823       -13.6009
  55   1.0000      -0.494692       -13.4613
  56   1.0000      -0.479026       -13.0350
  57   1.0000      -0.444517       -12.0959
  58   1.0000      -0.422973       -11.5097
  59   1.0000      -0.409683       -11.1481
  60   1.0000      -0.403588       -10.9822
  61   1.0000      -0.390779       -10.6336
  62   1.0000      -0.377616       -10.2755
  63   1.0000      -0.373564       -10.1652
  64   1.0000      -0.349397        -9.5076
  65   0.0000      -0.095743        -2.6053
  66   0.0000       0.010265         0.2793
  67   0.0000       0.021140         0.5752
  68   0.0000       0.026807         0.7295
  69   0.0000       0.034112         0.9282

----------------------------------------------------------------------------------------------------
          SPIN FLIP ABSORPTION SPECTRUM VIA TRANSITION ELECTRIC DIPOLE MOMENTS
----------------------------------------------------------------------------------------------------
     Transition      Energy     Energy  Wavelength fosc(D2)      D2        DX        DY        DZ
                      (eV)      (cm-1)    (nm)                 (au**2)    (au)      (au)      (au)
----------------------------------------------------------------------------------------------------
  1-3A  ->  2-3A    3.552391   28652.0   349.0   0.001001195   0.01150  -0.05088  -0.06407   0.06936

Dispersion correction             ... done (  0.1 sec)

MULLIKEN ATOMIC CHARGES AND SPIN DENSITIES
------------------------------------------
   0 O :   -0.715687    0.009116
   1 O :   -0.654153   -0.001907
   2 O :   -0.635979    0.000606
   3 O :   -0.652631    0.000221
   4 N :    0.027169    0.028065
   5 N :   -0.011919   -0.003394
   6 N :   -0.029478   -0.006418
   7 N :   -0.005910   -0.000809
   8 C :    1.211000    0.045718
   9 C :    0.408939    0.008349
  10 C :   -0.581750    0.062367
  11 C :    0.228151    0.000114
  12 C :   -1.407384   -0.016955
  13 C :   -1.444123    0.007394
  14 C :    0.255980   -0.129030
  15 C :    0.500445   -0.010363
  16 C :    0.546515    0.007018
  17 C :    0.476245   -0.002799
  18 H :    0.250649   -0.004236
  19 H :    0.203910   -0.000607
  20 H :    0.245137    0.006774
  21 H :    0.310673   -0.000177
  22 H :    0.424000    0.008933
  23 H :    0.374906    0.000183
  24 H :    0.328532    0.000338
  25 H :    0.200176   -0.003523
  26 H :    0.063687   -0.002475
  27 H :    0.009385   -0.000986
  28 H :    0.023493    0.001055
  29 H :    0.050022   -0.002569
Sum of atomic charges       :    0.0000000

LOEWDIN ATOMIC CHARGES AND SPIN DENSITIES
-----------------------------------------
   0 O :    0.053582    0.008178
   1 O :    0.105920   -0.000781
   2 O :    0.109358    0.000190
   3 O :    0.088339    0.000119
   4 N :    0.286998    0.015279
   5 N :    0.285861   -0.000637
   6 N :    0.323506   -0.005285
   7 N :    0.328243   -0.000681
   8 C :   -0.091969    0.004765
   9 C :   -0.147838   -0.000000
  10 C :    0.028050   -0.009250
  11 C :    0.054791    0.000020
  12 C :    0.195718    0.000882
  13 C :    0.185082   -0.000070
  14 C :   -0.417064   -0.006686
  15 C :   -0.393635    0.000009
  16 C :   -0.478074   -0.002349
  17 C :   -0.496010   -0.000126
  18 H :   -0.015055   -0.005359
  19 H :    0.035191   -0.000045
  20 H :   -0.014661    0.000633
  21 H :   -0.003913   -0.000310
  22 H :    0.028588    0.000756
  23 H :    0.005413    0.000004
  24 H :   -0.005810   -0.000029
  25 H :   -0.021266   -0.000067
  26 H :    0.011990    0.001543
  27 H :   -0.028029   -0.000043
  28 H :   -0.012032   -0.000628
  29 H :   -0.001273   -0.000032

  Mayer bond orders larger than 0.100000
B(  0-O , 14-C ) :   1.2202 B(  1-O , 15-C ) :   1.4222 B(  2-O , 16-C ) :   1.5588
B(  3-O , 17-C ) :   1.5542 B(  4-N , 10-C ) :   0.9184 B(  4-N , 16-C ) :   0.9686
B(  4-N , 26-H ) :   1.1030 B(  5-N , 11-C ) :   0.9956 B(  5-N , 17-C ) :   1.0286
B(  5-N , 27-H ) :   1.1460 B(  6-N , 14-C ) :   0.9795 B(  6-N , 16-C ) :   0.9837
B(  6-N , 28-H ) :   1.1111 B(  7-N , 15-C ) :   1.0369 B(  7-N , 17-C ) :   0.9603
B(  7-N , 29-H ) :   1.0895 B(  8-C , 10-C ) :   0.3377 B(  8-C , 12-C ) :   0.2705
B(  8-C , 14-C ) :   0.7858 B(  8-C , 18-H ) :  -0.1380 B(  8-C , 20-H ) :  -0.1007
B(  8-C , 21-H ) :  -0.1206 B(  9-C , 11-C ) :   0.9878 B(  9-C , 13-C ) :   0.4504
B(  9-C , 15-C ) :   0.8131 B(  9-C , 24-H ) :  -0.1098 B(  9-C , 25-H ) :  -0.1041
B( 10-C , 18-H ) :   1.1298 B( 11-C , 13-C ) :  -0.2804 B( 11-C , 19-H ) :   1.0593
B( 12-C , 20-H ) :   1.0339 B( 12-C , 21-H ) :   1.0533 B( 12-C , 22-H ) :   0.7835
B( 13-C , 23-H ) :   0.8614 B( 13-C , 24-H ) :   1.0788 B( 13-C , 25-H ) :   0.9837

Dispersion correction           -0.058801279
FINAL SINGLE POINT ENERGY      -908.782738320452

DIPOLE MOMENT
-------------

Method             : TDA/CIS
Type of density    : Electron Density
Level              : Relaxed density
State              :   2
Multiplicity       :   3
Irrep              :   0
Energy             :     0.0000000000000000 Eh
Relativity type    :
Basis              : AO
                                X                 Y                 Z
Electronic contribution:     -2.279798101      -9.607358361      -5.345815622
Nuclear contribution   :      1.317989070      10.697184338       7.516342275
                        -----------------------------------------
Total Dipole Moment    :     -0.961809031       1.089825977       2.170526654
                        -----------------------------------------
Magnitude (a.u.)       :      2.612275488
Magnitude (Debye)      :      6.639876611

Rotational constants in cm-1:             0.019727             0.013930             0.011145
Rotational constants in MHz :           591.400575           417.605273           334.120761

                             ****ORCA TERMINATED NORMALLY****
TOTAL RUN TIME: 0 days 0 hours 5 minutes 2 seconds 165 msec
