                         Program Version 6.0.0  -   RELEASE  -
|  1> ! Engrad def2-TZVPPD wB97M-D3BJ
|  2> %pal nprocs 8 end%pal nprocs 64 end
|  3> %tddft
|  4>  Iroot 1 Nroots 3
|  5> sf true
|  6> end
|  7> *xyz 0 3
|  8> O   1.43852808 0.51288782 -0.34549265
|  9> C   0.29546302 0.37670913 0.509924
| 10> C   -0.51547945 -0.76261189 0.05745173
| 11> H   -0.27009083 1.33848029 0.51952069
| 12> H   0.68851686 0.19473809 1.51389256
| 13> H   -1.42208049 -0.61309423 -0.52497302
| 14> H   -0.45375321 -1.77019469 0.49250441
| 15> *
| 16>
| 17>                          ****END OF INPUT****

CARTESIAN COORDINATES (ANGSTROEM)
---------------------------------
  O      1.438528    0.512888   -0.345493
  C      0.295463    0.376709    0.509924
  C     -0.515479   -0.762612    0.057452
  H     -0.270091    1.338480    0.519521
  H      0.688517    0.194738    1.513893
  H     -1.422080   -0.613094   -0.524973
  H     -0.453753   -1.770195    0.492504

 Total Charge           Charge          ....    0
 Multiplicity           Mult            ....    3
 Number of Electrons    NEL             ....   24
 Basis Dimension        Dim             ....  182

ORBITAL ENERGIES
----------------
                 SPIN UP ORBITALS
  NO   OCC          E(Eh)            E(eV)
   0   1.0000     -19.391435      -527.6678
   1   1.0000     -10.414639      -283.3967
   2   1.0000     -10.369295      -282.1629
   3   1.0000      -1.149436       -31.2777
   4   1.0000      -0.879304       -23.9271
   5   1.0000      -0.733210       -19.9517
   6   1.0000      -0.616012       -16.7625
   7   1.0000      -0.575947       -15.6723
   8   1.0000      -0.545002       -14.8302
   9   1.0000      -0.514784       -14.0080
  10   1.0000      -0.441314       -12.0088
  11   1.0000      -0.417450       -11.3594
  12   1.0000      -0.331616        -9.0237
  13   0.0000       0.041339         1.1249
  14   0.0000       0.061380         1.6702
  15   0.0000       0.076767         2.0889
  16   0.0000       0.089283         2.4295
  17   0.0000       0.116825         3.1790

                 SPIN DOWN ORBITALS
  NO   OCC          E(Eh)            E(eV)
   0   1.0000     -19.365553      -526.9635
   1   1.0000     -10.416110      -283.4368
   2   1.0000     -10.356166      -281.8056
   3   1.0000      -1.089215       -29.6390
   4   1.0000      -0.846938       -23.0464
   5   1.0000      -0.707778       -19.2596
   6   1.0000      -0.586916       -15.9708
   7   1.0000      -0.552853       -15.0439
   8   1.0000      -0.514627       -14.0037
   9   1.0000      -0.478650       -13.0247
  10   1.0000      -0.384274       -10.4566
  11   0.0000      -0.052016        -1.4154
  12   0.0000      -0.005976        -0.1626
  13   0.0000       0.040421         1.0999
  14   0.0000       0.061434         1.6717
  15   0.0000       0.076717         2.0876

----------------------------------------------------------------------------------------------------
          SPIN FLIP ABSORPTION SPECTRUM VIA TRANSITION ELECTRIC DIPOLE MOMENTS
----------------------------------------------------------------------------------------------------
     Transition      Energy     Energy  Wavelength fosc(D2)      D2        DX        DY        DZ
                      (eV)      (cm-1)    (nm)                 (au**2)    (au)      (au)      (au)
----------------------------------------------------------------------------------------------------
  1-3A  ->  2-3A    0.201361    1624.1  6157.3   0.000070220   0.01423  -0.09378  -0.04775  -0.05620
  1-3A  ->  3-3A    1.092844    8814.4  1134.5   0.024353360   0.90958  -0.72782  -0.60824   0.09950

Dispersion correction             ... done (  0.2 sec)

MULLIKEN ATOMIC CHARGES AND SPIN DENSITIES
------------------------------------------
   0 O :   -0.391303   -0.528321
   1 C :   -0.024756   -0.019504
   2 C :   -0.450070    0.452282
   3 H :    0.219418   -0.011929
   4 H :    0.208217    0.061015
   5 H :    0.220006    0.017994
   6 H :    0.218488    0.028464
Sum of atomic charges       :   -0.0000000

LOEWDIN ATOMIC CHARGES AND SPIN DENSITIES
-----------------------------------------
   0 O :   -0.043668   -0.532860
   1 C :   -0.268734    0.044396
   2 C :    0.325916    0.398529
   3 H :    0.019664   -0.018565
   4 H :    0.016845    0.025805
   5 H :   -0.031052    0.042217
   6 H :   -0.018971    0.040477

  Mayer bond orders larger than 0.100000
B(  0-O ,  1-C ) :   0.7818 B(  0-O ,  2-C ) :   0.4497 B(  1-C ,  2-C ) :   0.8022
B(  1-C ,  3-H ) :   0.9945 B(  1-C ,  4-H ) :   0.9713 B(  2-C ,  5-H ) :   0.9459
B(  2-C ,  6-H ) :   0.9597

Dispersion correction           -0.005463717
FINAL SINGLE POINT ENERGY      -153.754186305018

DIPOLE MOMENT
-------------

Method             : TDA/CIS
Type of density    : Electron Density
Level              : Relaxed density
State              :   1
Multiplicity       :   3
Irrep              :   0
Energy             :     0.0000000000000000 Eh
Relativity type    :
Basis              : AO
                                X                 Y                 Z
Electronic contribution:      1.832460380       0.548289944      -0.963709023
Nuclear contribution   :     -2.962678525      -1.022015266       1.589551091
                        -----------------------------------------
Total Dipole Moment    :     -1.130218145      -0.473725322       0.625842068
                        -----------------------------------------
Magnitude (a.u.)       :      1.376040345
Magnitude (Debye)      :      3.497616596

Rotational constants in cm-1:             1.332185             0.346144             0.307642
Rotational constants in MHz :         39937.905306         10377.127144          9222.879060

                             ****ORCA TERMINATED NORMALLY****
TOTAL RUN TIME: 0 days 0 hours 0 minutes 27 seconds 768 msec
