                         Program Version 6.0.0  -   RELEASE  -
|  1> ! Opt wB97M-D3BJ def2-TZVPPD
|  2> %pal nprocs 8 end %pal nprocs 64 end
|  3> %geom
|  4> Constraints
|  5>     {A 2 1 0 107.27272727272728 C }
|  6> end
|  7> MaxIter 500
|  8> end
|  9> *xyz 0 1
| 10> O   -0.0007 0.8141 0.0
| 11> C   0.7509 -0.4065 0.0
| 12> C   -0.7502 -0.4076 0.0
| 13> H   1.2625 -0.6786 0.9136
| 14> H   1.2625 -0.6787 -0.9136
| 15> H   -1.2614 -0.6806 -0.9136
| 16> H   -1.2614 -0.6805 0.9136
| 17> *
| 18>
| 19>                          ****END OF INPUT****
 Total Charge           Charge          ....    0
 Multiplicity           Mult            ....    1
 Number of Electrons    NEL             ....   24
Dispersion correction           -0.005800081
FINAL SINGLE POINT ENERGY      -153.700170167186
Dispersion correction             ... done (  0.1 sec)
Dispersion correction           -0.005689125
FINAL SINGLE POINT ENERGY      -153.752763931793
Dispersion correction             ... done (  0.2 sec)
Dispersion correction           -0.005627952
FINAL SINGLE POINT ENERGY      -153.768135266726
Dispersion correction             ... done (  0.2 sec)
FINAL SINGLE POINT ENERGY      -153.775595288689
FINAL SINGLE POINT ENERGY      -153.777847423816
FINAL SINGLE POINT ENERGY      -153.778279250795
FINAL SINGLE POINT ENERGY      -153.778407329478
FINAL SINGLE POINT ENERGY      -153.778477140647
FINAL SINGLE POINT ENERGY      -153.778491534227
Dispersion correction             ... done (  0.2 sec)
Dispersion correction           -0.005611828
FINAL SINGLE POINT ENERGY      -153.778497022063
Dispersion correction             ... done (  0.1 sec)
Dispersion correction           -0.005610931
FINAL SINGLE POINT ENERGY      -153.778498865570
Dispersion correction             ... done (  0.1 sec)
                    ***********************HURRAY********************

CARTESIAN COORDINATES (ANGSTROEM)
---------------------------------
  O      0.506380    1.102059    0.059556
  C      0.598304   -0.233644    0.003300
  C     -0.751697   -0.757914    0.002268
  H      1.162034   -0.665494    0.849766
  H      1.125826   -0.574549   -0.902722
  H     -1.299142   -0.901675   -0.921830
  H     -1.339504   -0.687183    0.909664

 Multiplicity           Mult            ....    1
 Number of Electrons    NEL             ....   24
 Basis Dimension        Dim             ....  182

ORBITAL ENERGIES
----------------

  NO   OCC          E(Eh)            E(eV)
   0   2.0000     -19.321157      -525.7554
   1   2.0000     -10.455032      -284.4959
   2   2.0000     -10.398046      -282.9452
   3   2.0000      -1.116916       -30.3928
   4   2.0000      -0.891548       -24.2603
   5   2.0000      -0.734141       -19.9770
   6   2.0000      -0.625718       -17.0266
   7   2.0000      -0.570615       -15.5272
   8   2.0000      -0.519463       -14.1353
   9   2.0000      -0.510298       -13.8859
  10   2.0000      -0.358124        -9.7451
  11   2.0000      -0.347086        -9.4447
  12   0.0000      -0.078395        -2.1332
  13   0.0000       0.033857         0.9213
  14   0.0000       0.061185         1.6649
  15   0.0000       0.076021         2.0686
  16   0.0000       0.099134         2.6976

MULLIKEN ATOMIC CHARGES
-----------------------
   0 O :   -0.519083
   1 C :   -0.131458
   2 C :   -0.186647
   3 H :    0.204981
   4 H :    0.205594
   5 H :    0.196458
   6 H :    0.230154
Sum of atomic charges:   -0.0000000

LOEWDIN ATOMIC CHARGES
----------------------
   0 O :   -0.028221
   1 C :   -0.418029
   2 C :    0.419884
   3 H :    0.022273
   4 H :    0.021773
   5 H :   -0.007253
   6 H :   -0.010427

  Mayer bond orders larger than 0.100000
B(  0-O ,  1-C ) :   0.8119 B(  0-O ,  2-C ) :   0.8138 B(  1-C ,  2-C ) :   0.8173
B(  1-C ,  3-H ) :   1.0355 B(  1-C ,  4-H ) :   1.0343 B(  2-C ,  5-H ) :   0.9738
B(  2-C ,  6-H ) :   0.9655

Dispersion correction           -0.005610395
FINAL SINGLE POINT ENERGY      -153.778499328706

DIPOLE MOMENT
-------------

Method             : SCF
Type of density    : Electron Density
Multiplicity       :   1
Irrep              :   0
Energy             :  -153.7728889332895790 Eh
Relativity type    :
Basis              : AO
                                X                 Y                 Z
Electronic contribution:      0.125364232       1.412931555       0.067997190
Nuclear contribution   :     -0.826667437      -2.883219504      -0.141809442
                        -----------------------------------------
Total Dipole Moment    :     -0.701303205      -1.470287949      -0.073812252
                        -----------------------------------------
Magnitude (a.u.)       :      1.630650510
Magnitude (Debye)      :      4.144784206

Rotational constants in cm-1:             1.298832             0.392644             0.340698
Rotational constants in MHz :         38938.011490         11771.182548         10213.871010

                             ****ORCA TERMINATED NORMALLY****
TOTAL RUN TIME: 0 days 0 hours 2 minutes 52 seconds 56 msec
