                         Program Version 6.0.0  -   RELEASE  -
|  1> ! Opt wB97M-D3BJ def2-TZVPPD
|  2> %pal nprocs 8 end %pal nprocs 64 end
|  3> %geom
|  4> Constraints
|  5>     {A 2 1 0 136.36363636363637 C }
|  6> end
|  7> MaxIter 500
|  8> end
|  9> *xyz 0 1
| 10> O   -0.0007 0.8141 0.0
| 11> C   0.7509 -0.4065 0.0
| 12> C   -0.7502 -0.4076 0.0
| 13> H   1.2625 -0.6786 0.9136
| 14> H   1.2625 -0.6787 -0.9136
| 15> H   -1.2614 -0.6806 -0.9136
| 16> H   -1.2614 -0.6805 0.9136
| 17> *
| 18>
| 19>                          ****END OF INPUT****
 Total Charge           Charge          ....    0
 Multiplicity           Mult            ....    1
 Number of Electrons    NEL             ....   24
Dispersion correction           -0.005716546
FINAL SINGLE POINT ENERGY      -153.515309973549
Dispersion correction             ... done (  0.2 sec)
Dispersion correction           -0.005640764
FINAL SINGLE POINT ENERGY      -153.659120006680
Dispersion correction             ... done (  0.2 sec)
Dispersion correction           -0.005583214
FINAL SINGLE POINT ENERGY      -153.702090094195
Dispersion correction             ... done (  0.1 sec)
FINAL SINGLE POINT ENERGY      -153.719312970953
FINAL SINGLE POINT ENERGY      -153.725981721144
FINAL SINGLE POINT ENERGY      -153.730820761303
FINAL SINGLE POINT ENERGY      -153.734871759273
FINAL SINGLE POINT ENERGY      -153.736285871826
FINAL SINGLE POINT ENERGY      -153.737040264868
FINAL SINGLE POINT ENERGY      -153.738298511908
FINAL SINGLE POINT ENERGY      -153.924914554741
FINAL SINGLE POINT ENERGY      -153.925358907046
FINAL SINGLE POINT ENERGY      -153.925559899352
FINAL SINGLE POINT ENERGY      -153.925707280934
FINAL SINGLE POINT ENERGY      -153.925887004365
FINAL SINGLE POINT ENERGY      -153.926045109847
FINAL SINGLE POINT ENERGY      -153.926074139397
Dispersion correction             ... done (  0.3 sec)
Dispersion correction           -0.005507860
FINAL SINGLE POINT ENERGY      -153.926068620909
Dispersion correction             ... done (  0.1 sec)
Dispersion correction           -0.005508727
FINAL SINGLE POINT ENERGY      -153.926079231093
Dispersion correction             ... done (  0.2 sec)
                    ***********************HURRAY********************

CARTESIAN COORDINATES (ANGSTROEM)
---------------------------------
  O      0.814788    1.347974   -0.097370
  C      0.560528    0.210848    0.185262
  C     -0.477976   -0.796048   -0.202326
  H      1.244763   -0.269356    0.925693
  H      0.046274   -1.665894   -0.597282
  H     -1.205365   -0.435569   -0.925874
  H     -0.980811   -1.110356    0.711898

 Multiplicity           Mult            ....    1
 Number of Electrons    NEL             ....   24
 Basis Dimension        Dim             ....  182

ORBITAL ENERGIES
----------------

  NO   OCC          E(Eh)            E(eV)
   0   2.0000     -19.342223      -526.3286
   1   2.0000     -10.444639      -284.2131
   2   2.0000     -10.364267      -282.0260
   3   2.0000      -1.190016       -32.3820
   4   2.0000      -0.893607       -24.3163
   5   2.0000      -0.697528       -18.9807
   6   2.0000      -0.596648       -16.2356
   7   2.0000      -0.565379       -15.3848
   8   2.0000      -0.559991       -15.2381
   9   2.0000      -0.510289       -13.8857
  10   2.0000      -0.480172       -13.0661
  11   2.0000      -0.364819        -9.9272
  12   0.0000       0.035084         0.9547
  13   0.0000       0.057360         1.5609
  14   0.0000       0.059228         1.6117
  15   0.0000       0.081786         2.2255
  16   0.0000       0.085349         2.3225

MULLIKEN ATOMIC CHARGES
-----------------------
   0 O :   -0.471823
   1 C :    0.230403
   2 C :   -0.690194
   3 H :    0.218940
   4 H :    0.236562
   5 H :    0.240251
   6 H :    0.235861
Sum of atomic charges:    0.0000000

LOEWDIN ATOMIC CHARGES
----------------------
   0 O :    0.076842
   1 C :   -0.244766
   2 C :    0.172017
   3 H :    0.020884
   4 H :   -0.007927
   5 H :   -0.009096
   6 H :   -0.007954

  Mayer bond orders larger than 0.100000
B(  0-O ,  1-C ) :   1.7709 B(  1-C ,  2-C ) :   0.7485 B(  1-C ,  3-H ) :   1.0038
B(  2-C ,  4-H ) :   0.9884 B(  2-C ,  5-H ) :   0.9603 B(  2-C ,  6-H ) :   0.9888

Dispersion correction           -0.005508653
FINAL SINGLE POINT ENERGY      -153.926079251836

DIPOLE MOMENT
-------------

Method             : SCF
Type of density    : Electron Density
Multiplicity       :   1
Irrep              :   0
Energy             :  -153.9205705992993103 Eh
Relativity type    :
Basis              : AO
                                X                 Y                 Z
Electronic contribution:      1.552759260       3.082268487      -0.089270211
Nuclear contribution   :     -1.950224787      -4.189186765       0.246811242
                        -----------------------------------------
Total Dipole Moment    :     -0.397465527      -1.106918278       0.157541031
                        -----------------------------------------
Magnitude (a.u.)       :      1.186619609
Magnitude (Debye)      :      3.016147348

Rotational constants in cm-1:             2.273839             0.313828             0.290509
Rotational constants in MHz :         68167.985140          9408.314529          8709.250343

                             ****ORCA TERMINATED NORMALLY****
TOTAL RUN TIME: 0 days 0 hours 14 minutes 50 seconds 133 msec
