                         Program Version 6.0.0  -   RELEASE  -
|  1> ! Opt wB97M-D3BJ def2-TZVPPD
|  2> %pal nprocs 8 end %pal nprocs 64 end
|  3> %geom
|  4> Constraints
|  5>     {A 2 1 0 139.0909090909091 C }
|  6> end
|  7> MaxIter 500
|  8> end
|  9> *xyz 0 1
| 10> O   -0.0007 0.8141 0.0
| 11> C   0.7509 -0.4065 0.0
| 12> C   -0.7502 -0.4076 0.0
| 13> H   1.2625 -0.6786 0.9136
| 14> H   1.2625 -0.6787 -0.9136
| 15> H   -1.2614 -0.6806 -0.9136
| 16> H   -1.2614 -0.6805 0.9136
| 17> *
| 18>
| 19>                          ****END OF INPUT****
 Total Charge           Charge          ....    0
 Multiplicity           Mult            ....    1
 Number of Electrons    NEL             ....   24
Dispersion correction           -0.005700459
FINAL SINGLE POINT ENERGY      -153.494039182126
Dispersion correction             ... done (  0.1 sec)
Dispersion correction           -0.005631688
FINAL SINGLE POINT ENERGY      -153.649702613662
Dispersion correction             ... done (  0.1 sec)
Dispersion correction           -0.005579901
FINAL SINGLE POINT ENERGY      -153.698672270558
Dispersion correction             ... done (  0.2 sec)
FINAL SINGLE POINT ENERGY      -153.718055565459
FINAL SINGLE POINT ENERGY      -153.725386144431
FINAL SINGLE POINT ENERGY      -153.730640352856
FINAL SINGLE POINT ENERGY      -153.735068229135
FINAL SINGLE POINT ENERGY      -153.736644745550
FINAL SINGLE POINT ENERGY      -153.737434462629
FINAL SINGLE POINT ENERGY      -153.738993121504
FINAL SINGLE POINT ENERGY      -153.922736289042
FINAL SINGLE POINT ENERGY      -153.922838999888
FINAL SINGLE POINT ENERGY      -153.922878436644
FINAL SINGLE POINT ENERGY      -153.922980391966
FINAL SINGLE POINT ENERGY      -153.923050354673
FINAL SINGLE POINT ENERGY      -153.923139676617
FINAL SINGLE POINT ENERGY      -153.923153517122
Dispersion correction             ... done (  0.3 sec)
Dispersion correction           -0.005501879
FINAL SINGLE POINT ENERGY      -153.923159879657
Dispersion correction             ... done (  0.2 sec)
Dispersion correction           -0.005502437
FINAL SINGLE POINT ENERGY      -153.923162107764
Dispersion correction             ... done (  0.1 sec)
                    ***********************HURRAY********************

CARTESIAN COORDINATES (ANGSTROEM)
---------------------------------
  O      0.778038    1.388031    0.013042
  C      0.516720    0.236900    0.222021
  C     -0.451497   -0.807314   -0.244407
  H      1.161948   -0.256988    0.991673
  H      0.140510   -1.643213   -0.614990
  H     -1.156574   -0.479840   -1.005386
  H     -0.986947   -1.155976    0.638048

 Multiplicity           Mult            ....    1
 Number of Electrons    NEL             ....   24
 Basis Dimension        Dim             ....  182

ORBITAL ENERGIES
----------------

  NO   OCC          E(Eh)            E(eV)
   0   2.0000     -19.342987      -526.3494
   1   2.0000     -10.445304      -284.2312
   2   2.0000     -10.366081      -282.0754
   3   2.0000      -1.190415       -32.3928
   4   2.0000      -0.895473       -24.3671
   5   2.0000      -0.696540       -18.9538
   6   2.0000      -0.596207       -16.2236
   7   2.0000      -0.566353       -15.4112
   8   2.0000      -0.561064       -15.2673
   9   2.0000      -0.510681       -13.8963
  10   2.0000      -0.481051       -13.0901
  11   2.0000      -0.363289        -9.8856
  12   0.0000       0.034418         0.9366
  13   0.0000       0.057767         1.5719
  14   0.0000       0.059208         1.6111
  15   0.0000       0.081460         2.2166
  16   0.0000       0.085153         2.3171

MULLIKEN ATOMIC CHARGES
-----------------------
   0 O :   -0.469166
   1 C :    0.229050
   2 C :   -0.688528
   3 H :    0.211281
   4 H :    0.238915
   5 H :    0.240127
   6 H :    0.238321
Sum of atomic charges:    0.0000000

LOEWDIN ATOMIC CHARGES
----------------------
   0 O :    0.077770
   1 C :   -0.245702
   2 C :    0.172410
   3 H :    0.019970
   4 H :   -0.007514
   5 H :   -0.009601
   6 H :   -0.007333

  Mayer bond orders larger than 0.100000
B(  0-O ,  1-C ) :   1.7716 B(  1-C ,  2-C ) :   0.7499 B(  1-C ,  3-H ) :   1.0095
B(  2-C ,  4-H ) :   0.9869 B(  2-C ,  5-H ) :   0.9617 B(  2-C ,  6-H ) :   0.9870

Dispersion correction           -0.005502779
FINAL SINGLE POINT ENERGY      -153.923162887941

DIPOLE MOMENT
-------------

Method             : SCF
Type of density    : Electron Density
Multiplicity       :   1
Irrep              :   0
Energy             :  -153.9176601087703489 Eh
Relativity type    :
Basis              : AO
                                X                 Y                 Z
Electronic contribution:      1.441558766       3.177521623       0.067091660
Nuclear contribution   :     -1.836612660      -4.305315774       0.013304362
                        -----------------------------------------
Total Dipole Moment    :     -0.395053894      -1.127794151       0.080396021
                        -----------------------------------------
Magnitude (a.u.)       :      1.197685579
Magnitude (Debye)      :      3.044274810

Rotational constants in cm-1:             2.366747             0.308461             0.287329
Rotational constants in MHz :         70953.304605          9247.426644          8613.898596

                             ****ORCA TERMINATED NORMALLY****
TOTAL RUN TIME: 0 days 0 hours 12 minutes 20 seconds 487 msec
