                         Program Version 6.0.0  -   RELEASE  -
|  1> ! Engrad def2-TZVPPD wB97M-D3BJ
|  2> %pal nprocs 8 end%pal nprocs 64 end
|  3> %tddft
|  4>  Iroot 2 Nroots 3
|  5> sf true
|  6> end
|  7> *xyz 0 3
|  8> O   -0.5556181 0.71300959 0.08149774
|  9> C   0.69557139 0.2554508 0.51122602
| 10> C   1.17411556 -0.85237442 -0.37903146
| 11> H   0.66473015 0.20984957 1.6116726
| 12> H   1.56210708 0.90081477 0.38437548
| 13> H   0.67714086 -1.81082868 -0.29761462
| 14> H   1.87079017 -0.69501706 -1.23114566
| 15> *
| 16>
| 17>                          ****END OF INPUT****

CARTESIAN COORDINATES (ANGSTROEM)
---------------------------------
  O     -0.555618    0.713010    0.081498
  C      0.695571    0.255451    0.511226
  C      1.174116   -0.852374   -0.379031
  H      0.664730    0.209850    1.611673
  H      1.562107    0.900815    0.384375
  H      0.677141   -1.810829   -0.297615
  H      1.870790   -0.695017   -1.231146

 Total Charge           Charge          ....    0
 Multiplicity           Mult            ....    3
 Number of Electrons    NEL             ....   24
 Basis Dimension        Dim             ....  182

ORBITAL ENERGIES
----------------
                 SPIN UP ORBITALS
  NO   OCC          E(Eh)            E(eV)
   0   1.0000     -19.392365      -527.6931
   1   1.0000     -10.413468      -283.3649
   2   1.0000     -10.372633      -282.2537
   3   1.0000      -1.158780       -31.5320
   4   1.0000      -0.878113       -23.8947
   5   1.0000      -0.738495       -20.0955
   6   1.0000      -0.614007       -16.7080
   7   1.0000      -0.580717       -15.8021
   8   1.0000      -0.548541       -14.9266
   9   1.0000      -0.517196       -14.0736
  10   1.0000      -0.430173       -11.7056
  11   1.0000      -0.416531       -11.3344
  12   1.0000      -0.330901        -9.0043
  13   0.0000       0.039895         1.0856
  14   0.0000       0.060312         1.6412
  15   0.0000       0.077743         2.1155
  16   0.0000       0.088218         2.4005
  17   0.0000       0.114330         3.1111

                 SPIN DOWN ORBITALS
  NO   OCC          E(Eh)            E(eV)
   0   1.0000     -19.367464      -527.0155
   1   1.0000     -10.414935      -283.4048
   2   1.0000     -10.359486      -281.8960
   3   1.0000      -1.101958       -29.9858
   4   1.0000      -0.845596       -23.0098
   5   1.0000      -0.713368       -19.4117
   6   1.0000      -0.581405       -15.8208
   7   1.0000      -0.554692       -15.0939
   8   1.0000      -0.523657       -14.2494
   9   1.0000      -0.470169       -12.7940
  10   1.0000      -0.384692       -10.4680
  11   0.0000      -0.057708        -1.5703
  12   0.0000      -0.005782        -0.1573
  13   0.0000       0.038815         1.0562
  14   0.0000       0.061023         1.6605
  15   0.0000       0.077706         2.1145

----------------------------------------------------------------------------------------------------
          SPIN FLIP ABSORPTION SPECTRUM VIA TRANSITION ELECTRIC DIPOLE MOMENTS
----------------------------------------------------------------------------------------------------
     Transition      Energy     Energy  Wavelength fosc(D2)      D2        DX        DY        DZ
                      (eV)      (cm-1)    (nm)                 (au**2)    (au)      (au)      (au)
----------------------------------------------------------------------------------------------------
  1-3A  ->  2-3A    0.268682    2167.1  4614.5   0.000025177   0.00382  -0.03025  -0.05212   0.01392
  1-3A  ->  3-3A    1.064858    8588.7  1164.3   0.002695372   0.10332   0.27648  -0.14729  -0.07200

Dispersion correction             ... done (  0.2 sec)

MULLIKEN ATOMIC CHARGES AND SPIN DENSITIES
------------------------------------------
   0 O :   -0.325792    0.812746
   1 C :   -0.046412    0.157065
   2 C :   -0.246779   -0.819897
   3 H :    0.218618    0.002442
   4 H :    0.179412    0.034834
   5 H :    0.100871   -0.100495
   6 H :    0.120082   -0.086695
Sum of atomic charges       :    0.0000000

LOEWDIN ATOMIC CHARGES AND SPIN DENSITIES
-----------------------------------------
   0 O :    0.044905    0.763039
   1 C :   -0.235069    0.005132
   2 C :    0.283111   -0.650915
   3 H :    0.033073    0.019785
   4 H :    0.001294    0.028822
   5 H :   -0.078240   -0.083132
   6 H :   -0.049075   -0.082731

  Mayer bond orders larger than 0.100000
B(  0-O ,  1-C ) :   0.9652 B(  1-C ,  2-C ) :   0.8123 B(  1-C ,  3-H ) :   0.9334
B(  1-C ,  4-H ) :   0.9657 B(  2-C ,  5-H ) :   1.0593 B(  2-C ,  6-H ) :   1.0619

Dispersion correction           -0.005479398
FINAL SINGLE POINT ENERGY      -153.737368310786

DIPOLE MOMENT
-------------

Method             : TDA/CIS
Type of density    : Electron Density
Level              : Relaxed density
State              :   2
Multiplicity       :   3
Irrep              :   0
Energy             :     0.0000000000000000 Eh
Relativity type    :
Basis              : AO
                                X                 Y                 Z
Electronic contribution:     -2.263366458       1.401950588       0.060917242
Nuclear contribution   :      2.899427960      -1.540532102       0.152019524
                        -----------------------------------------
Total Dipole Moment    :      0.636061502      -0.138581514       0.212936766
                        -----------------------------------------
Magnitude (a.u.)       :      0.684924183
Magnitude (Debye)      :      1.740938918

Rotational constants in cm-1:             1.310844             0.352245             0.307730
Rotational constants in MHz :         39298.129346         10560.045626          9225.523683

                             ****ORCA TERMINATED NORMALLY****
TOTAL RUN TIME: 0 days 0 hours 0 minutes 28 seconds 109 msec
