                         Program Version 6.0.0  -   RELEASE  -
|  1> ! EnGrad wB97M-D3BJ def2-TZVPPD
|  2> %pal nprocs 8 end%pal nprocs 16 end
|  3> %tddft
|  4>  sf true
|  5>  nroots 2 Iroot 1 end
|  6> *xyz 0 3
|  7> O   0.66832906522859 1.31707523746627 -0.13735563087875
|  8> C   0.56995292846819 0.18617082143893 0.25645804153143
|  9> C   -0.44814006277602 -0.81119250565363 -0.20869832502974
| 10> H   1.27339341748064 -0.19158959108245 1.02425600026041
| 11> H   0.06698588408905 -1.66108146460157 -0.65858548266829
| 12> H   -1.12900673888719 -0.36555695093096 -0.92749359410365
| 13> H   -0.99931449360326 -1.19222554663657 0.6514189908886
| 14> *
| 15>
| 16>                          ****END OF INPUT****

CARTESIAN COORDINATES (ANGSTROEM)
---------------------------------
  O      0.668329    1.317075   -0.137356
  C      0.569953    0.186171    0.256458
  C     -0.448140   -0.811193   -0.208698
  H      1.273393   -0.191590    1.024256
  H      0.066986   -1.661081   -0.658585
  H     -1.129007   -0.365557   -0.927494
  H     -0.999314   -1.192226    0.651419

 Total Charge           Charge          ....    0
 Multiplicity           Mult            ....    3
 Number of Electrons    NEL             ....   24
 Basis Dimension        Dim             ....  182

ORBITAL ENERGIES
----------------
                 SPIN UP ORBITALS
  NO   OCC          E(Eh)            E(eV)
   0   1.0000     -19.409525      -528.1600
   1   1.0000     -10.379422      -282.4384
   2   1.0000     -10.367092      -282.1029
   3   1.0000      -1.246089       -33.9078
   4   1.0000      -0.882571       -24.0160
   5   1.0000      -0.718041       -19.5389
   6   1.0000      -0.634901       -17.2765
   7   1.0000      -0.587154       -15.9773
   8   1.0000      -0.581976       -15.8364
   9   1.0000      -0.515094       -14.0164
  10   1.0000      -0.513787       -13.9809
  11   1.0000      -0.433376       -11.7928
  12   1.0000      -0.220371        -5.9966
  13   0.0000       0.040861         1.1119
  14   0.0000       0.060247         1.6394
  15   0.0000       0.078493         2.1359
  16   0.0000       0.087929         2.3927
  17   0.0000       0.107755         2.9322

                 SPIN DOWN ORBITALS
  NO   OCC          E(Eh)            E(eV)
   0   1.0000     -19.381900      -527.4083
   1   1.0000     -10.369154      -282.1590
   2   1.0000     -10.364930      -282.0441
   3   1.0000      -1.188415       -32.3384
   4   1.0000      -0.863358       -23.4932
   5   1.0000      -0.673324       -18.3221
   6   1.0000      -0.585958       -15.9447
   7   1.0000      -0.540915       -14.7191
   8   1.0000      -0.535296       -14.5662
   9   1.0000      -0.499448       -13.5907
  10   1.0000      -0.471322       -12.8253
  11   0.0000      -0.083174        -2.2633
  12   0.0000       0.041247         1.1224
  13   0.0000       0.059909         1.6302
  14   0.0000       0.078373         2.1326
  15   0.0000       0.084089         2.2882

----------------------------------------------------------------------------------------------------
          SPIN FLIP ABSORPTION SPECTRUM VIA TRANSITION ELECTRIC DIPOLE MOMENTS
----------------------------------------------------------------------------------------------------
     Transition      Energy     Energy  Wavelength fosc(D2)      D2        DX        DY        DZ
                      (eV)      (cm-1)    (nm)                 (au**2)    (au)      (au)      (au)
----------------------------------------------------------------------------------------------------
  1-3A  ->  2-3A    4.583292   36966.7   270.5   0.000096275   0.00086   0.01857  -0.00912  -0.02072

Dispersion correction             ... done (  0.0 sec)

MULLIKEN ATOMIC CHARGES AND SPIN DENSITIES
------------------------------------------
   0 O :   -0.511286    0.056240
   1 C :    0.205369   -0.177131
   2 C :   -0.686132    0.047763
   3 H :    0.292581    0.079046
   4 H :    0.227250   -0.005160
   5 H :    0.240439    0.004145
   6 H :    0.231780   -0.004905
Sum of atomic charges       :   -0.0000000

LOEWDIN ATOMIC CHARGES AND SPIN DENSITIES
-----------------------------------------
   0 O :    0.042175    0.021996
   1 C :   -0.224450   -0.015059
   2 C :    0.176688   -0.001845
   3 H :    0.030133   -0.003473
   4 H :   -0.008438   -0.001308
   5 H :   -0.006246    0.000967
   6 H :   -0.009861   -0.001277

  Mayer bond orders larger than 0.100000
B(  0-O ,  1-C ) :   1.7877 B(  1-C ,  2-C ) :   0.7407 B(  1-C ,  3-H ) :   0.9323
B(  2-C ,  4-H ) :   0.9907 B(  2-C ,  5-H ) :   0.9605 B(  2-C ,  6-H ) :   0.9936

Dispersion correction           -0.005534039
FINAL SINGLE POINT ENERGY      -153.924734156828

DIPOLE MOMENT
-------------

Method             : TDA/CIS
Type of density    : Electron Density
Level              : Relaxed density
State              :   1
Multiplicity       :   3
Irrep              :   0
Energy             :     0.0000000000000000 Eh
Relativity type    :
Basis              : AO
                                X                 Y                 Z
Electronic contribution:      1.439456942       2.845104834       0.062985674
Nuclear contribution   :     -1.700996497      -4.046209663       0.213181559
                        -----------------------------------------
Total Dipole Moment    :     -0.261539555      -1.201104829       0.276167232
                        -----------------------------------------
Magnitude (a.u.)       :      1.259890507
Magnitude (Debye)      :      3.202387170

Rotational constants in cm-1:             1.939883             0.338500             0.304324
Rotational constants in MHz :         58156.233196         10147.971408          9123.390035

                             ****ORCA TERMINATED NORMALLY****
TOTAL RUN TIME: 0 days 0 hours 0 minutes 16 seconds 343 msec
