                         Program Version 6.0.0  -   RELEASE  -
|  1> ! Opt wB97M-D3BJ def2-TZVPPD
|  2> %pal nprocs 8 end %pal nprocs 64 end
|  3> %geom
|  4> Constraints
|  5>     {A 2 1 0 133.63636363636363 C }
|  6> end
|  7> MaxIter 500
|  8> end
|  9> *xyz 0 1
| 10> O   -0.0007 0.8141 0.0
| 11> C   0.7509 -0.4065 0.0
| 12> C   -0.7502 -0.4076 0.0
| 13> H   1.2625 -0.6786 0.9136
| 14> H   1.2625 -0.6787 -0.9136
| 15> H   -1.2614 -0.6806 -0.9136
| 16> H   -1.2614 -0.6805 0.9136
| 17> *
| 18>
| 19>                          ****END OF INPUT****
 Total Charge           Charge          ....    0
 Multiplicity           Mult            ....    1
 Number of Electrons    NEL             ....   24
Dispersion correction           -0.005731629
FINAL SINGLE POINT ENERGY      -153.535188992812
Dispersion correction             ... done (  0.1 sec)
Dispersion correction           -0.005648823
FINAL SINGLE POINT ENERGY      -153.667370315721
Dispersion correction             ... done (  0.1 sec)
Dispersion correction           -0.005585254
FINAL SINGLE POINT ENERGY      -153.704928879374
Dispersion correction             ... done (  0.1 sec)
FINAL SINGLE POINT ENERGY      -153.720110957408
FINAL SINGLE POINT ENERGY      -153.726016341605
FINAL SINGLE POINT ENERGY      -153.730391875932
FINAL SINGLE POINT ENERGY      -153.734121125183
FINAL SINGLE POINT ENERGY      -153.735436728542
FINAL SINGLE POINT ENERGY      -153.736154988153
FINAL SINGLE POINT ENERGY      -153.737125545291
FINAL SINGLE POINT ENERGY      -153.928196217422
FINAL SINGLE POINT ENERGY      -153.928313345736
FINAL SINGLE POINT ENERGY      -153.928389666331
FINAL SINGLE POINT ENERGY      -153.928396624016
FINAL SINGLE POINT ENERGY      -153.928430959476
FINAL SINGLE POINT ENERGY      -153.928436116786
FINAL SINGLE POINT ENERGY      -153.928438272723
Dispersion correction             ... done (  0.0 sec)
Dispersion correction           -0.005514955
FINAL SINGLE POINT ENERGY      -153.928438578442
Dispersion correction             ... done (  0.1 sec)
Dispersion correction           -0.005514911
FINAL SINGLE POINT ENERGY      -153.928438731497
Dispersion correction             ... done (  0.1 sec)
                    ***********************HURRAY********************

CARTESIAN COORDINATES (ANGSTROEM)
---------------------------------
  O      0.752975    1.355958    0.057518
  C      0.546129    0.193599    0.268646
  C     -0.455889   -0.788828   -0.252982
  H      1.216182   -0.309983    1.002893
  H      0.093129   -1.618343   -0.698460
  H     -1.145399   -0.362770   -0.977359
  H     -1.004927   -1.188033    0.599744

 Multiplicity           Mult            ....    1
 Number of Electrons    NEL             ....   24
 Basis Dimension        Dim             ....  182

ORBITAL ENERGIES
----------------

  NO   OCC          E(Eh)            E(eV)
   0   2.0000     -19.341514      -526.3094
   1   2.0000     -10.444062      -284.1974
   2   2.0000     -10.362463      -281.9770
   3   2.0000      -1.189625       -32.3713
   4   2.0000      -0.891571       -24.2609
   5   2.0000      -0.698608       -19.0101
   6   2.0000      -0.597072       -16.2472
   7   2.0000      -0.564369       -15.3573
   8   2.0000      -0.558776       -15.2051
   9   2.0000      -0.509840       -13.8735
  10   2.0000      -0.479277       -13.0418
  11   2.0000      -0.366114        -9.9625
  12   0.0000       0.035735         0.9724
  13   0.0000       0.056862         1.5473
  14   0.0000       0.059235         1.6119
  15   0.0000       0.082136         2.2350
  16   0.0000       0.085557         2.3281

MULLIKEN ATOMIC CHARGES
-----------------------
   0 O :   -0.473376
   1 C :    0.231438
   2 C :   -0.692364
   3 H :    0.225989
   4 H :    0.234184
   5 H :    0.240303
   6 H :    0.233825
Sum of atomic charges:   -0.0000000

LOEWDIN ATOMIC CHARGES
----------------------
   0 O :    0.075573
   1 C :   -0.242809
   2 C :    0.171479
   3 H :    0.021657
   4 H :   -0.008569
   5 H :   -0.008738
   6 H :   -0.008593

  Mayer bond orders larger than 0.100000
B(  0-O ,  1-C ) :   1.7704 B(  1-C ,  2-C ) :   0.7484 B(  1-C ,  3-H ) :   0.9984
B(  2-C ,  4-H ) :   0.9899 B(  2-C ,  5-H ) :   0.9593 B(  2-C ,  6-H ) :   0.9901

Dispersion correction           -0.005514856
FINAL SINGLE POINT ENERGY      -153.928438749589

DIPOLE MOMENT
-------------

Method             : SCF
Type of density    : Electron Density
Multiplicity       :   1
Irrep              :   0
Energy             :  -153.9229238935389787 Eh
Relativity type    :
Basis              : AO
                                X                 Y                 Z
Electronic contribution:      1.481538609       3.068215298       0.234730606
Nuclear contribution   :     -1.828348301      -4.187949329      -0.156286479
                        -----------------------------------------
Total Dipole Moment    :     -0.346809692      -1.119734031       0.078444128
                        -----------------------------------------
Magnitude (a.u.)       :      1.174833922
Magnitude (Debye)      :      2.986190514

Rotational constants in cm-1:             2.184772             0.319507             0.293807
Rotational constants in MHz :         65497.827821          9578.590109          8808.126241

                             ****ORCA TERMINATED NORMALLY****
TOTAL RUN TIME: 0 days 0 hours 11 minutes 30 seconds 859 msec
