                         Program Version 6.0.0  -   RELEASE  -
|  1> ! Engrad def2-TZVPPD wB97M-D3BJ
|  2> %pal nprocs 8 end%pal nprocs 64 end
|  3> %tddft
|  4>  Iroot 1 Nroots 3
|  5> sf true
|  6> end
|  7> *xyz 0 3
|  8> O   -0.16321791 1.04234366 0.42091192
|  9> C   0.50214486 -0.18677697 0.48351894
| 10> C   0.98785331 -0.72827647 -0.7590987
| 11> H   -0.15611574 -0.89100511 1.1159274
| 12> H   1.29889809 0.00906541 1.15485736
| 13> H   0.5046917 -1.68592867 -1.00859578
| 14> H   1.60758513 -0.13123584 -1.40361106
| 15> *
| 16>
| 17>                          ****END OF INPUT****

CARTESIAN COORDINATES (ANGSTROEM)
---------------------------------
  O     -0.163218    1.042344    0.420912
  C      0.502145   -0.186777    0.483519
  C      0.987853   -0.728276   -0.759099
  H     -0.156116   -0.891005    1.115927
  H      1.298898    0.009065    1.154857
  H      0.504692   -1.685929   -1.008596
  H      1.607585   -0.131236   -1.403611

 Total Charge           Charge          ....    0
 Multiplicity           Mult            ....    3
 Number of Electrons    NEL             ....   24
 Basis Dimension        Dim             ....  182

ORBITAL ENERGIES
----------------
                 SPIN UP ORBITALS
  NO   OCC          E(Eh)            E(eV)
   0   1.0000     -19.386556      -527.5350
   1   1.0000     -10.408181      -283.2210
   2   1.0000     -10.370196      -282.1874
   3   1.0000      -1.157241       -31.4901
   4   1.0000      -0.889609       -24.2075
   5   1.0000      -0.733642       -19.9634
   6   1.0000      -0.618772       -16.8376
   7   1.0000      -0.579022       -15.7560
   8   1.0000      -0.553202       -15.0534
   9   1.0000      -0.521948       -14.2029
  10   1.0000      -0.434072       -11.8117
  11   1.0000      -0.413955       -11.2643
  12   1.0000      -0.331008        -9.0072
  13   0.0000       0.040774         1.1095
  14   0.0000       0.061057         1.6615
  15   0.0000       0.075731         2.0607
  16   0.0000       0.088668         2.4128
  17   0.0000       0.114464         3.1147

                 SPIN DOWN ORBITALS
  NO   OCC          E(Eh)            E(eV)
   0   1.0000     -19.361781      -526.8608
   1   1.0000     -10.409420      -283.2547
   2   1.0000     -10.357174      -281.8330
   3   1.0000      -1.101321       -29.9685
   4   1.0000      -0.855983       -23.2925
   5   1.0000      -0.706377       -19.2215
   6   1.0000      -0.591584       -16.0978
   7   1.0000      -0.546469       -14.8702
   8   1.0000      -0.527826       -14.3629
   9   1.0000      -0.484554       -13.1854
  10   1.0000      -0.383347       -10.4314
  11   0.0000      -0.048388        -1.3167
  12   0.0000      -0.008118        -0.2209
  13   0.0000       0.039990         1.0882
  14   0.0000       0.061360         1.6697
  15   0.0000       0.075876         2.0647

----------------------------------------------------------------------------------------------------
          SPIN FLIP ABSORPTION SPECTRUM VIA TRANSITION ELECTRIC DIPOLE MOMENTS
----------------------------------------------------------------------------------------------------
     Transition      Energy     Energy  Wavelength fosc(D2)      D2        DX        DY        DZ
                      (eV)      (cm-1)    (nm)                 (au**2)    (au)      (au)      (au)
----------------------------------------------------------------------------------------------------
  1-3A  ->  2-3A    0.118218     953.5  10487.7   0.000309156   0.10674  -0.10169   0.25180   0.18165
  1-3A  ->  3-3A    0.848600    6844.4  1461.0   0.004982387   0.23965   0.22096  -0.41017  -0.15029

Dispersion correction             ... done (  0.2 sec)

MULLIKEN ATOMIC CHARGES AND SPIN DENSITIES
------------------------------------------
   0 O :   -0.381994    0.209448
   1 C :   -0.061100    0.044096
   2 C :   -0.303692   -0.255529
   3 H :    0.229277    0.020134
   4 H :    0.188120    0.042458
   5 H :    0.134314   -0.023862
   6 H :    0.195076   -0.036745
Sum of atomic charges       :    0.0000000

LOEWDIN ATOMIC CHARGES AND SPIN DENSITIES
-----------------------------------------
   0 O :   -0.004349    0.181375
   1 C :   -0.280090    0.017855
   2 C :    0.300323   -0.189457
   3 H :    0.081520    0.016708
   4 H :   -0.006209    0.024148
   5 H :   -0.038816   -0.025603
   6 H :   -0.052379   -0.025026

  Mayer bond orders larger than 0.100000
B(  0-O ,  1-C ) :   0.9084 B(  0-O ,  2-C ) :   0.1910 B(  1-C ,  2-C ) :   0.8137
B(  1-C ,  3-H ) :   0.9255 B(  1-C ,  4-H ) :   0.9576 B(  2-C ,  5-H ) :   1.0308
B(  2-C ,  6-H ) :   0.9982

Dispersion correction           -0.005538679
FINAL SINGLE POINT ENERGY      -153.748073083778

DIPOLE MOMENT
-------------

Method             : TDA/CIS
Type of density    : Electron Density
Level              : Relaxed density
State              :   1
Multiplicity       :   3
Irrep              :   0
Energy             :     0.0000000000000000 Eh
Relativity type    :
Basis              : AO
                                X                 Y                 Z
Electronic contribution:     -1.037957463       1.884321758       0.380339662
Nuclear contribution   :      1.463594486      -2.770397204      -0.407104821
                        -----------------------------------------
Total Dipole Moment    :      0.425637024      -0.886075446      -0.026765159
                        -----------------------------------------
Magnitude (a.u.)       :      0.983368164
Magnitude (Debye)      :      2.499523232

Rotational constants in cm-1:             1.480530             0.345076             0.307573
Rotational constants in MHz :         44385.162616         10345.108965          9220.805575

                             ****ORCA TERMINATED NORMALLY****
TOTAL RUN TIME: 0 days 0 hours 0 minutes 26 seconds 486 msec
