                         Program Version 6.0.0  -   RELEASE  -
|  1> ! Opt wB97M-D3BJ def2-TZVPPD
|  2> %pal nprocs 8 end %pal nprocs 64 end
|  3> %geom
|  4> Constraints
|  5>     {A 2 1 0 82.88135593220339 C }
|  6> end
|  7> MaxIter 200
|  8> end
|  9> *xyz 0 1
| 10> O   0.5722188437794719 1.0157657854324191 0.0
| 11> C   0.7509 -0.4065 0.0
| 12> C   -0.7502 -0.4076 0.0
| 13> H   1.2625 -0.6786 0.9136
| 14> H   1.2625 -0.6787 -0.9136
| 15> H   -1.2614 -0.6806 -0.9136
| 16> H   -1.2614 -0.6805 0.9136
| 17> *
| 18>
| 19>                          ****END OF INPUT****
 Total Charge           Charge          ....    0
 Multiplicity           Mult            ....    1
 Number of Electrons    NEL             ....   24
Dispersion correction           -0.005538150
FINAL SINGLE POINT ENERGY      -153.818305890514
Dispersion correction             ... done (  0.1 sec)
Dispersion correction           -0.005513615
FINAL SINGLE POINT ENERGY      -153.833891801904
Dispersion correction             ... done (  0.1 sec)
Dispersion correction           -0.005443403
FINAL SINGLE POINT ENERGY      -153.841107507732
Dispersion correction             ... done (  0.0 sec)
FINAL SINGLE POINT ENERGY      -153.843814311261
FINAL SINGLE POINT ENERGY      -153.844307875753
FINAL SINGLE POINT ENERGY      -153.844394792849
Dispersion correction             ... done (  0.1 sec)
Dispersion correction           -0.005446462
FINAL SINGLE POINT ENERGY      -153.844428704107
Dispersion correction             ... done (  0.1 sec)
Dispersion correction           -0.005447597
FINAL SINGLE POINT ENERGY      -153.844435181900
Dispersion correction             ... done (  0.1 sec)
                    ***********************HURRAY********************

CARTESIAN COORDINATES (ANGSTROEM)
---------------------------------
  O      0.395288    0.938588   -0.000350
  C      0.737401   -0.363447   -0.000170
  C     -0.668012   -0.551048   -0.000191
  H      1.269761   -0.708524    0.892174
  H      1.270217   -0.708969   -0.892074
  H     -1.215559   -0.562464   -0.927926
  H     -1.213978   -0.560869    0.928537

 Multiplicity           Mult            ....    1
 Number of Electrons    NEL             ....   24
 Basis Dimension        Dim             ....  182

ORBITAL ENERGIES
----------------

  NO   OCC          E(Eh)            E(eV)
   0   2.0000     -19.341767      -526.3162
   1   2.0000     -10.421583      -283.5857
   2   2.0000     -10.396655      -282.9074
   3   2.0000      -1.157064       -31.4853
   4   2.0000      -0.854745       -23.2588
   5   2.0000      -0.737212       -20.0606
   6   2.0000      -0.626449       -17.0465
   7   2.0000      -0.584132       -15.8950
   8   2.0000      -0.509851       -13.8737
   9   2.0000      -0.502861       -13.6835
  10   2.0000      -0.398364       -10.8400
  11   2.0000      -0.368921       -10.0389
  12   0.0000       0.011908         0.3240
  13   0.0000       0.042774         1.1639
  14   0.0000       0.060689         1.6514
  15   0.0000       0.076717         2.0876
  16   0.0000       0.099920         2.7190

MULLIKEN ATOMIC CHARGES
-----------------------
   0 O :   -0.457344
   1 C :   -0.086123
   2 C :   -0.307900
   3 H :    0.212627
   4 H :    0.212783
   5 H :    0.212908
   6 H :    0.213050
Sum of atomic charges:    0.0000000

LOEWDIN ATOMIC CHARGES
----------------------
   0 O :   -0.021181
   1 C :   -0.299429
   2 C :    0.279899
   3 H :    0.024811
   4 H :    0.024822
   5 H :   -0.004455
   6 H :   -0.004467

  Mayer bond orders larger than 0.100000
B(  0-O ,  1-C ) :   0.6732 B(  0-O ,  2-C ) :   0.9438 B(  1-C ,  2-C ) :   0.7696
B(  1-C ,  3-H ) :   1.0513 B(  1-C ,  4-H ) :   1.0509 B(  2-C ,  5-H ) :   0.9673
B(  2-C ,  6-H ) :   0.9673

Dispersion correction           -0.005447669
FINAL SINGLE POINT ENERGY      -153.844435742544

DIPOLE MOMENT
-------------

Method             : SCF
Type of density    : Electron Density
Multiplicity       :   1
Irrep              :   0
Energy             :  -153.8389880738931765 Eh
Relativity type    :
Basis              : AO
                                X                 Y                 Z
Electronic contribution:      0.150116710       1.461163832      -0.001283709
Nuclear contribution   :     -0.512196530      -2.495692230       0.001449460
                        -----------------------------------------
Total Dipole Moment    :     -0.362079820      -1.034528398       0.000165750
                        -----------------------------------------
Magnitude (a.u.)       :      1.096061508
Magnitude (Debye)      :      2.785966949

Rotational constants in cm-1:             0.990811             0.561650             0.417833
Rotational constants in MHz :         29703.772834         16837.845402         12526.308861

                             ****ORCA TERMINATED NORMALLY****
TOTAL RUN TIME: 0 days 0 hours 1 minutes 55 seconds 976 msec
