                         Program Version 6.0.0  -   RELEASE  -
|  1> ! Opt wB97M-D3BJ def2-TZVPPD
|  2> %pal nprocs 8 end %pal nprocs 64 end
|  3> %geom
|  4> Constraints
|  5>     {A 2 1 0 118.18181818181817 C }
|  6> end
|  7> MaxIter 500
|  8> end
|  9> *xyz 0 1
| 10> O   -0.0007 0.8141 0.0
| 11> C   0.7509 -0.4065 0.0
| 12> C   -0.7502 -0.4076 0.0
| 13> H   1.2625 -0.6786 0.9136
| 14> H   1.2625 -0.6787 -0.9136
| 15> H   -1.2614 -0.6806 -0.9136
| 16> H   -1.2614 -0.6805 0.9136
| 17> *
| 18>
| 19>                          ****END OF INPUT****
 Total Charge           Charge          ....    0
 Multiplicity           Mult            ....    1
 Number of Electrons    NEL             ....   24
Dispersion correction           -0.005780729
FINAL SINGLE POINT ENERGY      -153.631872440985
Dispersion correction             ... done (  0.1 sec)
Dispersion correction           -0.005667951
FINAL SINGLE POINT ENERGY      -153.710207623959
Dispersion correction             ... done (  0.1 sec)
Dispersion correction           -0.005595521
FINAL SINGLE POINT ENERGY      -153.731805326517
Dispersion correction             ... done (  0.1 sec)
FINAL SINGLE POINT ENERGY      -153.743640867606
FINAL SINGLE POINT ENERGY      -153.749943801166
FINAL SINGLE POINT ENERGY      -153.752615121812
FINAL SINGLE POINT ENERGY      -153.754150120960
FINAL SINGLE POINT ENERGY      -153.757633326132
FINAL SINGLE POINT ENERGY      -153.762322210778
FINAL SINGLE POINT ENERGY      -153.767179699924
FINAL SINGLE POINT ENERGY      -153.929914447305
FINAL SINGLE POINT ENERGY      -153.929955337147
FINAL SINGLE POINT ENERGY      -153.930002425682
FINAL SINGLE POINT ENERGY      -153.930033807724
FINAL SINGLE POINT ENERGY      -153.930047040743
FINAL SINGLE POINT ENERGY      -153.930050301483
FINAL SINGLE POINT ENERGY      -153.930055411930
Dispersion correction             ... done (  0.1 sec)
Dispersion correction           -0.005549747
FINAL SINGLE POINT ENERGY      -153.930056969081
Dispersion correction             ... done (  0.1 sec)
Dispersion correction           -0.005549076
FINAL SINGLE POINT ENERGY      -153.930057511166
Dispersion correction             ... done (  0.1 sec)
                    ***********************HURRAY********************

CARTESIAN COORDINATES (ANGSTROEM)
---------------------------------
  O      0.496010    1.314042    0.084585
  C      0.587093    0.171295   -0.287246
  C     -0.432595   -0.820729    0.206631
  H      0.058977   -1.635363    0.741313
  H      1.385247   -0.163979   -0.970218
  H     -0.960682   -1.273054   -0.634418
  H     -1.131850   -0.310612    0.859353

 Multiplicity           Mult            ....    1
 Number of Electrons    NEL             ....   24
 Basis Dimension        Dim             ....  182

ORBITAL ENERGIES
----------------

  NO   OCC          E(Eh)            E(eV)
   0   2.0000     -19.337732      -526.2064
   1   2.0000     -10.443089      -284.1709
   2   2.0000     -10.353620      -281.7363
   3   2.0000      -1.186954       -32.2987
   4   2.0000      -0.876766       -23.8580
   5   2.0000      -0.706699       -19.2303
   6   2.0000      -0.598740       -16.2925
   7   2.0000      -0.557480       -15.1698
   8   2.0000      -0.549080       -14.9412
   9   2.0000      -0.507410       -13.8073
  10   2.0000      -0.473220       -12.8770
  11   2.0000      -0.368088       -10.0162
  12   0.0000       0.038741         1.0542
  13   0.0000       0.052246         1.4217
  14   0.0000       0.059047         1.6067
  15   0.0000       0.084298         2.2939
  16   0.0000       0.086850         2.3633

MULLIKEN ATOMIC CHARGES
-----------------------
   0 O :   -0.473650
   1 C :    0.241231
   2 C :   -0.693283
   3 H :    0.220668
   4 H :    0.243798
   5 H :    0.221131
   6 H :    0.240105
Sum of atomic charges:   -0.0000000

LOEWDIN ATOMIC CHARGES
----------------------
   0 O :    0.058275
   1 C :   -0.209460
   2 C :    0.165628
   3 H :   -0.013487
   4 H :    0.023295
   5 H :   -0.013649
   6 H :   -0.010603

  Mayer bond orders larger than 0.100000
B(  0-O ,  1-C ) :   1.7715 B(  1-C ,  2-C ) :   0.7728 B(  1-C ,  4-H ) :   0.9819
B(  2-C ,  3-H ) :   0.9937 B(  2-C ,  5-H ) :   0.9936 B(  2-C ,  6-H ) :   0.9585

Dispersion correction           -0.005549084
FINAL SINGLE POINT ENERGY      -153.930057586280

DIPOLE MOMENT
-------------

Method             : SCF
Type of density    : Electron Density
Multiplicity       :   1
Irrep              :   0
Energy             :  -153.9245085019883561 Eh
Relativity type    :
Basis              : AO
                                X                 Y                 Z
Electronic contribution:      1.317190315       2.924502771      -0.200980103
Nuclear contribution   :     -1.382378023      -3.993645517      -0.035058539
                        -----------------------------------------
Total Dipole Moment    :     -0.065187708      -1.069142746      -0.236038641
                        -----------------------------------------
Magnitude (a.u.)       :      1.096827192
Magnitude (Debye)      :      2.787913164

Rotational constants in cm-1:             1.749228             0.357919             0.314226
Rotational constants in MHz :         52440.532101         10730.133712          9420.257550

                             ****ORCA TERMINATED NORMALLY****
TOTAL RUN TIME: 0 days 0 hours 10 minutes 46 seconds 356 msec
