                         Program Version 6.0.0  -   RELEASE  -
|  1> ! Opt wB97M-D3BJ def2-TZVPPD
|  2> %pal nprocs 8 end %pal nprocs 64 end
|  3> %geom
|  4> Constraints
|  5>     {A 2 1 0 143.89830508474574 C }
|  6> end
|  7> MaxIter 200
|  8> end
|  9> *xyz 0 1
| 10> O   1.9084654957304341 0.4389638035388357 0.0
| 11> C   0.7509 -0.4065 0.0
| 12> C   -0.7502 -0.4076 0.0
| 13> H   1.2625 -0.6786 0.9136
| 14> H   1.2625 -0.6787 -0.9136
| 15> H   -1.2614 -0.6806 -0.9136
| 16> H   -1.2614 -0.6805 0.9136
| 17> *
| 18>
| 19>                          ****END OF INPUT****
 Total Charge           Charge          ....    0
 Multiplicity           Mult            ....    1
 Number of Electrons    NEL             ....   24
Dispersion correction           -0.005289453
FINAL SINGLE POINT ENERGY      -153.681595540578
Dispersion correction             ... done (  0.1 sec)
Dispersion correction           -0.005388966
FINAL SINGLE POINT ENERGY      -153.704358449482
Dispersion correction             ... done (  0.1 sec)
Dispersion correction           -0.005458584
FINAL SINGLE POINT ENERGY      -153.714648462629
Dispersion correction             ... done (  0.1 sec)
FINAL SINGLE POINT ENERGY      -153.722096236231
FINAL SINGLE POINT ENERGY      -153.729828269418
FINAL SINGLE POINT ENERGY      -153.740410773171
FINAL SINGLE POINT ENERGY      -153.759875932063
FINAL SINGLE POINT ENERGY      -153.794555633831
FINAL SINGLE POINT ENERGY      -153.817174003081
FINAL SINGLE POINT ENERGY      -153.829325225593
FINAL SINGLE POINT ENERGY      -153.914893497619
FINAL SINGLE POINT ENERGY      -153.915907660234
FINAL SINGLE POINT ENERGY      -153.916080477464
FINAL SINGLE POINT ENERGY      -153.916203015011
FINAL SINGLE POINT ENERGY      -153.916514312690
FINAL SINGLE POINT ENERGY      -153.916608201595
FINAL SINGLE POINT ENERGY      -153.916687445755
Dispersion correction             ... done (  0.1 sec)
Dispersion correction           -0.005494354
FINAL SINGLE POINT ENERGY      -153.916701576085
Dispersion correction             ... done (  0.0 sec)
Dispersion correction           -0.005493899
FINAL SINGLE POINT ENERGY      -153.916702473517
Dispersion correction             ... done (  0.1 sec)
                    ***********************HURRAY********************

CARTESIAN COORDINATES (ANGSTROEM)
---------------------------------
  O      1.689800    0.926516    0.034539
  C      0.972691   -0.019759    0.201267
  C     -0.302138   -0.670120   -0.251556
  H      1.355700   -0.723324    0.989614
  H     -0.027179   -1.669687   -0.584683
  H     -0.861984   -0.155443   -1.030432
  H     -0.915524   -0.781720    0.641251

 Multiplicity           Mult            ....    1
 Number of Electrons    NEL             ....   24
 Basis Dimension        Dim             ....  182

ORBITAL ENERGIES
----------------

  NO   OCC          E(Eh)            E(eV)
   0   2.0000     -19.344133      -526.3806
   1   2.0000     -10.446768      -284.2710
   2   2.0000     -10.369546      -282.1697
   3   2.0000      -1.190894       -32.4059
   4   2.0000      -0.898479       -24.4489
   5   2.0000      -0.694937       -18.9102
   6   2.0000      -0.595493       -16.2042
   7   2.0000      -0.567923       -15.4540
   8   2.0000      -0.562478       -15.3058
   9   2.0000      -0.511394       -13.9157
  10   2.0000      -0.482409       -13.1270
  11   2.0000      -0.359952        -9.7948
  12   0.0000       0.033213         0.9038
  13   0.0000       0.058221         1.5843
  14   0.0000       0.059164         1.6099
  15   0.0000       0.080946         2.2027
  16   0.0000       0.084830         2.3083

MULLIKEN ATOMIC CHARGES
-----------------------
   0 O :   -0.463062
   1 C :    0.225421
   2 C :   -0.686574
   3 H :    0.196757
   4 H :    0.242874
   5 H :    0.241328
   6 H :    0.243257
Sum of atomic charges:   -0.0000000

LOEWDIN ATOMIC CHARGES
----------------------
   0 O :    0.078456
   1 C :   -0.245029
   2 C :    0.172553
   3 H :    0.017980
   4 H :   -0.006599
   5 H :   -0.010791
   6 H :   -0.006570

  Mayer bond orders larger than 0.100000
B(  0-O ,  1-C ) :   1.7739 B(  1-C ,  2-C ) :   0.7540 B(  1-C ,  3-H ) :   1.0204
B(  2-C ,  4-H ) :   0.9836 B(  2-C ,  5-H ) :   0.9640 B(  2-C ,  6-H ) :   0.9830

Dispersion correction           -0.005493709
FINAL SINGLE POINT ENERGY      -153.916702551272

DIPOLE MOMENT
-------------

Method             : SCF
Type of density    : Electron Density
Multiplicity       :   1
Irrep              :   0
Energy             :  -153.9112088421821625 Eh
Relativity type    :
Basis              : AO
                                X                 Y                 Z
Electronic contribution:      2.530175081       2.494069183       0.025675225
Nuclear contribution   :     -3.358421007      -3.382580479       0.018327201
                        -----------------------------------------
Total Dipole Moment    :     -0.828245926      -0.888511296       0.044002426
                        -----------------------------------------
Magnitude (a.u.)       :      1.215475154
Magnitude (Debye)      :      3.089492315

Rotational constants in cm-1:             2.538907             0.299775             0.282047
Rotational constants in MHz :         76114.521059          8987.013429          8455.552960

                             ****ORCA TERMINATED NORMALLY****
TOTAL RUN TIME: 0 days 0 hours 6 minutes 32 seconds 313 msec
