                         Program Version 6.0.0  -   RELEASE  -
|  1> ! Engrad def2-TZVPPD wB97M-D3BJ
|  2> %pal nprocs 8 end%pal nprocs 32 end
|  3> %tddft Nroots 2 Iroot 1
|  4> sf true
|  5> end
|  6> *xyz 0 3
|  7> O   -0.08961976 0.76997174 0.00096894
|  8> C   0.78407554 -0.52240044 -0.00295693
|  9> C   -0.74019757 -0.38055363 -5.437e-05
| 10> H   1.31139457 -0.63650043 0.94752383
| 11> H   1.31646076 -0.63462625 -0.94479421
| 12> H   -1.27805094 -0.64345092 -0.91993325
| 13> H   -1.28188925 -0.63352606 0.92009338
| 14> *
| 15>
| 16>                          ****END OF INPUT****

CARTESIAN COORDINATES (ANGSTROEM)
---------------------------------
  O     -0.089620    0.769972    0.000969
  C      0.784076   -0.522400   -0.002957
  C     -0.740198   -0.380554   -0.000054
  H      1.311395   -0.636500    0.947524
  H      1.316461   -0.634626   -0.944794
  H     -1.278051   -0.643451   -0.919933
  H     -1.281889   -0.633526    0.920093

 Total Charge           Charge          ....    0
 Multiplicity           Mult            ....    3
 Number of Electrons    NEL             ....   24
 Basis Dimension        Dim             ....  182

ORBITAL ENERGIES
----------------
                 SPIN UP ORBITALS
  NO   OCC          E(Eh)            E(eV)
   0   1.0000     -19.462688      -529.6067
   1   1.0000     -10.426716      -283.7254
   2   1.0000     -10.368943      -282.1533
   3   1.0000      -1.302618       -35.4460
   4   1.0000      -0.838208       -22.8088
   5   1.0000      -0.786782       -21.4094
   6   1.0000      -0.688028       -18.7222
   7   1.0000      -0.645929       -17.5766
   8   1.0000      -0.581680       -15.8283
   9   1.0000      -0.504809       -13.7366
  10   1.0000      -0.494243       -13.4490
  11   1.0000      -0.441874       -12.0240
  12   1.0000      -0.149190        -4.0597
  13   0.0000       0.035781         0.9736
  14   0.0000       0.060934         1.6581
  15   0.0000       0.070220         1.9108
  16   0.0000       0.084191         2.2909
  17   0.0000       0.110313         3.0018

                 SPIN DOWN ORBITALS
  NO   OCC          E(Eh)            E(eV)
   0   1.0000     -19.431146      -528.7484
   1   1.0000     -10.426616      -283.7227
   2   1.0000     -10.359981      -281.9094
   3   1.0000      -1.240450       -33.7544
   4   1.0000      -0.804851       -21.9011
   5   1.0000      -0.764651       -20.8072
   6   1.0000      -0.627341       -17.0708
   7   1.0000      -0.615696       -16.7539
   8   1.0000      -0.540135       -14.6978
   9   1.0000      -0.488042       -13.2803
  10   1.0000      -0.408710       -11.1216
  11   0.0000      -0.117398        -3.1946
  12   0.0000       0.031997         0.8707
  13   0.0000       0.056959         1.5499
  14   0.0000       0.063865         1.7379
  15   0.0000       0.064681         1.7600

----------------------------------------------------------------------------------------------------
          SPIN FLIP ABSORPTION SPECTRUM VIA TRANSITION ELECTRIC DIPOLE MOMENTS
----------------------------------------------------------------------------------------------------
     Transition      Energy     Energy  Wavelength fosc(D2)      D2        DX        DY        DZ
                      (eV)      (cm-1)    (nm)                 (au**2)    (au)      (au)      (au)
----------------------------------------------------------------------------------------------------
  1-3A  ->  2-3A    6.353685   51245.9   195.1   0.007930496   0.05095  -0.01239   0.01413  -0.22493

Dispersion correction             ... done (  0.1 sec)

MULLIKEN ATOMIC CHARGES AND SPIN DENSITIES
------------------------------------------
   0 O :   -0.371158    0.055703
   1 C :   -0.468839    0.038034
   2 C :   -0.116250   -0.082805
   3 H :    0.286164   -0.026789
   4 H :    0.290442   -0.028417
   5 H :    0.189644    0.024016
   6 H :    0.189998    0.020258
Sum of atomic charges       :   -0.0000000

LOEWDIN ATOMIC CHARGES AND SPIN DENSITIES
-----------------------------------------
   0 O :   -0.081342    0.025629
   1 C :    0.171004   -0.021545
   2 C :   -0.139409   -0.001110
   3 H :    0.006622   -0.007170
   4 H :    0.002927   -0.006775
   5 H :    0.020315    0.006053
   6 H :    0.019884    0.004917

  Mayer bond orders larger than 0.100000
B(  0-O ,  1-C ) :   0.8859 B(  0-O ,  2-C ) :   0.8101 B(  1-C ,  2-C ) :   0.7437
B(  1-C ,  3-H ) :   0.9075 B(  1-C ,  4-H ) :   0.9034 B(  2-C ,  5-H ) :   1.0174
B(  2-C ,  6-H ) :   1.0189

Dispersion correction           -0.005164104
FINAL SINGLE POINT ENERGY      -153.860154765008

DIPOLE MOMENT
-------------

Method             : TDA/CIS
Type of density    : Electron Density
Level              : Relaxed density
State              :   1
Multiplicity       :   3
Irrep              :   0
Energy             :     0.0000000000000000 Eh
Relativity type    :
Basis              : AO
                                X                 Y                 Z
Electronic contribution:      0.051411836       1.229827803      -0.008962199
Nuclear contribution   :      0.134088211      -2.285529106       0.004243762
                        -----------------------------------------
Total Dipole Moment    :      0.185500047      -1.055701303      -0.004718436
                        -----------------------------------------
Magnitude (a.u.)       :      1.071885149
Magnitude (Debye)      :      2.724515527

Rotational constants in cm-1:             0.915997             0.658737             0.455954
Rotational constants in MHz :         27460.898793         19748.441930         13669.170760

                             ****ORCA TERMINATED NORMALLY****
TOTAL RUN TIME: 0 days 0 hours 0 minutes 51 seconds 687 msec
