                         Program Version 6.0.0  -   RELEASE  -
|  1> ! Engrad def2-TZVPPD wB97M-D3BJ
|  2> %pal nprocs 8 end%pal nprocs 64 end
|  3> %tddft
|  4>  Iroot 2 Nroots 3
|  5> sf true
|  6> end
|  7> *xyz 0 3
|  8> O   3.55862491 0.36574095 0.51401407
|  9> O   -0.86355589 0.88790075 -2.90576811
| 10> O   0.64328233 -2.78565776 -1.04621579
| 11> O   -3.81753194 -0.77527361 -0.03901181
| 12> N   -0.04188102 -1.45973861 0.6738021
| 13> N   -2.16909771 0.5279859 0.87313042
| 14> N   2.16019616 -1.24083363 -0.15295798
| 15> N   -2.07969301 -0.26536672 -1.40633809
| 16> C   1.48124061 0.26152784 1.55557757
| 17> C   -0.38908469 1.23506284 -0.57509573
| 18> C   0.10423593 -0.17755687 1.37684883
| 19> C   -0.80329513 0.97828049 0.80230466
| 20> C   1.87002784 1.30708096 2.46067398
| 21> C   0.75128318 2.18850125 -0.74783055
| 22> C   2.50114562 -0.23098757 0.64106467
| 23> C   -1.10457647 0.68139223 -1.70923406
| 24> C   0.88420591 -1.94063964 -0.2198625
| 25> C   -2.77913142 -0.17756089 -0.15169062
| 26> H   -0.34398486 -0.26536296 2.40058285
| 27> H   -0.68125635 1.94938696 1.37426307
| 28> H   2.33067119 2.11687409 1.95568421
| 29> H   1.02929731 1.55632328 3.1292825
| 30> H   2.664024 0.84332454 3.09200256
| 31> H   1.74131169 1.73457693 -0.81093232
| 32> H   0.57300587 2.91600866 -1.57616213
| 33> H   0.86743548 2.81464671 0.09943966
| 34> H   -0.93845374 -1.9403288 0.58834852
| 35> H   -2.59381751 0.37683523 1.77670683
| 36> H   2.92128094 -1.45392609 -0.90388263
| 37> H   -2.63995528 -0.42935951 -2.20517325
| 38> *
| 39>
| 40>                          ****END OF INPUT****

CARTESIAN COORDINATES (ANGSTROEM)
---------------------------------
  O      3.558625    0.365741    0.514014
  O     -0.863556    0.887901   -2.905768
  O      0.643282   -2.785658   -1.046216
  O     -3.817532   -0.775274   -0.039012
  N     -0.041881   -1.459739    0.673802
  N     -2.169098    0.527986    0.873130
  N      2.160196   -1.240834   -0.152958
  N     -2.079693   -0.265367   -1.406338
  C      1.481241    0.261528    1.555578
  C     -0.389085    1.235063   -0.575096
  C      0.104236   -0.177557    1.376849
  C     -0.803295    0.978280    0.802305
  C      1.870028    1.307081    2.460674
  C      0.751283    2.188501   -0.747831
  C      2.501146   -0.230988    0.641065
  C     -1.104576    0.681392   -1.709234
  C      0.884206   -1.940640   -0.219862
  C     -2.779131   -0.177561   -0.151691
  H     -0.343985   -0.265363    2.400583
  H     -0.681256    1.949387    1.374263
  H      2.330671    2.116874    1.955684
  H      1.029297    1.556323    3.129282
  H      2.664024    0.843325    3.092003
  H      1.741312    1.734577   -0.810932
  H      0.573006    2.916009   -1.576162
  H      0.867435    2.814647    0.099440
  H     -0.938454   -1.940329    0.588349
  H     -2.593818    0.376835    1.776707
  H      2.921281   -1.453926   -0.903883
  H     -2.639955   -0.429360   -2.205173

 Total Charge           Charge          ....    0
 Multiplicity           Mult            ....    3
 Number of Electrons    NEL             ....  132
 Basis Dimension        Dim             ....  882

ORBITAL ENERGIES
----------------
                 SPIN UP ORBITALS
  NO   OCC          E(Eh)            E(eV)
   0   1.0000     -19.332029      -526.0513
   1   1.0000     -19.331989      -526.0502
   2   1.0000     -19.328343      -525.9510
   3   1.0000     -19.325263      -525.8671
   4   1.0000     -14.572140      -396.5281
   5   1.0000     -14.571855      -396.5203
   6   1.0000     -14.570328      -396.4788
   7   1.0000     -14.558849      -396.1664
   8   1.0000     -10.518649      -286.2270
   9   1.0000     -10.514253      -286.1074
  10   1.0000     -10.478324      -285.1297
  11   1.0000     -10.472964      -284.9838
  12   1.0000     -10.452655      -284.4312
  13   1.0000     -10.451040      -284.3872
  14   1.0000     -10.420817      -283.5649
  15   1.0000     -10.409603      -283.2597
  16   1.0000     -10.375465      -282.3307
  17   1.0000     -10.370476      -282.1950
  18   1.0000      -1.223879       -33.3035
  19   1.0000      -1.220494       -33.2113
  20   1.0000      -1.198664       -32.6173
  21   1.0000      -1.189507       -32.3681
  22   1.0000      -1.124949       -30.6114
  23   1.0000      -1.099489       -29.9186
  24   1.0000      -1.062943       -28.9242
  25   1.0000      -1.056113       -28.7383
  26   1.0000      -0.994722       -27.0678
  27   1.0000      -0.963031       -26.2054
  28   1.0000      -0.892712       -24.2919
  29   1.0000      -0.844221       -22.9724
  30   1.0000      -0.826815       -22.4988
  31   1.0000      -0.798002       -21.7147
  32   1.0000      -0.788454       -21.4549
  33   1.0000      -0.778507       -21.1842
  34   1.0000      -0.702582       -19.1182
  35   1.0000      -0.693656       -18.8753
  36   1.0000      -0.686943       -18.6927
  37   1.0000      -0.684669       -18.6308
  38   1.0000      -0.659929       -17.9576
  39   1.0000      -0.635732       -17.2991
  40   1.0000      -0.625401       -17.0180
  41   1.0000      -0.606892       -16.5144
  42   1.0000      -0.601738       -16.3741
  43   1.0000      -0.584482       -15.9046
  44   1.0000      -0.578479       -15.7412
  45   1.0000      -0.570364       -15.5204
  46   1.0000      -0.567378       -15.4391
  47   1.0000      -0.565581       -15.3902
  48   1.0000      -0.559742       -15.2314
  49   1.0000      -0.557902       -15.1813
  50   1.0000      -0.548701       -14.9309
  51   1.0000      -0.537935       -14.6380
  52   1.0000      -0.532968       -14.5028
  53   1.0000      -0.528361       -14.3774
  54   1.0000      -0.515663       -14.0319
  55   1.0000      -0.509830       -13.8732
  56   1.0000      -0.492299       -13.3961
  57   1.0000      -0.429626       -11.6907
  58   1.0000      -0.425844       -11.5878
  59   1.0000      -0.410727       -11.1764
  60   1.0000      -0.408636       -11.1195
  61   1.0000      -0.401585       -10.9277
  62   1.0000      -0.398061       -10.8318
  63   1.0000      -0.389964       -10.6115
  64   1.0000      -0.385773       -10.4974
  65   1.0000      -0.351569        -9.5667
  66   1.0000      -0.318939        -8.6788
  67   0.0000       0.006586         0.1792
  68   0.0000       0.029957         0.8152
  69   0.0000       0.032522         0.8850
  70   0.0000       0.035122         0.9557
  71   0.0000       0.053857         1.4655

                 SPIN DOWN ORBITALS
  NO   OCC          E(Eh)            E(eV)
   0   1.0000     -19.331968      -526.0496
   1   1.0000     -19.328270      -525.9490
   2   1.0000     -19.327198      -525.9198
   3   1.0000     -19.322105      -525.7812
   4   1.0000     -14.571625      -396.5141
   5   1.0000     -14.571243      -396.5037
   6   1.0000     -14.570374      -396.4800
   7   1.0000     -14.558335      -396.1524
   8   1.0000     -10.518698      -286.2283
   9   1.0000     -10.514294      -286.1085
  10   1.0000     -10.479482      -285.1612
  11   1.0000     -10.473728      -285.0046
  12   1.0000     -10.452233      -284.4197
  13   1.0000     -10.450360      -284.3688
  14   1.0000     -10.409583      -283.2591
  15   1.0000     -10.398299      -282.9521
  16   1.0000     -10.375985      -282.3449
  17   1.0000     -10.371032      -282.2101
  18   1.0000      -1.222989       -33.2792
  19   1.0000      -1.219461       -33.1832
  20   1.0000      -1.194869       -32.5140
  21   1.0000      -1.183411       -32.2022
  22   1.0000      -1.122087       -30.5336
  23   1.0000      -1.097472       -29.8637
  24   1.0000      -1.060592       -28.8602
  25   1.0000      -1.054418       -28.6922
  26   1.0000      -0.982016       -26.7220
  27   1.0000      -0.946023       -25.7426
  28   1.0000      -0.886694       -24.1282
  29   1.0000      -0.838967       -22.8294
  30   1.0000      -0.817345       -22.2411
  31   1.0000      -0.791819       -21.5465
  32   1.0000      -0.787046       -21.4166
  33   1.0000      -0.776730       -21.1359
  34   1.0000      -0.698685       -19.0122
  35   1.0000      -0.688333       -18.7305
  36   1.0000      -0.680873       -18.5275
  37   1.0000      -0.678621       -18.4662
  38   1.0000      -0.645445       -17.5635
  39   1.0000      -0.631285       -17.1781
  40   1.0000      -0.621922       -16.9234
  41   1.0000      -0.598714       -16.2918
  42   1.0000      -0.595946       -16.2165
  43   1.0000      -0.580473       -15.7955
  44   1.0000      -0.571951       -15.5636
  45   1.0000      -0.565921       -15.3995
  46   1.0000      -0.562585       -15.3087
  47   1.0000      -0.557292       -15.1647
  48   1.0000      -0.553249       -15.0547
  49   1.0000      -0.547200       -14.8901
  50   1.0000      -0.539897       -14.6913
  51   1.0000      -0.529620       -14.4117
  52   1.0000      -0.526207       -14.3188
  53   1.0000      -0.521508       -14.1909
  54   1.0000      -0.508424       -13.8349
  55   1.0000      -0.503243       -13.6939
  56   1.0000      -0.486785       -13.2461
  57   1.0000      -0.425836       -11.5876
  58   1.0000      -0.421599       -11.4723
  59   1.0000      -0.407114       -11.0781
  60   1.0000      -0.395695       -10.7674
  61   1.0000      -0.393529       -10.7085
  62   1.0000      -0.388427       -10.5696
  63   1.0000      -0.384839       -10.4720
  64   1.0000      -0.377878       -10.2826
  65   0.0000      -0.066429        -1.8076
  66   0.0000      -0.045489        -1.2378
  67   0.0000       0.006321         0.1720
  68   0.0000       0.029250         0.7959
  69   0.0000       0.032286         0.8785

----------------------------------------------------------------------------------------------------
          SPIN FLIP ABSORPTION SPECTRUM VIA TRANSITION ELECTRIC DIPOLE MOMENTS
----------------------------------------------------------------------------------------------------
     Transition      Energy     Energy  Wavelength fosc(D2)      D2        DX        DY        DZ
                      (eV)      (cm-1)    (nm)                 (au**2)    (au)      (au)      (au)
----------------------------------------------------------------------------------------------------
  1-3A  ->  2-3A    0.128081    1033.0  9680.1   0.000048018   0.01530  -0.09865   0.03227  -0.06731
  1-3A  ->  3-3A    2.077469   16755.9   596.8   0.003531952   0.06939  -0.06548   0.12490  -0.22250

Dispersion correction             ... done (  0.1 sec)

MULLIKEN ATOMIC CHARGES AND SPIN DENSITIES
------------------------------------------
   0 O :   -0.688026    0.024628
   1 O :   -0.689489   -0.034693
   2 O :   -0.613265    0.000173
   3 O :   -0.628040    0.000576
   4 N :   -0.193733   -0.010448
   5 N :   -0.285179   -0.004308
   6 N :   -0.123781    0.004026
   7 N :    0.089419   -0.001084
   8 C :    0.342623    0.326242
   9 C :    0.814545    0.358492
  10 C :    0.224891   -0.094261
  11 C :    0.245273   -0.264609
  12 C :   -1.429002   -0.014456
  13 C :   -1.415710    0.010388
  14 C :    0.261044   -0.095137
  15 C :    0.068930   -0.255758
  16 C :    0.394174    0.002593
  17 C :    0.271473    0.012344
  18 H :    0.503537    0.003245
  19 H :    0.489844    0.003657
  20 H :    0.296903    0.009994
  21 H :    0.370325   -0.000517
  22 H :    0.369467    0.013359
  23 H :    0.248003    0.003663
  24 H :    0.338825   -0.004989
  25 H :    0.318532    0.004820
  26 H :    0.092813   -0.001864
  27 H :    0.084384    0.002238
  28 H :    0.144120    0.000420
  29 H :    0.097101    0.001268
Sum of atomic charges       :   -0.0000000

LOEWDIN ATOMIC CHARGES AND SPIN DENSITIES
-----------------------------------------
   0 O :    0.071301    0.020094
   1 O :    0.073227   -0.029544
   2 O :    0.100922    0.000164
   3 O :    0.091373    0.000404
   4 N :    0.291593   -0.001012
   5 N :    0.272950   -0.000199
   6 N :    0.297721    0.002195
   7 N :    0.330232   -0.006086
   8 C :   -0.074474    0.101565
   9 C :   -0.004214   -0.081252
  10 C :   -0.119379    0.003633
  11 C :   -0.143057   -0.005966
  12 C :    0.174730    0.016567
  13 C :    0.211942   -0.013782
  14 C :   -0.491856    0.011687
  15 C :   -0.388850   -0.020440
  16 C :   -0.435791   -0.000400
  17 C :   -0.456602   -0.000139
  18 H :    0.069121    0.001382
  19 H :    0.087152   -0.001756
  20 H :   -0.013917    0.004254
  21 H :    0.017180   -0.000219
  22 H :    0.040969    0.005884
  23 H :    0.003276   -0.004090
  24 H :    0.036690   -0.002405
  25 H :   -0.034776   -0.000109
  26 H :   -0.016290   -0.000003
  27 H :   -0.024647    0.000112
  28 H :    0.076007    0.000104
  29 H :   -0.042532   -0.000645

  Mayer bond orders larger than 0.100000
B(  0-O , 14-C ) :   1.4404 B(  1-O , 15-C ) :   1.2395 B(  2-O , 16-C ) :   1.5797
B(  3-O , 17-C ) :   1.6185 B(  4-N ,  8-C ) :   0.1401 B(  4-N , 10-C ) :   0.5312
B(  4-N , 16-C ) :   1.1074 B(  4-N , 26-H ) :   1.0085 B(  5-N ,  9-C ) :   0.2413
B(  5-N , 10-C ) :   0.1033 B(  5-N , 11-C ) :   0.1253 B(  5-N , 17-C ) :   1.1691
B(  5-N , 27-H ) :   1.0609 B(  6-N ,  8-C ) :  -0.1409 B(  6-N , 14-C ) :   1.1339
B(  6-N , 16-C ) :   0.9347 B(  6-N , 28-H ) :   1.0346 B(  7-N , 15-C ) :   1.0963
B(  7-N , 17-C ) :   0.9782 B(  7-N , 29-H ) :   0.9776 B(  8-C ,  9-C ) :   0.1087
B(  8-C , 10-C ) :   0.5300 B(  8-C , 11-C ) :   0.2597 B(  8-C , 12-C ) :   0.2395
B(  8-C , 14-C ) :   0.6901 B(  8-C , 16-C ) :   0.1036 B(  8-C , 18-H ) :  -0.1722
B(  8-C , 21-H ) :  -0.1566 B(  9-C , 10-C ) :   0.1533 B(  9-C , 11-C ) :   0.2566
B(  9-C , 13-C ) :   0.2266 B(  9-C , 15-C ) :   0.8401 B(  9-C , 19-H ) :  -0.1306
B(  9-C , 25-H ) :  -0.1377 B( 10-C , 11-C ) :   0.6974 B( 10-C , 16-C ) :  -0.1291
B( 10-C , 18-H ) :   0.8292 B( 10-C , 19-H ) :  -0.1077 B( 11-C , 13-C ) :  -0.2420
B( 11-C , 17-C ) :  -0.2746 B( 11-C , 19-H ) :   0.8951 B( 12-C , 20-H ) :   0.8974
B( 12-C , 21-H ) :   1.0442 B( 12-C , 22-H ) :   0.8798 B( 13-C , 23-H ) :   0.8801
B( 13-C , 24-H ) :   0.9825 B( 13-C , 25-H ) :   1.0768 B( 15-C , 17-C ) :  -0.1196

Dispersion correction           -0.059658535
FINAL SINGLE POINT ENERGY      -908.775983625469

DIPOLE MOMENT
-------------

Method             : TDA/CIS
Type of density    : Electron Density
Level              : Relaxed density
State              :   2
Multiplicity       :   3
Irrep              :   0
Energy             :     0.0000000000000000 Eh
Relativity type    :
Basis              : AO
                                X                 Y                 Z
Electronic contribution:     -4.716119892      -8.748243690      -6.137098777
Nuclear contribution   :      4.710216847      10.043877489       8.568006232
                        -----------------------------------------
Total Dipole Moment    :     -0.005903045       1.295633799       2.430907455
                        -----------------------------------------
Magnitude (a.u.)       :      2.754634793
Magnitude (Debye)      :      7.001725207

Rotational constants in cm-1:             0.021999             0.012223             0.011646
Rotational constants in MHz :           659.501692           366.434331           349.139748

                             ****ORCA TERMINATED NORMALLY****
TOTAL RUN TIME: 0 days 0 hours 5 minutes 2 seconds 725 msec
