                         Program Version 6.0.0  -   RELEASE  -
|  1> ! Engrad def2-TZVPPD wB97M-D3BJ
|  2> %pal nprocs 8 end%pal nprocs 64 end
|  3> %tddft
|  4>  Iroot 2 Nroots 3
|  5> sf true
|  6> end
|  7> *xyz 0 3
|  8> O   1.23905542 -0.71871311 4.541e-05
|  9> C   0.39544599 0.19146363 0.59676097
| 10> C   -0.50611363 0.78767245 -0.3750332
| 11> H   0.99529681 1.04315433 1.03605324
| 12> H   -0.28427771 -0.37329515 1.28407297
| 13> H   -0.76570413 1.8401152 -0.45893496
| 14> H   -0.81557627 0.13876362 -1.31736131
| 15> *
| 16>
| 17>                          ****END OF INPUT****

CARTESIAN COORDINATES (ANGSTROEM)
---------------------------------
  O      1.239055   -0.718713    0.000045
  C      0.395446    0.191464    0.596761
  C     -0.506114    0.787672   -0.375033
  H      0.995297    1.043154    1.036053
  H     -0.284278   -0.373295    1.284073
  H     -0.765704    1.840115   -0.458935
  H     -0.815576    0.138764   -1.317361

 Total Charge           Charge          ....    0
 Multiplicity           Mult            ....    3
 Number of Electrons    NEL             ....   24
 Basis Dimension        Dim             ....  182

ORBITAL ENERGIES
----------------
                 SPIN UP ORBITALS
  NO   OCC          E(Eh)            E(eV)
   0   1.0000     -19.391778      -527.6771
   1   1.0000     -10.417770      -283.4819
   2   1.0000     -10.377263      -282.3797
   3   1.0000      -1.169939       -31.8357
   4   1.0000      -0.883106       -24.0305
   5   1.0000      -0.721553       -19.6344
   6   1.0000      -0.616985       -16.7890
   7   1.0000      -0.592544       -16.1239
   8   1.0000      -0.559896       -15.2355
   9   1.0000      -0.489490       -13.3197
  10   1.0000      -0.450532       -12.2596
  11   1.0000      -0.416797       -11.3416
  12   1.0000      -0.320959        -8.7337
  13   0.0000       0.042033         1.1438
  14   0.0000       0.060851         1.6558
  15   0.0000       0.077284         2.1030
  16   0.0000       0.086164         2.3446
  17   0.0000       0.109693         2.9849

                 SPIN DOWN ORBITALS
  NO   OCC          E(Eh)            E(eV)
   0   1.0000     -19.367870      -527.0265
   1   1.0000     -10.419065      -283.5172
   2   1.0000     -10.362886      -281.9885
   3   1.0000      -1.115570       -30.3562
   4   1.0000      -0.848633       -23.0925
   5   1.0000      -0.692525       -18.8446
   6   1.0000      -0.596457       -16.2304
   7   1.0000      -0.546728       -14.8772
   8   1.0000      -0.528293       -14.3756
   9   1.0000      -0.474130       -12.9017
  10   1.0000      -0.386544       -10.5184
  11   0.0000      -0.057538        -1.5657
  12   0.0000       0.002244         0.0611
  13   0.0000       0.041704         1.1348
  14   0.0000       0.061812         1.6820
  15   0.0000       0.077513         2.1092

----------------------------------------------------------------------------------------------------
          SPIN FLIP ABSORPTION SPECTRUM VIA TRANSITION ELECTRIC DIPOLE MOMENTS
----------------------------------------------------------------------------------------------------
     Transition      Energy     Energy  Wavelength fosc(D2)      D2        DX        DY        DZ
                      (eV)      (cm-1)    (nm)                 (au**2)    (au)      (au)      (au)
----------------------------------------------------------------------------------------------------
  1-3A  ->  2-3A    0.348376    2809.8  3558.9   0.000089594   0.01050  -0.01898   0.09823   0.02208
  1-3A  ->  3-1A    1.139668    9192.0  1087.9   0.072606153   2.60038   1.26098  -0.97532   0.24301

Dispersion correction             ... done (  0.1 sec)

MULLIKEN ATOMIC CHARGES AND SPIN DENSITIES
------------------------------------------
   0 O :   -0.327156    0.720599
   1 C :   -0.069682   -0.004567
   2 C :   -0.290627   -0.577622
   3 H :    0.224947   -0.022101
   4 H :    0.179794   -0.003359
   5 H :    0.123512   -0.068696
   6 H :    0.159210   -0.044254
Sum of atomic charges       :   -0.0000000

LOEWDIN ATOMIC CHARGES AND SPIN DENSITIES
-----------------------------------------
   0 O :    0.050816    0.675488
   1 C :   -0.293282   -0.026493
   2 C :    0.220170   -0.536052
   3 H :    0.044353   -0.009533
   4 H :    0.052714    0.017108
   5 H :   -0.082339   -0.071847
   6 H :    0.007569   -0.048670

  Mayer bond orders larger than 0.100000
B(  0-O ,  1-C ) :   0.8880 B(  1-C ,  2-C ) :   0.9097 B(  1-C ,  3-H ) :   0.9424
B(  1-C ,  4-H ) :   0.9326 B(  2-C ,  5-H ) :   1.0431 B(  2-C ,  6-H ) :   0.9946

Dispersion correction           -0.005534738
FINAL SINGLE POINT ENERGY      -153.739573200317

DIPOLE MOMENT
-------------

Method             : TDA/CIS
Type of density    : Electron Density
Level              : Relaxed density
State              :   2
Multiplicity       :   3
Irrep              :   0
Energy             :     0.0000000000000000 Eh
Relativity type    :
Basis              : AO
                                X                 Y                 Z
Electronic contribution:      1.941445076      -1.805801349       0.127244618
Nuclear contribution   :     -2.304789360       2.223634899       0.235506062
                        -----------------------------------------
Total Dipole Moment    :     -0.363344283       0.417833550       0.362750680
                        -----------------------------------------
Magnitude (a.u.)       :      0.661960724
Magnitude (Debye)      :      1.682570444

Rotational constants in cm-1:             1.384744             0.365357             0.315378
Rotational constants in MHz :         41513.566304         10953.119084          9454.780540

                             ****ORCA TERMINATED NORMALLY****
TOTAL RUN TIME: 0 days 0 hours 0 minutes 27 seconds 323 msec
