                         Program Version 6.0.0  -   RELEASE  -
|  1> ! Engrad def2-TZVPPD wB97M-D3BJ
|  2> %pal nprocs 8 end%pal nprocs 64 end
|  3> %tddft
|  4>  Iroot 2 Nroots 3
|  5> sf true
|  6> end
|  7> *xyz 0 3
|  8> O   3.44001106 -1.20887051 -1.93691857
|  9> O   -2.16862106 1.88332458 -1.34541914
| 10> O   -1.04576663 -1.99658866 -1.78957952
| 11> O   -3.09846694 0.50348256 2.83205413
| 12> N   0.06163205 -1.70475045 0.24470781
| 13> N   -0.90771684 0.3305109 2.13045692
| 14> N   1.11659676 -1.50784311 -1.84626862
| 15> N   -2.56377848 1.02870367 0.70692222
| 16> C   2.22607732 -0.50664411 0.0409419
| 17> C   -0.34930406 1.30125566 -0.02250073
| 18> C   0.96226681 -0.69404538 0.77600569
| 19> C   0.13662541 0.56014193 1.1192534
| 20> C   3.47062837 0.11119281 0.72539376
| 21> C   0.55715906 1.92917752 -1.08409828
| 22> C   2.3515094 -1.07562219 -1.34207993
| 23> C   -1.71267541 1.40041302 -0.29705397
| 24> C   -0.03334396 -1.77051081 -1.14502878
| 25> C   -2.25969068 0.55656095 1.95008544
| 26> H   1.34911174 -1.09506105 1.70157465
| 27> H   0.7870445 1.28889859 1.68372737
| 28> H   3.16544289 0.93541484 1.39407155
| 29> H   4.15826676 -0.60556428 1.20352899
| 30> H   4.12114062 0.57971332 -0.01400269
| 31> H   0.32769724 1.51117262 -2.02488023
| 32> H   0.31235654 2.90484961 -1.30049737
| 33> H   1.56009639 1.82157513 -0.84218785
| 34> H   -0.84716087 -1.55283063 0.61040884
| 35> H   -0.64140266 0.25640841 3.0967399
| 36> H   1.20009804 -1.76941679 -2.8668246
| 37> H   -3.53674218 1.17496701 0.56852916
| 38> *
| 39>
| 40>                          ****END OF INPUT****

CARTESIAN COORDINATES (ANGSTROEM)
---------------------------------
  O      3.440011   -1.208871   -1.936919
  O     -2.168621    1.883325   -1.345419
  O     -1.045767   -1.996589   -1.789580
  O     -3.098467    0.503483    2.832054
  N      0.061632   -1.704750    0.244708
  N     -0.907717    0.330511    2.130457
  N      1.116597   -1.507843   -1.846269
  N     -2.563778    1.028704    0.706922
  C      2.226077   -0.506644    0.040942
  C     -0.349304    1.301256   -0.022501
  C      0.962267   -0.694045    0.776006
  C      0.136625    0.560142    1.119253
  C      3.470628    0.111193    0.725394
  C      0.557159    1.929178   -1.084098
  C      2.351509   -1.075622   -1.342080
  C     -1.712675    1.400413   -0.297054
  C     -0.033344   -1.770511   -1.145029
  C     -2.259691    0.556561    1.950085
  H      1.349112   -1.095061    1.701575
  H      0.787044    1.288899    1.683727
  H      3.165443    0.935415    1.394072
  H      4.158267   -0.605564    1.203529
  H      4.121141    0.579713   -0.014003
  H      0.327697    1.511173   -2.024880
  H      0.312357    2.904850   -1.300497
  H      1.560096    1.821575   -0.842188
  H     -0.847161   -1.552831    0.610409
  H     -0.641403    0.256408    3.096740
  H      1.200098   -1.769417   -2.866825
  H     -3.536742    1.174967    0.568529

 Total Charge           Charge          ....    0
 Multiplicity           Mult            ....    3
 Number of Electrons    NEL             ....  132
 Basis Dimension        Dim             ....  882

ORBITAL ENERGIES
----------------
                 SPIN UP ORBITALS
  NO   OCC          E(Eh)            E(eV)
   0   1.0000     -19.345257      -526.4112
   1   1.0000     -19.331219      -526.0292
   2   1.0000     -19.325881      -525.8840
   3   1.0000     -19.325021      -525.8605
   4   1.0000     -14.574580      -396.5945
   5   1.0000     -14.571061      -396.4987
   6   1.0000     -14.564484      -396.3198
   7   1.0000     -14.564390      -396.3172
   8   1.0000     -10.512386      -286.0566
   9   1.0000     -10.511719      -286.0384
  10   1.0000     -10.496075      -285.6127
  11   1.0000     -10.476089      -285.0689
  12   1.0000     -10.457703      -284.5686
  13   1.0000     -10.446720      -284.2697
  14   1.0000     -10.433806      -283.9183
  15   1.0000     -10.421243      -283.5764
  16   1.0000     -10.389096      -282.7017
  17   1.0000     -10.362333      -281.9734
  18   1.0000      -1.223825       -33.3020
  19   1.0000      -1.218888       -33.1676
  20   1.0000      -1.189449       -32.3665
  21   1.0000      -1.187935       -32.3253
  22   1.0000      -1.127155       -30.6714
  23   1.0000      -1.104709       -30.0607
  24   1.0000      -1.074309       -29.2334
  25   1.0000      -1.062474       -28.9114
  26   1.0000      -0.989739       -26.9322
  27   1.0000      -0.961142       -26.1540
  28   1.0000      -0.894865       -24.3505
  29   1.0000      -0.856770       -23.3139
  30   1.0000      -0.835777       -22.7426
  31   1.0000      -0.802973       -21.8500
  32   1.0000      -0.797725       -21.7072
  33   1.0000      -0.795177       -21.6379
  34   1.0000      -0.711361       -19.3571
  35   1.0000      -0.702111       -19.1054
  36   1.0000      -0.692140       -18.8341
  37   1.0000      -0.685480       -18.6529
  38   1.0000      -0.659553       -17.9473
  39   1.0000      -0.635541       -17.2939
  40   1.0000      -0.625991       -17.0341
  41   1.0000      -0.606202       -16.4956
  42   1.0000      -0.602437       -16.3932
  43   1.0000      -0.588032       -16.0012
  44   1.0000      -0.579004       -15.7555
  45   1.0000      -0.574324       -15.6281
  46   1.0000      -0.568503       -15.4697
  47   1.0000      -0.565033       -15.3753
  48   1.0000      -0.562426       -15.3044
  49   1.0000      -0.558858       -15.2073
  50   1.0000      -0.555618       -15.1191
  51   1.0000      -0.531630       -14.4664
  52   1.0000      -0.531025       -14.4499
  53   1.0000      -0.524787       -14.2802
  54   1.0000      -0.515532       -14.0283
  55   1.0000      -0.511186       -13.9101
  56   1.0000      -0.509342       -13.8599
  57   1.0000      -0.430375       -11.7111
  58   1.0000      -0.419562       -11.4169
  59   1.0000      -0.414301       -11.2737
  60   1.0000      -0.410397       -11.1675
  61   1.0000      -0.404587       -11.0094
  62   1.0000      -0.398790       -10.8516
  63   1.0000      -0.392817       -10.6891
  64   1.0000      -0.391860       -10.6631
  65   1.0000      -0.357841        -9.7373
  66   1.0000      -0.330773        -9.0008
  67   0.0000       0.006331         0.1723
  68   0.0000       0.028928         0.7872
  69   0.0000       0.031167         0.8481
  70   0.0000       0.033933         0.9234
  71   0.0000       0.049273         1.3408

                 SPIN DOWN ORBITALS
  NO   OCC          E(Eh)            E(eV)
   0   1.0000     -19.341389      -526.3059
   1   1.0000     -19.326128      -525.8907
   2   1.0000     -19.325758      -525.8806
   3   1.0000     -19.324945      -525.8585
   4   1.0000     -14.573848      -396.5746
   5   1.0000     -14.571036      -396.4980
   6   1.0000     -14.564428      -396.3182
   7   1.0000     -14.563640      -396.2968
   8   1.0000     -10.512446      -286.0582
   9   1.0000     -10.511762      -286.0396
  10   1.0000     -10.497168      -285.6425
  11   1.0000     -10.477138      -285.0974
  12   1.0000     -10.457264      -284.5566
  13   1.0000     -10.446349      -284.2596
  14   1.0000     -10.422049      -283.5984
  15   1.0000     -10.410329      -283.2795
  16   1.0000     -10.389699      -282.7181
  17   1.0000     -10.362586      -281.9803
  18   1.0000      -1.222371       -33.2624
  19   1.0000      -1.217858       -33.1396
  20   1.0000      -1.183475       -32.2040
  21   1.0000      -1.182859       -32.1872
  22   1.0000      -1.124546       -30.6005
  23   1.0000      -1.102465       -29.9996
  24   1.0000      -1.071946       -29.1691
  25   1.0000      -1.060866       -28.8676
  26   1.0000      -0.977181       -26.5904
  27   1.0000      -0.943640       -25.6778
  28   1.0000      -0.888759       -24.1844
  29   1.0000      -0.851684       -23.1755
  30   1.0000      -0.827781       -22.5251
  31   1.0000      -0.797789       -21.7089
  32   1.0000      -0.796019       -21.6608
  33   1.0000      -0.792438       -21.5633
  34   1.0000      -0.705932       -19.2094
  35   1.0000      -0.697396       -18.9771
  36   1.0000      -0.686174       -18.6717
  37   1.0000      -0.678074       -18.4513
  38   1.0000      -0.647516       -17.6198
  39   1.0000      -0.631062       -17.1721
  40   1.0000      -0.620855       -16.8943
  41   1.0000      -0.601004       -16.3541
  42   1.0000      -0.596536       -16.2326
  43   1.0000      -0.583012       -15.8646
  44   1.0000      -0.571529       -15.5521
  45   1.0000      -0.566957       -15.4277
  46   1.0000      -0.564119       -15.3504
  47   1.0000      -0.561343       -15.2749
  48   1.0000      -0.552547       -15.0356
  49   1.0000      -0.550741       -14.9864
  50   1.0000      -0.545131       -14.8338
  51   1.0000      -0.525056       -14.2875
  52   1.0000      -0.523585       -14.2475
  53   1.0000      -0.515634       -14.0311
  54   1.0000      -0.509293       -13.8586
  55   1.0000      -0.505606       -13.7582
  56   1.0000      -0.500521       -13.6199
  57   1.0000      -0.427196       -11.6246
  58   1.0000      -0.416102       -11.3227
  59   1.0000      -0.405630       -11.0378
  60   1.0000      -0.400222       -10.8906
  61   1.0000      -0.393209       -10.6998
  62   1.0000      -0.389311       -10.5937
  63   1.0000      -0.387674       -10.5492
  64   1.0000      -0.386265       -10.5108
  65   0.0000      -0.073597        -2.0027
  66   0.0000      -0.052956        -1.4410
  67   0.0000       0.006031         0.1641
  68   0.0000       0.028781         0.7832
  69   0.0000       0.031527         0.8579

----------------------------------------------------------------------------------------------------
          SPIN FLIP ABSORPTION SPECTRUM VIA TRANSITION ELECTRIC DIPOLE MOMENTS
----------------------------------------------------------------------------------------------------
     Transition      Energy     Energy  Wavelength fosc(D2)      D2        DX        DY        DZ
                      (eV)      (cm-1)    (nm)                 (au**2)    (au)      (au)      (au)
----------------------------------------------------------------------------------------------------
  1-3A  ->  2-3A    0.132522    1068.9  9355.7   0.000035993   0.01109  -0.08988   0.03905   0.03851
  1-3A  ->  3-3A    2.012110   16228.8   616.2   0.000471027   0.00956   0.08418  -0.03358   0.03663

Dispersion correction             ... done (  0.1 sec)

MULLIKEN ATOMIC CHARGES AND SPIN DENSITIES
------------------------------------------
   0 O :   -0.670769   -0.059716
   1 O :   -0.703377    0.074054
   2 O :   -0.642533    0.000841
   3 O :   -0.655245    0.000240
   4 N :   -0.338278   -0.011912
   5 N :   -0.189372    0.003634
   6 N :   -0.011420   -0.013113
   7 N :   -0.009863    0.010867
   8 C :    0.641584    0.332609
   9 C :    0.417377    0.373763
  10 C :    0.009332   -0.276965
  11 C :    0.201625   -0.141993
  12 C :   -1.453774   -0.000575
  13 C :   -1.800692   -0.011992
  14 C :    0.163264   -0.293535
  15 C :    0.482482   -0.051504
  16 C :    0.421979    0.024304
  17 C :    0.498049    0.005185
  18 H :    0.384199   -0.024053
  19 H :    0.618509    0.023063
  20 H :    0.335724    0.004890
  21 H :    0.379271   -0.001677
  22 H :    0.308953    0.001390
  23 H :    0.357551    0.014529
  24 H :    0.438160    0.009370
  25 H :    0.437266    0.002588
  26 H :    0.197642    0.000650
  27 H :    0.051103   -0.000168
  28 H :    0.121230    0.004636
  29 H :    0.010021    0.000589
Sum of atomic charges       :    0.0000000

LOEWDIN ATOMIC CHARGES AND SPIN DENSITIES
-----------------------------------------
   0 O :    0.053228   -0.051345
   1 O :    0.087769    0.063943
   2 O :    0.087699    0.001105
   3 O :    0.085115    0.000146
   4 N :    0.308535   -0.001253
   5 N :    0.286858   -0.001660
   6 N :    0.290736   -0.012201
   7 N :    0.334150    0.009404
   8 C :    0.003286   -0.189564
   9 C :    0.008088    0.184139
  10 C :   -0.145977   -0.018115
  11 C :   -0.123470    0.019095
  12 C :    0.194834   -0.022494
  13 C :    0.272784    0.017577
  14 C :   -0.369637   -0.031362
  15 C :   -0.406055    0.031081
  16 C :   -0.469729    0.000180
  17 C :   -0.474454    0.000097
  18 H :    0.046528   -0.006486
  19 H :    0.081556    0.009851
  20 H :   -0.004847   -0.001246
  21 H :    0.012440   -0.007545
  22 H :   -0.007848   -0.001569
  23 H :   -0.005133    0.006917
  24 H :   -0.030208    0.004669
  25 H :   -0.039927   -0.003592
  26 H :   -0.073110    0.000120
  27 H :   -0.029080   -0.000175
  28 H :    0.043482   -0.000644
  29 H :   -0.017615    0.000930

  Mayer bond orders larger than 0.100000
B(  0-O , 14-C ) :   1.3789 B(  1-O , 13-C ) :   0.1225 B(  1-O , 15-C ) :   1.1743
B(  2-O , 16-C ) :   1.5223 B(  3-O , 17-C ) :   1.6156 B(  4-N ,  8-C ) :   0.1971
B(  4-N , 10-C ) :   0.2623 B(  4-N , 11-C ) :   0.1091 B(  4-N , 16-C ) :   1.0692
B(  4-N , 18-H ) :  -0.1622 B(  4-N , 26-H ) :   0.8508 B(  5-N , 10-C ) :   0.3181
B(  5-N , 11-C ) :   0.3118 B(  5-N , 17-C ) :   1.0879 B(  5-N , 27-H ) :   1.1324
B(  6-N ,  8-C ) :  -0.1007 B(  6-N , 10-C ) :   0.1169 B(  6-N , 14-C ) :   1.0786
B(  6-N , 16-C ) :   0.9211 B(  6-N , 28-H ) :   1.0473 B(  7-N , 15-C ) :   0.9925
B(  7-N , 17-C ) :   0.9639 B(  7-N , 29-H ) :   1.1219 B(  8-C , 10-C ) :   0.6210
B(  8-C , 11-C ) :   0.1670 B(  8-C , 12-C ) :   0.4270 B(  8-C , 14-C ) :   0.6531
B(  8-C , 16-C ) :   0.1140 B(  8-C , 18-H ) :  -0.1325 B(  8-C , 20-H ) :  -0.1018
B(  9-C , 10-C ) :   0.1678 B(  9-C , 11-C ) :   0.5158 B(  9-C , 15-C ) :   1.0707
B(  9-C , 19-H ) :  -0.2468 B(  9-C , 25-H ) :  -0.1258 B( 10-C , 11-C ) :   0.4843
B( 10-C , 12-C ) :  -0.1653 B( 10-C , 18-H ) :   1.0342 B( 11-C , 13-C ) :  -0.1362
B( 11-C , 15-C ) :  -0.1329 B( 11-C , 17-C ) :  -0.1245 B( 11-C , 19-H ) :   0.8096
B( 12-C , 14-C ) :  -0.1017 B( 12-C , 20-H ) :   0.9611 B( 12-C , 21-H ) :   0.8384
B( 12-C , 22-H ) :   1.0318 B( 13-C , 23-H ) :   0.9279 B( 13-C , 24-H ) :   0.8596
B( 13-C , 25-H ) :   0.8786

Dispersion correction           -0.057665361
FINAL SINGLE POINT ENERGY      -908.766332714124

DIPOLE MOMENT
-------------

Method             : TDA/CIS
Type of density    : Electron Density
Level              : Relaxed density
State              :   2
Multiplicity       :   3
Irrep              :   0
Energy             :     0.0000000000000000 Eh
Relativity type    :
Basis              : AO
                                X                 Y                 Z
Electronic contribution:     -9.393431992      -4.864479346      -1.756315158
Nuclear contribution   :     11.241828154       5.621404316       3.283490017
                        -----------------------------------------
Total Dipole Moment    :      1.848396163       0.756924970       1.527174859
                        -----------------------------------------
Magnitude (a.u.)       :      2.514312398
Magnitude (Debye)      :      6.390874225

Rotational constants in cm-1:             0.023864             0.010748             0.010088
Rotational constants in MHz :           715.436958           322.224084           302.445072

                             ****ORCA TERMINATED NORMALLY****
TOTAL RUN TIME: 0 days 0 hours 4 minutes 51 seconds 523 msec
