                         Program Version 6.0.0  -   RELEASE  -
|  1> ! Engrad wB97M-D3BJ def2-TZVPPD
|  2> %pal nprocs 8 end%pal nprocs 16 end
|  3> %tddft nroots 2 Iroot 2
|  4>  sf true
|  5> end
|  6> *xyz 0 3
|  7> O   0.08703698023762 0.82119148164923 -4.900663452e-05
|  8> C   0.72545925786061 -0.41335718904236 7.386647772e-05
|  9> C   -0.71014753615707 -0.46151098505285 -0.00010047772158
| 10> H   1.26312971663317 -0.66570195551132 0.90947203131602
| 11> H   1.26300139964005 -0.66599183092023 -0.90934859935627
| 12> H   -1.24561678596121 -0.62973397057627 -0.92197354424539
| 13> H   -1.24540305615724 -0.62971940529628 0.92192573016402
| 14> *
| 15>
| 16>                          ****END OF INPUT****

CARTESIAN COORDINATES (ANGSTROEM)
---------------------------------
  O      0.087037    0.821191   -0.000049
  C      0.725459   -0.413357    0.000074
  C     -0.710148   -0.461511   -0.000100
  H      1.263130   -0.665702    0.909472
  H      1.263001   -0.665992   -0.909349
  H     -1.245617   -0.629734   -0.921974
  H     -1.245403   -0.629719    0.921926

 Total Charge           Charge          ....    0
 Multiplicity           Mult            ....    3
 Number of Electrons    NEL             ....   24
 Basis Dimension        Dim             ....  182

ORBITAL ENERGIES
----------------
                 SPIN UP ORBITALS
  NO   OCC          E(Eh)            E(eV)
   0   1.0000     -19.481773      -530.1260
   1   1.0000     -10.429543      -283.8023
   2   1.0000     -10.380954      -282.4801
   3   1.0000      -1.307439       -35.5772
   4   1.0000      -0.868997       -23.6466
   5   1.0000      -0.789133       -21.4734
   6   1.0000      -0.696538       -18.9538
   7   1.0000      -0.658877       -17.9290
   8   1.0000      -0.581490       -15.8231
   9   1.0000      -0.514934       -14.0121
  10   1.0000      -0.505921       -13.7668
  11   1.0000      -0.478408       -13.0181
  12   1.0000      -0.136560        -3.7160
  13   0.0000       0.035257         0.9594
  14   0.0000       0.059362         1.6153
  15   0.0000       0.069492         1.8910
  16   0.0000       0.086849         2.3633
  17   0.0000       0.107390         2.9222

                 SPIN DOWN ORBITALS
  NO   OCC          E(Eh)            E(eV)
   0   1.0000     -19.449266      -529.2414
   1   1.0000     -10.429521      -283.8017
   2   1.0000     -10.373870      -282.2874
   3   1.0000      -1.241485       -33.7825
   4   1.0000      -0.836040       -22.7498
   5   1.0000      -0.771249       -20.9867
   6   1.0000      -0.639544       -17.4029
   7   1.0000      -0.627718       -17.0811
   8   1.0000      -0.543444       -14.7879
   9   1.0000      -0.491746       -13.3811
  10   1.0000      -0.451609       -12.2889
  11   0.0000      -0.126114        -3.4317
  12   0.0000       0.032895         0.8951
  13   0.0000       0.056360         1.5336
  14   0.0000       0.064209         1.7472
  15   0.0000       0.067116         1.8263

----------------------------------------------------------------------------------------------------
          SPIN FLIP ABSORPTION SPECTRUM VIA TRANSITION ELECTRIC DIPOLE MOMENTS
----------------------------------------------------------------------------------------------------
     Transition      Energy     Energy  Wavelength fosc(D2)      D2        DX        DY        DZ
                      (eV)      (cm-1)    (nm)                 (au**2)    (au)      (au)      (au)
----------------------------------------------------------------------------------------------------
  1-3A  ->  2-3A    6.647561   53616.2   186.5   0.000392913   0.00241   0.00005   0.00004  -0.04912

Dispersion correction             ... done (  0.0 sec)

MULLIKEN ATOMIC CHARGES AND SPIN DENSITIES
------------------------------------------
   0 O :    0.268702    1.097169
   1 C :   -0.951865   -1.087323
   2 C :   -1.403919   -1.233119
   3 H :    0.444893    0.280371
   4 H :    0.444991    0.280441
   5 H :    0.598505    0.331214
   6 H :    0.598692    0.331247
Sum of atomic charges       :    0.0000000

LOEWDIN ATOMIC CHARGES AND SPIN DENSITIES
-----------------------------------------
   0 O :    0.261915    0.474414
   1 C :   -0.137469   -0.135633
   2 C :   -0.067009   -0.185442
   3 H :    0.010808   -0.018628
   4 H :    0.010824   -0.018606
   5 H :   -0.039536   -0.058055
   6 H :   -0.039533   -0.058050

  Mayer bond orders larger than 0.100000
B(  0-O ,  1-C ) :   0.7931 B(  0-O ,  2-C ) :   0.5424 B(  1-C ,  2-C ) :   3.2152
B(  1-C ,  3-H ) :   0.6060 B(  1-C ,  4-H ) :   0.6060 B(  1-C ,  5-H ) :  -0.7351
B(  1-C ,  6-H ) :  -0.7350 B(  2-C ,  3-H ) :  -0.6535 B(  2-C ,  4-H ) :  -0.6539
B(  2-C ,  5-H ) :   0.2025 B(  2-C ,  6-H ) :   0.2024 B(  3-H ,  4-H ) :   0.1314
B(  3-H ,  5-H ) :   0.1398 B(  3-H ,  6-H ) :   0.2186 B(  4-H ,  5-H ) :   0.2187
B(  4-H ,  6-H ) :   0.1399 B(  5-H ,  6-H ) :   0.2262

Dispersion correction           -0.005234820
FINAL SINGLE POINT ENERGY      -153.627623609424

DIPOLE MOMENT
-------------

Method             : TDA/CIS
Type of density    : Electron Density
Level              : Relaxed density
State              :   2
Multiplicity       :   3
Irrep              :   0
Energy             :     0.0000000000000000 Eh
Relativity type    :
Basis              : AO
                                X                 Y                 Z
Electronic contribution:      0.498954215       1.869612157      -0.000149956
Nuclear contribution   :     -0.103616870      -2.420375462       0.000158089
                        -----------------------------------------
Total Dipole Moment    :      0.395337344      -0.550763306       0.000008132
                        -----------------------------------------
Magnitude (a.u.)       :      0.677961529
Magnitude (Debye)      :      1.723241258

Rotational constants in cm-1:             0.855063             0.735378             0.469872
Rotational constants in MHz :         25634.156161         22046.066952         14086.393672

                             ****ORCA TERMINATED NORMALLY****
TOTAL RUN TIME: 0 days 0 hours 0 minutes 20 seconds 639 msec
