                         Program Version 6.0.0  -   RELEASE  -
|  1> ! Engrad def2-TZVPPD wB97M-D3BJ
|  2> %pal nprocs 8 end%pal nprocs 64 end
|  3>  %tddft nroots 2 Iroot 2
|  4> sf true
|  5> end
|  6> *xyz 0 3
|  7> O   2.95814484262422 0.38236512740524 -1.13511271682549
|  8> O   -0.46571168562772 1.6720092296854 -2.1934008528666
|  9> O   0.42474828231353 -3.17398684312013 -0.09278903556951
| 10> O   -2.97189875409875 -1.73408409249114 -0.65768108694038
| 11> N   0.39254900343648 -1.43372804189828 1.36399876364689
| 12> N   -2.1617629974237 -0.26291831360636 0.874696887055
| 13> N   1.41854010104319 -1.2332548631482 -0.72671025752665
| 14> N   -1.44325978854601 -0.18517855314194 -1.32915233974102
| 15> C   1.65900885067017 0.58801076207979 0.8173106450875
| 16> C   -0.76435120272118 1.57944656797647 0.15823475395333
| 17> C   0.37120305660366 -0.018914885552 1.59191638296798
| 18> C   -1.14490787730552 0.66051503924813 1.26200621721472
| 19> C   2.4730107750918 1.62264237443324 1.47078973345062
| 20> C   -0.61899516144093 3.02903840670044 0.37400254953184
| 21> C   2.07906403709194 -0.0485847600722 -0.41334104155381
| 22> C   -0.85377425118721 1.06928164779505 -1.21524743288698
| 23> C   0.71213829789026 -2.02807232318306 0.16243985676053
| 24> C   -2.24847505444253 -0.80977289562149 -0.37946355992287
| 25> H   0.54314285423234 0.14944024221273 2.65620153646068
| 26> H   -1.46473418955505 1.20647047874866 2.14438949043971
| 27> H   3.35617334499454 1.84098230011745 0.87854055814167
| 28> H   1.90942817986932 2.55253399269336 1.609963120138
| 29> H   2.77089122899148 1.29660731805549 2.47256086321472
| 30> H   -1.59649432452128 3.46825525762833 0.6032410020224
| 31> H   0.01997901606448 3.24179010817166 1.23513515651931
| 32> H   -0.21627954947751 3.50780152286928 -0.51258734781783
| 33> H   -0.1662298183686 -2.0368896694046 1.94330602415425
| 34> H   -2.70975469237372 -0.7350363907963 1.57076066302127
| 35> H   1.72177428368273 -1.70037251938565 -1.56562936199054
| 36> H   -1.53056680751042 -0.55139622439943 -2.26377917013875
| 37> *
| 38>
| 39>                          ****END OF INPUT****

CARTESIAN COORDINATES (ANGSTROEM)
---------------------------------
  O      2.958145    0.382365   -1.135113
  O     -0.465712    1.672009   -2.193401
  O      0.424748   -3.173987   -0.092789
  O     -2.971899   -1.734084   -0.657681
  N      0.392549   -1.433728    1.363999
  N     -2.161763   -0.262918    0.874697
  N      1.418540   -1.233255   -0.726710
  N     -1.443260   -0.185179   -1.329152
  C      1.659009    0.588011    0.817311
  C     -0.764351    1.579447    0.158235
  C      0.371203   -0.018915    1.591916
  C     -1.144908    0.660515    1.262006
  C      2.473011    1.622642    1.470790
  C     -0.618995    3.029038    0.374003
  C      2.079064   -0.048585   -0.413341
  C     -0.853774    1.069282   -1.215247
  C      0.712138   -2.028072    0.162440
  C     -2.248475   -0.809773   -0.379464
  H      0.543143    0.149440    2.656202
  H     -1.464734    1.206470    2.144389
  H      3.356173    1.840982    0.878541
  H      1.909428    2.552534    1.609963
  H      2.770891    1.296607    2.472561
  H     -1.596494    3.468255    0.603241
  H      0.019979    3.241790    1.235135
  H     -0.216280    3.507802   -0.512587
  H     -0.166230   -2.036890    1.943306
  H     -2.709755   -0.735036    1.570761
  H      1.721774   -1.700373   -1.565629
  H     -1.530567   -0.551396   -2.263779

 Total Charge           Charge          ....    0
 Multiplicity           Mult            ....    3
 Number of Electrons    NEL             ....  132
 Basis Dimension        Dim             ....  882

ORBITAL ENERGIES
----------------
                 SPIN UP ORBITALS
  NO   OCC          E(Eh)            E(eV)
   0   1.0000     -19.331401      -526.0342
   1   1.0000     -19.330278      -526.0036
   2   1.0000     -19.317654      -525.6601
   3   1.0000     -19.315355      -525.5975
   4   1.0000     -14.564572      -396.3222
   5   1.0000     -14.558936      -396.1688
   6   1.0000     -14.558407      -396.1544
   7   1.0000     -14.557360      -396.1259
   8   1.0000     -10.503212      -285.8069
   9   1.0000     -10.500489      -285.7328
  10   1.0000     -10.477383      -285.1041
  11   1.0000     -10.477021      -285.0942
  12   1.0000     -10.451495      -284.3996
  13   1.0000     -10.445710      -284.2422
  14   1.0000     -10.424229      -283.6577
  15   1.0000     -10.409008      -283.2435
  16   1.0000     -10.373212      -282.2695
  17   1.0000     -10.371942      -282.2349
  18   1.0000      -1.219716       -33.1902
  19   1.0000      -1.214870       -33.0583
  20   1.0000      -1.195975       -32.5441
  21   1.0000      -1.193958       -32.4893
  22   1.0000      -1.115610       -30.3573
  23   1.0000      -1.095940       -29.8220
  24   1.0000      -1.064870       -28.9766
  25   1.0000      -1.054711       -28.7001
  26   1.0000      -0.976601       -26.5747
  27   1.0000      -0.947482       -25.7823
  28   1.0000      -0.881659       -23.9912
  29   1.0000      -0.835568       -22.7370
  30   1.0000      -0.827357       -22.5135
  31   1.0000      -0.803116       -21.8539
  32   1.0000      -0.786358       -21.3979
  33   1.0000      -0.774925       -21.0868
  34   1.0000      -0.698206       -18.9992
  35   1.0000      -0.692032       -18.8311
  36   1.0000      -0.687629       -18.7113
  37   1.0000      -0.657727       -17.8977
  38   1.0000      -0.652906       -17.7665
  39   1.0000      -0.643814       -17.5191
  40   1.0000      -0.615113       -16.7381
  41   1.0000      -0.603188       -16.4136
  42   1.0000      -0.588994       -16.0273
  43   1.0000      -0.583524       -15.8785
  44   1.0000      -0.580453       -15.7949
  45   1.0000      -0.570851       -15.5336
  46   1.0000      -0.564803       -15.3691
  47   1.0000      -0.558808       -15.2059
  48   1.0000      -0.556751       -15.1500
  49   1.0000      -0.548575       -14.9275
  50   1.0000      -0.546002       -14.8575
  51   1.0000      -0.538893       -14.6640
  52   1.0000      -0.534344       -14.5402
  53   1.0000      -0.524959       -14.2849
  54   1.0000      -0.511246       -13.9117
  55   1.0000      -0.504995       -13.7416
  56   1.0000      -0.485385       -13.2080
  57   1.0000      -0.421144       -11.4599
  58   1.0000      -0.415205       -11.2983
  59   1.0000      -0.409319       -11.1381
  60   1.0000      -0.406882       -11.0718
  61   1.0000      -0.391631       -10.6568
  62   1.0000      -0.391459       -10.6521
  63   1.0000      -0.386809       -10.5256
  64   1.0000      -0.382647       -10.4123
  65   1.0000      -0.345246        -9.3946
  66   1.0000      -0.311503        -8.4764
  67   0.0000       0.006294         0.1713
  68   0.0000       0.028906         0.7866
  69   0.0000       0.030147         0.8204
  70   0.0000       0.039807         1.0832
  71   0.0000       0.053612         1.4588

                 SPIN DOWN ORBITALS
  NO   OCC          E(Eh)            E(eV)
   0   1.0000     -19.326670      -525.9054
   1   1.0000     -19.326171      -525.8918
   2   1.0000     -19.317507      -525.6561
   3   1.0000     -19.315110      -525.5909
   4   1.0000     -14.564185      -396.3116
   5   1.0000     -14.558462      -396.1559
   6   1.0000     -14.558007      -396.1435
   7   1.0000     -14.557068      -396.1180
   8   1.0000     -10.503238      -285.8076
   9   1.0000     -10.500500      -285.7331
  10   1.0000     -10.478471      -285.1337
  11   1.0000     -10.477887      -285.1178
  12   1.0000     -10.450682      -284.3775
  13   1.0000     -10.445719      -284.2425
  14   1.0000     -10.412464      -283.3376
  15   1.0000     -10.397320      -282.9255
  16   1.0000     -10.373822      -282.2861
  17   1.0000     -10.372477      -282.2495
  18   1.0000      -1.218063       -33.1452
  19   1.0000      -1.212998       -33.0074
  20   1.0000      -1.191047       -32.4100
  21   1.0000      -1.188650       -32.3448
  22   1.0000      -1.113323       -30.2951
  23   1.0000      -1.093835       -29.7648
  24   1.0000      -1.063163       -28.9301
  25   1.0000      -1.053251       -28.6604
  26   1.0000      -0.961654       -26.1679
  27   1.0000      -0.930839       -25.3294
  28   1.0000      -0.877300       -23.8725
  29   1.0000      -0.830816       -22.6077
  30   1.0000      -0.818660       -22.2769
  31   1.0000      -0.797438       -21.6994
  32   1.0000      -0.784929       -21.3590
  33   1.0000      -0.773347       -21.0438
  34   1.0000      -0.692403       -18.8412
  35   1.0000      -0.684794       -18.6342
  36   1.0000      -0.681471       -18.5438
  37   1.0000      -0.651076       -17.7167
  38   1.0000      -0.645191       -17.5565
  39   1.0000      -0.636859       -17.3298
  40   1.0000      -0.613213       -16.6864
  41   1.0000      -0.598043       -16.2736
  42   1.0000      -0.582894       -15.8613
  43   1.0000      -0.574805       -15.6412
  44   1.0000      -0.570193       -15.5157
  45   1.0000      -0.563897       -15.3444
  46   1.0000      -0.560247       -15.2451
  47   1.0000      -0.553535       -15.0625
  48   1.0000      -0.552404       -15.0317
  49   1.0000      -0.541193       -14.7266
  50   1.0000      -0.537692       -14.6314
  51   1.0000      -0.530330       -14.4310
  52   1.0000      -0.526894       -14.3375
  53   1.0000      -0.514823       -14.0090
  54   1.0000      -0.500514       -13.6197
  55   1.0000      -0.499225       -13.5846
  56   1.0000      -0.479338       -13.0435
  57   1.0000      -0.416150       -11.3240
  58   1.0000      -0.411901       -11.2084
  59   1.0000      -0.402302       -10.9472
  60   1.0000      -0.397174       -10.8077
  61   1.0000      -0.385996       -10.5035
  62   1.0000      -0.382764       -10.4156
  63   1.0000      -0.377940       -10.2843
  64   1.0000      -0.369034       -10.0419
  65   0.0000      -0.069477        -1.8906
  66   0.0000      -0.027564        -0.7500
  67   0.0000       0.006041         0.1644
  68   0.0000       0.029005         0.7893
  69   0.0000       0.029848         0.8122

----------------------------------------------------------------------------------------------------
          SPIN FLIP ABSORPTION SPECTRUM VIA TRANSITION ELECTRIC DIPOLE MOMENTS
----------------------------------------------------------------------------------------------------
     Transition      Energy     Energy  Wavelength fosc(D2)      D2        DX        DY        DZ
                      (eV)      (cm-1)    (nm)                 (au**2)    (au)      (au)      (au)
----------------------------------------------------------------------------------------------------
  1-3A  ->  2-3A    0.432083    3485.0  2869.5   0.000016588   0.00157  -0.03714  -0.00274   0.01342

Dispersion correction             ... done (  0.1 sec)

MULLIKEN ATOMIC CHARGES AND SPIN DENSITIES
------------------------------------------
   0 O :   -0.679894   -0.015905
   1 O :   -0.681533    0.009030
   2 O :   -0.652649   -0.000037
   3 O :   -0.648568   -0.000035
   4 N :   -0.251622    0.000209
   5 N :   -0.241447   -0.000601
   6 N :    0.080791   -0.007103
   7 N :    0.054796    0.005020
   8 C :    0.824964    0.406896
   9 C :    0.767926    0.358596
  10 C :   -0.035052   -0.238404
  11 C :    0.112933   -0.100957
  12 C :   -1.221095    0.009114
  13 C :   -1.216326    0.003307
  14 C :   -0.100038   -0.295800
  15 C :    0.044516   -0.234221
  16 C :    0.419967    0.017572
  17 C :    0.387611    0.011591
  18 H :    0.530335    0.007130
  19 H :    0.481082    0.003507
  20 H :    0.329727   -0.006428
  21 H :    0.218761    0.028896
  22 H :    0.316457    0.009148
  23 H :    0.342670    0.010158
  24 H :    0.330270    0.011448
  25 H :    0.299466    0.001008
  26 H :    0.061452    0.001110
  27 H :    0.054549    0.000409
  28 H :    0.036417    0.003448
  29 H :    0.033535    0.001893
Sum of atomic charges       :    0.0000000

LOEWDIN ATOMIC CHARGES AND SPIN DENSITIES
-----------------------------------------
   0 O :    0.094524   -0.014675
   1 O :    0.096038    0.007811
   2 O :    0.094102    0.000144
   3 O :    0.098126    0.000211
   4 N :    0.257582   -0.000274
   5 N :    0.275720   -0.000319
   6 N :    0.323115   -0.003376
   7 N :    0.328131    0.000527
   8 C :    0.013811   -0.032780
   9 C :   -0.061776    0.054007
  10 C :   -0.021214   -0.001582
  11 C :   -0.076215    0.000211
  12 C :    0.183633   -0.006890
  13 C :    0.188907    0.006079
  14 C :   -0.422489   -0.011762
  15 C :   -0.413685    0.003146
  16 C :   -0.488885   -0.000099
  17 C :   -0.483768   -0.000208
  18 H :    0.032897   -0.000524
  19 H :    0.047620   -0.000281
  20 H :    0.001099    0.000124
  21 H :   -0.010993   -0.001643
  22 H :    0.011507   -0.001469
  23 H :    0.017500    0.002863
  24 H :   -0.014943    0.001057
  25 H :    0.003629    0.000028
  26 H :   -0.028616   -0.000085
  27 H :   -0.027809    0.000009
  28 H :   -0.009220   -0.000285
  29 H :   -0.008328    0.000037

  Mayer bond orders larger than 0.100000
B(  0-O , 14-C ) :   1.3499 B(  1-O , 15-C ) :   1.4039 B(  2-O , 16-C ) :   1.5045
B(  3-O , 17-C ) :   1.5401 B(  4-N ,  5-N ) :   0.1343 B(  4-N ,  8-C ) :   0.2242
B(  4-N , 10-C ) :   0.2664 B(  4-N , 16-C ) :   1.0777 B(  4-N , 26-H ) :   1.0705
B(  5-N ,  9-C ) :   0.2658 B(  5-N , 11-C ) :   0.2439 B(  5-N , 17-C ) :   1.1341
B(  5-N , 27-H ) :   1.0805 B(  6-N , 10-C ) :   0.1207 B(  6-N , 14-C ) :   1.0225
B(  6-N , 16-C ) :   0.9431 B(  6-N , 28-H ) :   1.1023 B(  7-N , 11-C ) :   0.1263
B(  7-N , 15-C ) :   0.9596 B(  7-N , 17-C ) :   0.9555 B(  7-N , 29-H ) :   1.1042
B(  8-C ,  9-C ) :   0.2167 B(  8-C , 10-C ) :   0.3103 B(  8-C , 12-C ) :   0.4691
B(  8-C , 14-C ) :   0.6600 B(  8-C , 20-H ) :  -0.1060 B(  9-C , 11-C ) :   0.5302
B(  9-C , 13-C ) :   0.5581 B(  9-C , 15-C ) :   0.6187 B(  9-C , 19-H ) :  -0.1049
B(  9-C , 25-H ) :  -0.1117 B( 10-C , 11-C ) :   0.6588 B( 10-C , 16-C ) :  -0.1126
B( 10-C , 18-H ) :   0.7470 B( 11-C , 17-C ) :  -0.1708 B( 11-C , 19-H ) :   0.8288
B( 12-C , 20-H ) :   0.9947 B( 12-C , 21-H ) :   0.9596 B( 12-C , 22-H ) :   0.9014
B( 13-C , 23-H ) :   0.8692 B( 13-C , 24-H ) :   0.8086 B( 13-C , 25-H ) :   1.0490
B( 14-C , 16-C ) :  -0.1061 B( 15-C , 17-C ) :  -0.1179

Dispersion correction           -0.059021304
FINAL SINGLE POINT ENERGY      -908.781014875155

DIPOLE MOMENT
-------------

Method             : TDA/CIS
Type of density    : Electron Density
Level              : Relaxed density
State              :   2
Multiplicity       :   3
Irrep              :   0
Energy             :     0.0000000000000000 Eh
Relativity type    :
Basis              : AO
                                X                 Y                 Z
Electronic contribution:     -2.867924973     -10.271285622      -7.344467471
Nuclear contribution   :      2.614612216      11.836162500      10.310012141
                        -----------------------------------------
Total Dipole Moment    :     -0.253312756       1.564876878       2.965544670
                        -----------------------------------------
Magnitude (a.u.)       :      3.362657012
Magnitude (Debye)      :      8.547194869

Rotational constants in cm-1:             0.018699             0.015899             0.012588
Rotational constants in MHz :           560.579273           476.641949           377.387392

                             ****ORCA TERMINATED NORMALLY****
TOTAL RUN TIME: 0 days 0 hours 4 minutes 37 seconds 68 msec
