                         Program Version 6.0.0  -   RELEASE  -
|  1> ! Engrad def2-TZVPPD wB97M-D3BJ
|  2> %pal nprocs 8 end%pal nprocs 64 end
|  3> %tddft
|  4> Iroot 0 Nroots 3
|  5> sf true
|  6> end
|  7> *xyz 0 3
|  8> O   2.5149342304960056 1.2122971417085089 -0.41033601268258496
|  9> O   -0.7222434458542769 0.8496450000448832 -2.357283313886575
| 10> O   0.5297454209191755 -2.7014478966146576 -1.538583962087879
| 11> O   -2.4507250189938037 -1.5493869646290643 1.067038350054696
| 12> N   0.629257949768122 -2.1230874692149744 0.6444726597696869
| 13> N   -1.9228081894611702 0.6089248289773793 1.4282242799846288
| 14> N   1.6165737004158849 -0.7939701026004279 -0.9356982571166333
| 15> N   -1.631185451575444 -0.31276492228833613 -0.649799524760672
| 16> C   1.5180014901307093 -0.022697029009684653 1.3210451583956948
| 17> C   -0.9036660019463865 1.9347042247744024 -0.2620472539925977
| 18> C   0.8757436164986557 -1.1671225839792778 1.5939009289070176
| 19> C   -1.321266727580963 1.754963042107427 0.9974568968389915
| 20> C   1.8351507975477903 0.9948261336908473 2.3410393746727074
| 21> C   -0.322909595881804 3.1939504227976085 -0.7525764896960102
| 22> C   1.940204511100881 0.21437106703985478 -0.045260981295149626
| 23> C   -1.0601814883428222 0.8305430501455568 -1.198179245510114
| 24> C   0.899516966453238 -1.9346494704386892 -0.6833738379177989
| 25> C   -2.0358771320309836 -0.49798367235544316 0.6431075659820882
| 26> H   0.5779846132768348 -1.4348110603127713 2.5940932538770007
| 27> H   -1.268721655609979 2.5431333417698467 1.7294192147693241
| 28> H   1.4341929827817446 1.9613848269860346 2.0475242557605946
| 29> H   1.4295932113175271 0.7401091104999209 3.3160585256292836
| 30> H   2.9039136850442766 1.1436913422479034 2.46553867215445
| 31> H   -0.9022025102874789 3.5573899291457907 -1.597177531695923
| 32> H   -0.28100082694505235 3.9691839446043513 0.004315535807501565
| 33> H   0.6900821755707427 3.0315063621744764 -1.11131211849038
| 34> H   0.005333236017979725 -2.883772864276696 0.8458079821623397
| 35> H   -2.210795627099625 0.5066321020557243 2.3822875626206335
| 36> H   1.7857788591583872 -0.6001492587968612 -1.9107847915471037
| 37> H   -1.6998237748881986 -1.110412576253694 -1.2643168967072254
| 38> *
| 39>
| 40>                          ****END OF INPUT****

CARTESIAN COORDINATES (ANGSTROEM)
---------------------------------
  O      2.514934    1.212297   -0.410336
  O     -0.722243    0.849645   -2.357283
  O      0.529745   -2.701448   -1.538584
  O     -2.450725   -1.549387    1.067038
  N      0.629258   -2.123087    0.644473
  N     -1.922808    0.608925    1.428224
  N      1.616574   -0.793970   -0.935698
  N     -1.631185   -0.312765   -0.649800
  C      1.518001   -0.022697    1.321045
  C     -0.903666    1.934704   -0.262047
  C      0.875744   -1.167123    1.593901
  C     -1.321267    1.754963    0.997457
  C      1.835151    0.994826    2.341039
  C     -0.322910    3.193950   -0.752576
  C      1.940205    0.214371   -0.045261
  C     -1.060181    0.830543   -1.198179
  C      0.899517   -1.934649   -0.683374
  C     -2.035877   -0.497984    0.643108
  H      0.577985   -1.434811    2.594093
  H     -1.268722    2.543133    1.729419
  H      1.434193    1.961385    2.047524
  H      1.429593    0.740109    3.316059
  H      2.903914    1.143691    2.465539
  H     -0.902203    3.557390   -1.597178
  H     -0.281001    3.969184    0.004316
  H      0.690082    3.031506   -1.111312
  H      0.005333   -2.883773    0.845808
  H     -2.210796    0.506632    2.382288
  H      1.785779   -0.600149   -1.910785
  H     -1.699824   -1.110413   -1.264317

 Total Charge           Charge          ....    0
 Multiplicity           Mult            ....    3
 Number of Electrons    NEL             ....  132
 Basis Dimension        Dim             ....  882

ORBITAL ENERGIES
----------------
                 SPIN UP ORBITALS
  NO   OCC          E(Eh)            E(eV)
   0   1.0000     -19.336635      -526.1766
   1   1.0000     -19.318605      -525.6860
   2   1.0000     -19.318550      -525.6845
   3   1.0000     -19.316672      -525.6334
   4   1.0000     -14.598233      -397.2381
   5   1.0000     -14.574008      -396.5789
   6   1.0000     -14.562193      -396.2574
   7   1.0000     -14.554291      -396.0424
   8   1.0000     -10.513462      -286.0858
   9   1.0000     -10.502823      -285.7963
  10   1.0000     -10.472434      -284.9694
  11   1.0000     -10.455928      -284.5203
  12   1.0000     -10.428444      -283.7724
  13   1.0000     -10.405452      -283.1467
  14   1.0000     -10.399815      -282.9933
  15   1.0000     -10.375089      -282.3205
  16   1.0000     -10.359052      -281.8841
  17   1.0000     -10.356401      -281.8120
  18   1.0000      -1.237132       -33.6641
  19   1.0000      -1.222320       -33.2610
  20   1.0000      -1.194011       -32.4907
  21   1.0000      -1.191537       -32.4234
  22   1.0000      -1.134763       -30.8785
  23   1.0000      -1.118991       -30.4493
  24   1.0000      -1.069064       -29.0907
  25   1.0000      -1.066629       -29.0245
  26   1.0000      -0.979070       -26.6418
  27   1.0000      -0.957645       -26.0588
  28   1.0000      -0.858698       -23.3664
  29   1.0000      -0.848504       -23.0890
  30   1.0000      -0.815922       -22.2024
  31   1.0000      -0.809631       -22.0312
  32   1.0000      -0.797645       -21.7050
  33   1.0000      -0.790186       -21.5021
  34   1.0000      -0.707151       -19.2426
  35   1.0000      -0.698264       -19.0007
  36   1.0000      -0.692213       -18.8361
  37   1.0000      -0.690368       -18.7859
  38   1.0000      -0.646377       -17.5888
  39   1.0000      -0.636685       -17.3251
  40   1.0000      -0.635212       -17.2850
  41   1.0000      -0.603191       -16.4136
  42   1.0000      -0.598924       -16.2975
  43   1.0000      -0.592149       -16.1132
  44   1.0000      -0.575251       -15.6534
  45   1.0000      -0.574579       -15.6351
  46   1.0000      -0.560400       -15.2492
  47   1.0000      -0.552724       -15.0404
  48   1.0000      -0.549999       -14.9662
  49   1.0000      -0.548315       -14.9204
  50   1.0000      -0.531293       -14.4572
  51   1.0000      -0.528218       -14.3735
  52   1.0000      -0.522299       -14.2125
  53   1.0000      -0.515767       -14.0347
  54   1.0000      -0.504895       -13.7389
  55   1.0000      -0.501280       -13.6405
  56   1.0000      -0.497768       -13.5450
  57   1.0000      -0.471546       -12.8314
  58   1.0000      -0.425759       -11.5855
  59   1.0000      -0.412371       -11.2212
  60   1.0000      -0.410090       -11.1591
  61   1.0000      -0.396887       -10.7998
  62   1.0000      -0.389050       -10.5866
  63   1.0000      -0.387479       -10.5438
  64   1.0000      -0.383226       -10.4281
  65   1.0000      -0.342876        -9.3301
  66   1.0000      -0.210806        -5.7363
  67   0.0000       0.011932         0.3247
  68   0.0000       0.023170         0.6305
  69   0.0000       0.033647         0.9156
  70   0.0000       0.039760         1.0819
  71   0.0000       0.040860         1.1119

                 SPIN DOWN ORBITALS
  NO   OCC          E(Eh)            E(eV)
   0   1.0000     -19.334678      -526.1233
   1   1.0000     -19.318476      -525.6824
   2   1.0000     -19.316644      -525.6326
   3   1.0000     -19.312396      -525.5170
   4   1.0000     -14.593557      -397.1109
   5   1.0000     -14.573980      -396.5781
   6   1.0000     -14.562202      -396.2577
   7   1.0000     -14.553310      -396.0157
   8   1.0000     -10.513778      -286.0945
   9   1.0000     -10.502830      -285.7965
  10   1.0000     -10.472443      -284.9697
  11   1.0000     -10.455469      -284.5078
  12   1.0000     -10.428413      -283.7715
  13   1.0000     -10.396115      -282.8927
  14   1.0000     -10.389371      -282.7092
  15   1.0000     -10.375085      -282.3204
  16   1.0000     -10.359433      -281.8945
  17   1.0000     -10.356290      -281.8090
  18   1.0000      -1.232853       -33.5476
  19   1.0000      -1.222174       -33.2570
  20   1.0000      -1.191638       -32.4261
  21   1.0000      -1.184577       -32.2340
  22   1.0000      -1.124197       -30.5910
  23   1.0000      -1.118920       -30.4474
  24   1.0000      -1.066604       -29.0238
  25   1.0000      -1.063665       -28.9438
  26   1.0000      -0.958108       -26.0715
  27   1.0000      -0.954129       -25.9632
  28   1.0000      -0.848814       -23.0974
  29   1.0000      -0.846366       -23.0308
  30   1.0000      -0.809913       -22.0389
  31   1.0000      -0.805831       -21.9278
  32   1.0000      -0.790474       -21.5099
  33   1.0000      -0.789891       -21.4940
  34   1.0000      -0.695098       -18.9146
  35   1.0000      -0.692229       -18.8365
  36   1.0000      -0.690547       -18.7907
  37   1.0000      -0.689969       -18.7750
  38   1.0000      -0.636438       -17.3184
  39   1.0000      -0.634964       -17.2783
  40   1.0000      -0.629368       -17.1260
  41   1.0000      -0.594456       -16.1760
  42   1.0000      -0.591419       -16.0933
  43   1.0000      -0.590576       -16.0704
  44   1.0000      -0.568342       -15.4654
  45   1.0000      -0.560801       -15.2602
  46   1.0000      -0.556897       -15.1539
  47   1.0000      -0.548812       -14.9339
  48   1.0000      -0.543848       -14.7989
  49   1.0000      -0.539951       -14.6928
  50   1.0000      -0.522959       -14.2304
  51   1.0000      -0.522128       -14.2078
  52   1.0000      -0.516633       -14.0583
  53   1.0000      -0.505122       -13.7451
  54   1.0000      -0.501376       -13.6431
  55   1.0000      -0.500019       -13.6062
  56   1.0000      -0.471172       -12.8212
  57   1.0000      -0.454569       -12.3694
  58   1.0000      -0.421581       -11.4718
  59   1.0000      -0.411071       -11.1858
  60   1.0000      -0.396842       -10.7986
  61   1.0000      -0.386057       -10.5051
  62   1.0000      -0.383337       -10.4311
  63   1.0000      -0.379144       -10.3170
  64   1.0000      -0.342058        -9.3079
  65   0.0000      -0.106848        -2.9075
  66   0.0000       0.011635         0.3166
  67   0.0000       0.024207         0.6587
  68   0.0000       0.032442         0.8828
  69   0.0000       0.038433         1.0458

MULLIKEN ATOMIC CHARGES AND SPIN POPULATIONS
--------------------------------------------
   0 O :   -0.680178    0.005614
   1 O :   -0.672587    0.230792
   2 O :   -0.646680    0.001156
   3 O :   -0.651286    0.072007
   4 N :   -0.034518    0.001882
   5 N :    0.053646    0.212028
   6 N :    0.040049    0.001569
   7 N :    0.025779    0.047540
   8 C :    0.824585    0.041906
   9 C :    0.951365    0.249805
  10 C :    0.030070   -0.009447
  11 C :   -0.459592    0.921371
  12 C :   -1.423352   -0.015697
  13 C :   -1.318831    0.014984
  14 C :    0.384308    0.000189
  15 C :    0.557547    0.228478
  16 C :    0.346455   -0.002197
  17 C :    0.460599   -0.029091
  18 H :    0.138786    0.002260
  19 H :    0.114035   -0.000157
  20 H :    0.233258   -0.000807
  21 H :    0.331002   -0.001454
  22 H :    0.348731    0.004078
  23 H :    0.341476    0.017827
  24 H :    0.338908    0.011299
  25 H :    0.228262    0.021287
  26 H :    0.053676   -0.000776
  27 H :    0.023750   -0.021410
  28 H :    0.038702    0.000323
  29 H :    0.022036   -0.005359
Sum of atomic charges         :   -0.0000000

LOEWDIN ATOMIC CHARGES AND SPIN POPULATIONS
-------------------------------------------
   0 O :    0.096246    0.004041
   1 O :    0.097656    0.208430
   2 O :    0.091958    0.000894
   3 O :    0.097499    0.064538
   4 N :    0.281288    0.001244
   5 N :    0.304721    0.219835
   6 N :    0.347908    0.000170
   7 N :    0.324116    0.037784
   8 C :   -0.146728    0.005283
   9 C :   -0.108048    0.525280
  10 C :    0.053490    0.002245
  11 C :    0.004719    0.541791
  12 C :    0.168106    0.007930
  13 C :    0.211196    0.075593
  14 C :   -0.410488    0.003294
  15 C :   -0.425847    0.141793
  16 C :   -0.498024    0.000177
  17 C :   -0.500084    0.028122
  18 H :    0.041082    0.000273
  19 H :    0.011862    0.062139
  20 H :   -0.012485    0.004610
  21 H :   -0.004367    0.000341
  22 H :    0.002475    0.000941
  23 H :    0.012842    0.021612
  24 H :   -0.002428    0.000466
  25 H :    0.003239    0.022800
  26 H :   -0.018459    0.000229
  27 H :   -0.009788    0.012968
  28 H :   -0.000637    0.000425
  29 H :   -0.013019    0.004754

  Mayer bond orders larger than 0.100000
B(  0-O , 14-C ) :   1.4727 B(  1-O , 15-C ) :   1.3075 B(  2-O , 16-C ) :   1.5635
B(  3-O , 17-C ) :   1.5292 B(  4-N , 10-C ) :   0.8576 B(  4-N , 16-C ) :   1.0062
B(  4-N , 26-H ) :   1.1149 B(  5-N , 11-C ) :   1.0431 B(  5-N , 17-C ) :   1.0080
B(  5-N , 27-H ) :   1.1115 B(  6-N , 14-C ) :   1.0093 B(  6-N , 16-C ) :   0.9110
B(  6-N , 28-H ) :   1.1069 B(  7-N , 15-C ) :   0.8927 B(  7-N , 16-C ) :   0.1248
B(  7-N , 17-C ) :   0.9387 B(  7-N , 29-H ) :   1.1344 B(  8-C , 10-C ) :   1.1356
B(  8-C , 12-C ) :   0.3351 B(  8-C , 14-C ) :   0.7503 B(  9-C , 11-C ) :   0.1841
B(  9-C , 13-C ) :   0.3496 B(  9-C , 15-C ) :   0.9928 B(  9-C , 19-H ) :  -0.2223
B( 10-C , 12-C ) :  -0.1099 B( 10-C , 18-H ) :   1.1334 B( 11-C , 15-C ) :  -0.1889
B( 11-C , 19-H ) :   1.3141 B( 12-C , 20-H ) :   1.0033 B( 12-C , 21-H ) :   0.9966
B( 12-C , 22-H ) :   0.9311 B( 13-C , 23-H ) :   0.8822 B( 13-C , 24-H ) :   0.9999
B( 13-C , 25-H ) :   1.0045

----------------------------------------------------------------------------------------------------
          SPIN FLIP ABSORPTION SPECTRUM VIA TRANSITION ELECTRIC DIPOLE MOMENTS
----------------------------------------------------------------------------------------------------
     Transition      Energy     Energy  Wavelength fosc(D2)      D2        DX        DY        DZ
                      (eV)      (cm-1)    (nm)                 (au**2)    (au)      (au)      (au)
----------------------------------------------------------------------------------------------------
  1-3A  ->  2-3A    4.222340   34055.5   293.6   0.001315046   0.01271   0.02010  -0.03751  -0.10441
  1-3A  ->  3-1A    5.503958   44392.4   225.3   0.377708940   2.80107   0.58215   0.20153  -1.55614

Dispersion correction           -0.058997296
FINAL SINGLE POINT ENERGY      -908.795898764888

DIPOLE MOMENT
-------------

Method             : SCF
Type of density    : Electron Density
Multiplicity       :   3
Irrep              :   0
Energy             :  -908.7369014688989637 Eh
Relativity type    :
Basis              : AO
                                X                 Y                 Z
Electronic contribution:     -2.754438409      -9.647558343      -5.854996294
Nuclear contribution   :      2.337927320      10.515561586       8.325606719
                        -----------------------------------------
Total Dipole Moment    :     -0.416511089       0.868003244       2.470610424
                        -----------------------------------------
Magnitude (a.u.)       :      2.651570664
Magnitude (Debye)      :      6.739757011

Rotational constants in cm-1:             0.017157             0.015957             0.013856
Rotational constants in MHz :           514.365808           478.368434           415.385617

                             ****ORCA TERMINATED NORMALLY****
TOTAL RUN TIME: 0 days 0 hours 4 minutes 2 seconds 490 msec
