                         Program Version 6.0.0  -   RELEASE  -
|  1> ! Engrad def2-TZVPPD wB97M-D3BJ
|  2> %pal nprocs 8 end%pal nprocs 64 end
|  3> %tddft
|  4>  Iroot 2 Nroots 3
|  5> sf true
|  6> end
|  7> *xyz 0 3
|  8> O   2.76497418 -0.95694726 -2.49554554
|  9> O   -2.50749183 1.40380648 -1.25370096
| 10> O   -1.26935553 -2.46484316 -1.08869196
| 11> O   -2.4550779 0.81865179 3.15915599
| 12> N   0.08748123 -1.54340175 0.43367244
| 13> N   -0.36671913 1.00888376 2.16791609
| 14> N   0.79202861 -1.74517159 -1.73739765
| 15> N   -2.47021888 0.95130211 0.9002148
| 16> C   2.24681204 -0.50699843 -0.20273698
| 17> C   -0.34401289 1.27901975 -0.22828743
| 18> C   1.11117912 -0.47308595 0.75740153
| 19> C   0.46397909 0.93559292 0.94504567
| 20> C   3.66237543 -0.31018254 0.20782444
| 21> C   0.37890615 1.73884909 -1.47961404
| 22> C   1.96084779 -1.08293652 -1.52340391
| 23> C   -1.77137257 1.25822108 -0.27446444
| 24> C   -0.26398176 -1.91386043 -0.81858766
| 25> C   -1.7886744 0.85362063 2.1329025
| 26> H   1.43143183 -0.65132527 1.77996112
| 27> H   1.30384483 1.57625006 1.05520934
| 28> H   4.16724409 -1.32399704 0.48127534
| 29> H   4.35924465 0.09295455 -0.57219925
| 30> H   3.6069736 0.36071095 1.09139086
| 31> H   -0.11787008 2.5819329 -1.95645219
| 32> H   1.36353579 2.04033047 -1.12401732
| 33> H   0.33296694 0.91740252 -2.24342533
| 34> H   -0.68287281 -1.49594952 1.06717829
| 35> H   0.04981939 1.24193998 3.00791908
| 36> H   0.52987893 -2.09685934 -2.65005906
| 37> H   -3.52675767 0.91493088 0.87835759
| 38> *
| 39>
| 40>                          ****END OF INPUT****

CARTESIAN COORDINATES (ANGSTROEM)
---------------------------------
  O      2.764974   -0.956947   -2.495546
  O     -2.507492    1.403806   -1.253701
  O     -1.269356   -2.464843   -1.088692
  O     -2.455078    0.818652    3.159156
  N      0.087481   -1.543402    0.433672
  N     -0.366719    1.008884    2.167916
  N      0.792029   -1.745172   -1.737398
  N     -2.470219    0.951302    0.900215
  C      2.246812   -0.506998   -0.202737
  C     -0.344013    1.279020   -0.228287
  C      1.111179   -0.473086    0.757402
  C      0.463979    0.935593    0.945046
  C      3.662375   -0.310183    0.207824
  C      0.378906    1.738849   -1.479614
  C      1.960848   -1.082937   -1.523404
  C     -1.771373    1.258221   -0.274464
  C     -0.263982   -1.913860   -0.818588
  C     -1.788674    0.853621    2.132902
  H      1.431432   -0.651325    1.779961
  H      1.303845    1.576250    1.055209
  H      4.167244   -1.323997    0.481275
  H      4.359245    0.092955   -0.572199
  H      3.606974    0.360711    1.091391
  H     -0.117870    2.581933   -1.956452
  H      1.363536    2.040330   -1.124017
  H      0.332967    0.917403   -2.243425
  H     -0.682873   -1.495950    1.067178
  H      0.049819    1.241940    3.007919
  H      0.529879   -2.096859   -2.650059
  H     -3.526758    0.914931    0.878358

 Total Charge           Charge          ....    0
 Multiplicity           Mult            ....    3
 Number of Electrons    NEL             ....  132
 Basis Dimension        Dim             ....  882

ORBITAL ENERGIES
----------------
                 SPIN UP ORBITALS
  NO   OCC          E(Eh)            E(eV)
   0   1.0000     -19.332104      -526.0533
   1   1.0000     -19.329142      -525.9727
   2   1.0000     -19.326639      -525.9046
   3   1.0000     -19.323941      -525.8312
   4   1.0000     -14.568880      -396.4394
   5   1.0000     -14.568763      -396.4362
   6   1.0000     -14.566410      -396.3722
   7   1.0000     -14.560412      -396.2090
   8   1.0000     -10.517447      -286.1943
   9   1.0000     -10.503087      -285.8035
  10   1.0000     -10.486358      -285.3483
  11   1.0000     -10.480616      -285.1921
  12   1.0000     -10.451118      -284.3894
  13   1.0000     -10.450017      -284.3594
  14   1.0000     -10.427967      -283.7594
  15   1.0000     -10.424820      -283.6738
  16   1.0000     -10.395127      -282.8658
  17   1.0000     -10.379257      -282.4339
  18   1.0000      -1.233812       -33.5737
  19   1.0000      -1.211811       -32.9750
  20   1.0000      -1.189301       -32.3625
  21   1.0000      -1.179956       -32.1082
  22   1.0000      -1.116011       -30.3682
  23   1.0000      -1.093865       -29.7656
  24   1.0000      -1.060179       -28.8489
  25   1.0000      -1.051465       -28.6118
  26   1.0000      -0.988634       -26.9021
  27   1.0000      -0.962269       -26.1847
  28   1.0000      -0.893733       -24.3197
  29   1.0000      -0.842372       -22.9221
  30   1.0000      -0.827346       -22.5132
  31   1.0000      -0.804060       -21.8796
  32   1.0000      -0.784887       -21.3579
  33   1.0000      -0.778958       -21.1965
  34   1.0000      -0.703316       -19.1382
  35   1.0000      -0.699743       -19.0410
  36   1.0000      -0.688711       -18.7408
  37   1.0000      -0.683783       -18.6067
  38   1.0000      -0.651179       -17.7195
  39   1.0000      -0.640620       -17.4322
  40   1.0000      -0.628911       -17.1135
  41   1.0000      -0.603805       -16.4304
  42   1.0000      -0.600349       -16.3363
  43   1.0000      -0.590672       -16.0730
  44   1.0000      -0.571655       -15.5555
  45   1.0000      -0.570151       -15.5146
  46   1.0000      -0.564974       -15.3737
  47   1.0000      -0.562704       -15.3120
  48   1.0000      -0.560102       -15.2412
  49   1.0000      -0.557594       -15.1729
  50   1.0000      -0.551781       -15.0147
  51   1.0000      -0.534473       -14.5437
  52   1.0000      -0.529547       -14.4097
  53   1.0000      -0.518563       -14.1108
  54   1.0000      -0.512672       -13.9505
  55   1.0000      -0.506555       -13.7841
  56   1.0000      -0.501684       -13.6515
  57   1.0000      -0.425719       -11.5844
  58   1.0000      -0.419179       -11.4065
  59   1.0000      -0.410501       -11.1703
  60   1.0000      -0.405262       -11.0278
  61   1.0000      -0.399268       -10.8646
  62   1.0000      -0.394877       -10.7452
  63   1.0000      -0.387343       -10.5401
  64   1.0000      -0.385255       -10.4833
  65   1.0000      -0.356985        -9.7141
  66   1.0000      -0.332254        -9.0411
  67   0.0000       0.006130         0.1668
  68   0.0000       0.028984         0.7887
  69   0.0000       0.032221         0.8768
  70   0.0000       0.034083         0.9274
  71   0.0000       0.052774         1.4360

                 SPIN DOWN ORBITALS
  NO   OCC          E(Eh)            E(eV)
   0   1.0000     -19.327136      -525.9181
   1   1.0000     -19.326620      -525.9041
   2   1.0000     -19.324939      -525.8583
   3   1.0000     -19.323826      -525.8280
   4   1.0000     -14.568731      -396.4353
   5   1.0000     -14.568263      -396.4226
   6   1.0000     -14.565994      -396.3608
   7   1.0000     -14.560197      -396.2031
   8   1.0000     -10.517488      -286.1954
   9   1.0000     -10.503126      -285.8046
  10   1.0000     -10.487502      -285.3794
  11   1.0000     -10.481717      -285.2220
  12   1.0000     -10.450702      -284.3781
  13   1.0000     -10.449553      -284.3468
  14   1.0000     -10.416348      -283.4432
  15   1.0000     -10.413662      -283.3701
  16   1.0000     -10.395790      -282.8838
  17   1.0000     -10.379687      -282.4456
  18   1.0000      -1.233484       -33.5648
  19   1.0000      -1.209712       -32.9179
  20   1.0000      -1.184003       -32.2184
  21   1.0000      -1.174715       -31.9656
  22   1.0000      -1.112890       -30.2833
  23   1.0000      -1.091524       -29.7019
  24   1.0000      -1.057962       -28.7886
  25   1.0000      -1.049695       -28.5636
  26   1.0000      -0.976347       -26.5677
  27   1.0000      -0.944498       -25.7011
  28   1.0000      -0.886639       -24.1267
  29   1.0000      -0.837207       -22.7816
  30   1.0000      -0.819084       -22.2884
  31   1.0000      -0.799268       -21.7492
  32   1.0000      -0.782894       -21.3036
  33   1.0000      -0.777521       -21.1574
  34   1.0000      -0.697465       -18.9790
  35   1.0000      -0.695620       -18.9288
  36   1.0000      -0.682713       -18.5776
  37   1.0000      -0.676955       -18.4209
  38   1.0000      -0.638409       -17.3720
  39   1.0000      -0.637103       -17.3365
  40   1.0000      -0.623898       -16.9771
  41   1.0000      -0.599556       -16.3147
  42   1.0000      -0.594108       -16.1665
  43   1.0000      -0.585903       -15.9432
  44   1.0000      -0.565939       -15.4000
  45   1.0000      -0.563669       -15.3382
  46   1.0000      -0.558495       -15.1974
  47   1.0000      -0.555140       -15.1061
  48   1.0000      -0.554632       -15.0923
  49   1.0000      -0.546405       -14.8684
  50   1.0000      -0.543136       -14.7795
  51   1.0000      -0.525107       -14.2889
  52   1.0000      -0.520785       -14.1713
  53   1.0000      -0.511060       -13.9067
  54   1.0000      -0.506636       -13.7863
  55   1.0000      -0.501533       -13.6474
  56   1.0000      -0.491433       -13.3726
  57   1.0000      -0.423581       -11.5262
  58   1.0000      -0.415906       -11.3174
  59   1.0000      -0.407910       -11.0998
  60   1.0000      -0.391825       -10.6621
  61   1.0000      -0.388862       -10.5815
  62   1.0000      -0.384259       -10.4562
  63   1.0000      -0.382074       -10.3968
  64   1.0000      -0.379330       -10.3221
  65   0.0000      -0.072278        -1.9668
  66   0.0000      -0.054208        -1.4751
  67   0.0000       0.005974         0.1626
  68   0.0000       0.029594         0.8053
  69   0.0000       0.031893         0.8679

----------------------------------------------------------------------------------------------------
          SPIN FLIP ABSORPTION SPECTRUM VIA TRANSITION ELECTRIC DIPOLE MOMENTS
----------------------------------------------------------------------------------------------------
     Transition      Energy     Energy  Wavelength fosc(D2)      D2        DX        DY        DZ
                      (eV)      (cm-1)    (nm)                 (au**2)    (au)      (au)      (au)
----------------------------------------------------------------------------------------------------
  1-3A  ->  2-3A    0.107473     866.8  11536.3   0.000025259   0.00959  -0.07551   0.03222   0.05341
  1-3A  ->  3-3A    1.982569   15990.5   625.4   0.000423220   0.00871  -0.08187   0.01291  -0.04295

Dispersion correction             ... done (  0.1 sec)

MULLIKEN ATOMIC CHARGES AND SPIN DENSITIES
------------------------------------------
   0 O :   -0.713618   -0.045164
   1 O :   -0.702677    0.053478
   2 O :   -0.598999   -0.000178
   3 O :   -0.648363    0.000436
   4 N :   -0.294908   -0.004536
   5 N :   -0.153919    0.002580
   6 N :    0.013807   -0.003837
   7 N :   -0.028012    0.005906
   8 C :    0.732017    0.375628
   9 C :    0.456481    0.380182
  10 C :    0.268290   -0.315661
  11 C :    0.031718   -0.138990
  12 C :   -1.452470    0.048974
  13 C :   -1.541749   -0.017484
  14 C :   -0.002313   -0.278178
  15 C :    0.426518   -0.105264
  16 C :    0.454048    0.022187
  17 C :    0.331961    0.007465
  18 H :    0.555435   -0.026346
  19 H :    0.709399    0.008595
  20 H :    0.315397   -0.003078
  21 H :    0.291007   -0.008165
  22 H :    0.343703    0.005697
  23 H :    0.410658    0.007579
  24 H :    0.364275    0.002804
  25 H :    0.236716    0.019682
  26 H :    0.056346    0.001578
  27 H :   -0.017876    0.000342
  28 H :    0.038231    0.003080
  29 H :    0.118899    0.000688
Sum of atomic charges       :    0.0000000

LOEWDIN ATOMIC CHARGES AND SPIN DENSITIES
-----------------------------------------
   0 O :    0.028383   -0.039504
   1 O :    0.076273    0.046045
   2 O :    0.138525    0.000170
   3 O :    0.059817    0.000349
   4 N :    0.309801   -0.001109
   5 N :    0.317392   -0.000523
   6 N :    0.319653   -0.006165
   7 N :    0.290237    0.004196
   8 C :   -0.042080   -0.135145
   9 C :   -0.015665    0.146407
  10 C :   -0.082912   -0.009592
  11 C :   -0.116659    0.009404
  12 C :    0.164248   -0.021387
  13 C :    0.216415    0.014499
  14 C :   -0.401028   -0.024501
  15 C :   -0.404167    0.021733
  16 C :   -0.520830    0.000595
  17 C :   -0.425941   -0.000231
  18 H :    0.044758   -0.002370
  19 H :    0.032606    0.002203
  20 H :    0.061343   -0.009602
  21 H :    0.018752   -0.002535
  22 H :   -0.002427   -0.000787
  23 H :    0.005386    0.002916
  24 H :   -0.002299   -0.001475
  25 H :    0.030066    0.007004
  26 H :   -0.053025   -0.000199
  27 H :   -0.088767   -0.000124
  28 H :   -0.001981   -0.000591
  29 H :    0.044121    0.000325

  Mayer bond orders larger than 0.100000
B(  0-O , 14-C ) :   1.3459 B(  1-O , 13-C ) :   0.1009 B(  1-O , 15-C ) :   1.1664
B(  2-O , 16-C ) :   1.5240 B(  3-O , 17-C ) :   1.5993 B(  4-N ,  8-C ) :   0.2352
B(  4-N ,  9-C ) :   0.1068 B(  4-N , 10-C ) :   0.2200 B(  4-N , 16-C ) :   1.0476
B(  4-N , 18-H ) :  -0.1093 B(  4-N , 26-H ) :   1.0576 B(  5-N ,  9-C ) :   0.1281
B(  5-N , 10-C ) :   0.1508 B(  5-N , 11-C ) :   0.4161 B(  5-N , 17-C ) :   1.1218
B(  5-N , 19-H ) :  -0.1379 B(  5-N , 27-H ) :   1.1953 B(  6-N , 10-C ) :   0.1093
B(  6-N , 14-C ) :   0.9967 B(  6-N , 16-C ) :   0.9113 B(  6-N , 28-H ) :   1.1089
B(  7-N ,  9-C ) :  -0.1018 B(  7-N , 15-C ) :   1.0969 B(  7-N , 17-C ) :   1.0157
B(  7-N , 29-H ) :   1.0393 B(  8-C ,  9-C ) :   0.1601 B(  8-C , 10-C ) :   0.4875
B(  8-C , 11-C ) :   0.2080 B(  8-C , 12-C ) :   0.4083 B(  8-C , 14-C ) :   0.4953
B(  8-C , 18-H ) :  -0.1058 B(  8-C , 22-H ) :  -0.1277 B(  9-C , 10-C ) :   0.1859
B(  9-C , 11-C ) :   0.5203 B(  9-C , 13-C ) :   0.1814 B(  9-C , 15-C ) :   0.8977
B(  9-C , 19-H ) :  -0.2201 B(  9-C , 24-H ) :  -0.1573 B( 10-C , 11-C ) :   0.4101
B( 10-C , 12-C ) :  -0.1942 B( 10-C , 13-C ) :  -0.1100 B( 10-C , 18-H ) :   0.7073
B( 11-C , 17-C ) :  -0.2070 B( 11-C , 19-H ) :   0.6750 B( 11-C , 27-H ) :  -0.1125
B( 12-C , 20-H ) :   0.8588 B( 12-C , 21-H ) :   1.0290 B( 12-C , 22-H ) :   0.9830
B( 13-C , 14-C ) :   0.1442 B( 13-C , 23-H ) :   0.8373 B( 13-C , 24-H ) :   1.0667
B( 13-C , 25-H ) :   0.9729

Dispersion correction           -0.057804151
FINAL SINGLE POINT ENERGY      -908.764493467607

DIPOLE MOMENT
-------------

Method             : TDA/CIS
Type of density    : Electron Density
Level              : Relaxed density
State              :   2
Multiplicity       :   3
Irrep              :   0
Energy             :     0.0000000000000000 Eh
Relativity type    :
Basis              : AO
                                X                 Y                 Z
Electronic contribution:    -10.008620484      -3.562372317       0.224487878
Nuclear contribution   :     12.054252824       4.426666845       1.070417366
                        -----------------------------------------
Total Dipole Moment    :      2.045632340       0.864294528       1.294905244
                        -----------------------------------------
Magnitude (a.u.)       :      2.570680123
Magnitude (Debye)      :      6.534149594

Rotational constants in cm-1:             0.022874             0.011397             0.010461
Rotational constants in MHz :           685.759976           341.680910           313.604134

                             ****ORCA TERMINATED NORMALLY****
TOTAL RUN TIME: 0 days 0 hours 4 minutes 58 seconds 603 msec
