                         Program Version 6.0.0  -   RELEASE  -
|  1> ! Opt wB97M-D3BJ def2-TZVPPD
|  2> %pal nprocs 8 end %pal nprocs 64 end
|  3> %geom
|  4> Constraints
|  5>     {A 2 1 0 127.27272727272727 C }
|  6> end
|  7> MaxIter 500
|  8> end
|  9> *xyz 0 1
| 10> O   -0.0007 0.8141 0.0
| 11> C   0.7509 -0.4065 0.0
| 12> C   -0.7502 -0.4076 0.0
| 13> H   1.2625 -0.6786 0.9136
| 14> H   1.2625 -0.6787 -0.9136
| 15> H   -1.2614 -0.6806 -0.9136
| 16> H   -1.2614 -0.6805 0.9136
| 17> *
| 18>
| 19>                          ****END OF INPUT****
 Total Charge           Charge          ....    0
 Multiplicity           Mult            ....    1
 Number of Electrons    NEL             ....   24
Dispersion correction           -0.005745013
FINAL SINGLE POINT ENERGY      -153.576323728678
Dispersion correction             ... done (  0.1 sec)
Dispersion correction           -0.005648151
FINAL SINGLE POINT ENERGY      -153.683244874075
Dispersion correction             ... done (  0.1 sec)
Dispersion correction           -0.005577662
FINAL SINGLE POINT ENERGY      -153.709687534012
Dispersion correction             ... done (  0.1 sec)
FINAL SINGLE POINT ENERGY      -153.719788113964
FINAL SINGLE POINT ENERGY      -153.723308794391
FINAL SINGLE POINT ENERGY      -153.726607460739
FINAL SINGLE POINT ENERGY      -153.729386368423
FINAL SINGLE POINT ENERGY      -153.732111078403
FINAL SINGLE POINT ENERGY      -153.735653814811
FINAL SINGLE POINT ENERGY      -153.743180351560
FINAL SINGLE POINT ENERGY      -153.930135854460
FINAL SINGLE POINT ENERGY      -153.930765183304
FINAL SINGLE POINT ENERGY      -153.931021633064
FINAL SINGLE POINT ENERGY      -153.931254613641
FINAL SINGLE POINT ENERGY      -153.931479924783
FINAL SINGLE POINT ENERGY      -153.931598201790
FINAL SINGLE POINT ENERGY      -153.931634962559
Dispersion correction             ... done (  0.1 sec)
Dispersion correction           -0.005531595
FINAL SINGLE POINT ENERGY      -153.931642519599
Dispersion correction             ... done (  0.1 sec)
Dispersion correction           -0.005530796
FINAL SINGLE POINT ENERGY      -153.931643850003
Dispersion correction             ... done (  0.1 sec)
                    ***********************HURRAY********************

CARTESIAN COORDINATES (ANGSTROEM)
---------------------------------
  O      0.682080    1.330626    0.090046
  C      0.563186    0.188038   -0.259905
  C     -0.446761   -0.807888    0.221834
  H      0.077173   -1.671763    0.632067
  H      1.257250   -0.217280   -1.024279
  H     -1.026296   -1.162924   -0.630907
  H     -1.104431   -0.377208    0.971144

 Multiplicity           Mult            ....    1
 Number of Electrons    NEL             ....   24
 Basis Dimension        Dim             ....  182

ORBITAL ENERGIES
----------------

  NO   OCC          E(Eh)            E(eV)
   0   2.0000     -19.339865      -526.2645
   1   2.0000     -10.443128      -284.1720
   2   2.0000     -10.358504      -281.8692
   3   2.0000      -1.188621       -32.3440
   4   2.0000      -0.886227       -24.1155
   5   2.0000      -0.701484       -19.0884
   6   2.0000      -0.598021       -16.2730
   7   2.0000      -0.561788       -15.2870
   8   2.0000      -0.555334       -15.1114
   9   2.0000      -0.508733       -13.8433
  10   2.0000      -0.476984       -12.9794
  11   2.0000      -0.368118       -10.0170
  12   0.0000       0.037140         1.0106
  13   0.0000       0.055339         1.5058
  14   0.0000       0.059225         1.6116
  15   0.0000       0.082998         2.2585
  16   0.0000       0.086065         2.3419

MULLIKEN ATOMIC CHARGES
-----------------------
   0 O :   -0.475201
   1 C :    0.234334
   2 C :   -0.695457
   3 H :    0.228627
   4 H :    0.237977
   5 H :    0.227993
   6 H :    0.241727
Sum of atomic charges:   -0.0000000

LOEWDIN ATOMIC CHARGES
----------------------
   0 O :    0.070826
   1 C :   -0.234051
   2 C :    0.169501
   3 H :   -0.010382
   4 H :    0.022946
   5 H :   -0.010285
   6 H :   -0.008555

  Mayer bond orders larger than 0.100000
B(  0-O ,  1-C ) :   1.7702 B(  1-C ,  2-C ) :   0.7548 B(  1-C ,  4-H ) :   0.9887
B(  2-C ,  3-H ) :   0.9925 B(  2-C ,  5-H ) :   0.9922 B(  2-C ,  6-H ) :   0.9571

Dispersion correction           -0.005530304
FINAL SINGLE POINT ENERGY      -153.931644301903

DIPOLE MOMENT
-------------

Method             : SCF
Type of density    : Electron Density
Multiplicity       :   1
Irrep              :   0
Energy             :  -153.9261139979653308 Eh
Relativity type    :
Basis              : AO
                                X                 Y                 Z
Electronic contribution:      1.459484292       2.990668515      -0.080392724
Nuclear contribution   :     -1.721197241      -4.085814940      -0.127049104
                        -----------------------------------------
Total Dipole Moment    :     -0.261712949      -1.095146426      -0.207441827
                        -----------------------------------------
Magnitude (a.u.)       :      1.144932956
Magnitude (Debye)      :      2.910188297

Rotational constants in cm-1:             1.991810             0.334097             0.301976
Rotational constants in MHz :         59712.974995         10015.990962          9053.007662

                             ****ORCA TERMINATED NORMALLY****
TOTAL RUN TIME: 0 days 0 hours 7 minutes 31 seconds 213 msec
