                         Program Version 6.0.0  -   RELEASE  -
|  1> ! EnGrad wB97M-D3BJ def2-TZVPPD
|  2> %pal nprocs 8 end%pal nprocs 16 end
|  3> %tddft
|  4>  sf true
|  5>  nroots 2 Iroot 1 end
|  6> *xyz 0 3
|  7> O   0.11752071138583 0.86187996803731 -0.0002180463466
|  8> C   0.67938461695582 -0.37927868172675 8.822556948e-05
|  9> C   -0.72871854779624 -0.55424822419526 -0.00010342789171
| 10> H   1.23144411243875 -0.65169155764305 0.9003308296558
| 11> H   1.2311814041045 -0.65180570969096 -0.90031978434739
| 12> H   -1.26451481774095 -0.67228286432388 -0.92677169874772
| 13> H   -1.26409747934773 -0.6709729304574 0.92699390210813
| 14> *
| 15>
| 16>                          ****END OF INPUT****

CARTESIAN COORDINATES (ANGSTROEM)
---------------------------------
  O      0.117521    0.861880   -0.000218
  C      0.679385   -0.379279    0.000088
  C     -0.728719   -0.554248   -0.000103
  H      1.231444   -0.651692    0.900331
  H      1.231181   -0.651806   -0.900320
  H     -1.264515   -0.672283   -0.926772
  H     -1.264097   -0.670973    0.926994

 Total Charge           Charge          ....    0
 Multiplicity           Mult            ....    3
 Number of Electrons    NEL             ....   24
 Basis Dimension        Dim             ....  182

ORBITAL ENERGIES
----------------
                 SPIN UP ORBITALS
  NO   OCC          E(Eh)            E(eV)
   0   1.0000     -19.443688      -529.0896
   1   1.0000     -10.413826      -283.3746
   2   1.0000     -10.341759      -281.4136
   3   1.0000      -1.263574       -34.3836
   4   1.0000      -0.859422       -23.3861
   5   1.0000      -0.760974       -20.7072
   6   1.0000      -0.669821       -18.2268
   7   1.0000      -0.633525       -17.2391
   8   1.0000      -0.556503       -15.1432
   9   1.0000      -0.498920       -13.5763
  10   1.0000      -0.482261       -13.1230
  11   1.0000      -0.462296       -12.5797
  12   1.0000      -0.185888        -5.0583
  13   0.0000       0.038764         1.0548
  14   0.0000       0.062789         1.7086
  15   0.0000       0.071422         1.9435
  16   0.0000       0.086453         2.3525
  17   0.0000       0.112235         3.0541

                 SPIN DOWN ORBITALS
  NO   OCC          E(Eh)            E(eV)
   0   1.0000     -19.411188      -528.2053
   1   1.0000     -10.414442      -283.3914
   2   1.0000     -10.330914      -281.1185
   3   1.0000      -1.196996       -32.5719
   4   1.0000      -0.824859       -22.4456
   5   1.0000      -0.741627       -20.1807
   6   1.0000      -0.618418       -16.8280
   7   1.0000      -0.598707       -16.2916
   8   1.0000      -0.521807       -14.1991
   9   1.0000      -0.473458       -12.8834
  10   1.0000      -0.420033       -11.4297
  11   0.0000      -0.099205        -2.6995
  12   0.0000       0.034626         0.9422
  13   0.0000       0.058106         1.5811
  14   0.0000       0.059489         1.6188
  15   0.0000       0.066563         1.8113

----------------------------------------------------------------------------------------------------
          SPIN FLIP ABSORPTION SPECTRUM VIA TRANSITION ELECTRIC DIPOLE MOMENTS
----------------------------------------------------------------------------------------------------
     Transition      Energy     Energy  Wavelength fosc(D2)      D2        DX        DY        DZ
                      (eV)      (cm-1)    (nm)                 (au**2)    (au)      (au)      (au)
----------------------------------------------------------------------------------------------------
  1-3A  ->  2-3A    5.272816   42528.1   235.1   0.004881635   0.03779  -0.00033  -0.00022   0.19439

Dispersion correction             ... done (  0.0 sec)

MULLIKEN ATOMIC CHARGES AND SPIN DENSITIES
------------------------------------------
   0 O :   -0.414999    0.056849
   1 C :   -0.120689   -0.089975
   2 C :   -0.423287    0.001656
   3 H :    0.205391    0.024987
   4 H :    0.205329    0.024997
   5 H :    0.274123   -0.009273
   6 H :    0.274131   -0.009241
Sum of atomic charges       :    0.0000000

LOEWDIN ATOMIC CHARGES AND SPIN DENSITIES
-----------------------------------------
   0 O :   -0.060171    0.014930
   1 C :   -0.196141   -0.009133
   2 C :    0.191912   -0.004576
   3 H :    0.026696    0.004256
   4 H :    0.026700    0.004264
   5 H :    0.005514   -0.004866
   6 H :    0.005490   -0.004875

  Mayer bond orders larger than 0.100000
B(  0-O ,  1-C ) :   0.7771 B(  0-O ,  2-C ) :   0.8891 B(  1-C ,  2-C ) :   0.7612
B(  1-C ,  3-H ) :   1.0327 B(  1-C ,  4-H ) :   1.0327 B(  2-C ,  5-H ) :   0.9237
B(  2-C ,  6-H ) :   0.9237

Dispersion correction           -0.005245365
FINAL SINGLE POINT ENERGY      -153.853285286558

DIPOLE MOMENT
-------------

Method             : TDA/CIS
Type of density    : Electron Density
Level              : Relaxed density
State              :   1
Multiplicity       :   3
Irrep              :   0
Energy             :     0.0000000000000000 Eh
Relativity type    :
Basis              : AO
                                X                 Y                 Z
Electronic contribution:     -0.047411921       1.296743494      -0.000353259
Nuclear contribution   :     -0.164604169      -2.462566458       0.000509457
                        -----------------------------------------
Total Dipole Moment    :     -0.212016090      -1.165822965       0.000156198
                        -----------------------------------------
Magnitude (a.u.)       :      1.184944738
Magnitude (Debye)      :      3.011890164

Rotational constants in cm-1:             0.906120             0.658917             0.450067
Rotational constants in MHz :         27164.781705         19753.823246         13492.661458

                             ****ORCA TERMINATED NORMALLY****
TOTAL RUN TIME: 0 days 0 hours 0 minutes 17 seconds 558 msec
