                         Program Version 6.0.0  -   RELEASE  -
|  1> ! Engrad def2-TZVPPD wB97M-D3BJ
|  2> %pal nprocs 8 end%pal nprocs 64 end
|  3> %tddft Nroots 2 Iroot 1
|  4> sf true
|  5> end
|  6> *xyz 0 3
|  7> O   3.2036707 0.39413202 -0.91503961
|  8> O   -0.64275586 1.53594249 -2.31016284
|  9> O   0.40934181 -3.08527786 -0.35054718
| 10> O   -3.00951747 -1.77720217 -0.41520551
| 11> N   0.33596101 -1.43804757 1.21158367
| 12> N   -2.14965066 -0.18762261 0.96244538
| 13> N   1.54886954 -1.1574796 -0.76510883
| 14> N   -1.48550987 -0.29337797 -1.25750363
| 15> C   1.74496489 0.50196293 0.96162948
| 16> C   -0.86401006 1.6166307 0.04806946
| 17> C   0.39432328 -0.03459079 1.55253453
| 18> C   -1.06688521 0.72165966 1.22493854
| 19> C   2.48247313 1.57620135 1.64842735
| 20> C   -0.68984821 3.07308404 0.19808026
| 21> C   2.24428454 -0.04599928 -0.28921657
| 22> C   -0.97231179 0.99890639 -1.25775533
| 23> C   0.7278682 -1.96908501 0.00668895
| 24> C   -2.27659914 -0.83562111 -0.24567491
| 25> H   0.51195742 0.04013916 2.62236626
| 26> H   -1.3220507 1.30319075 2.11112286
| 27> H   3.47712773 1.73416712 1.19738886
| 28> H   1.92416888 2.51249992 1.61980587
| 29> H   2.58258578 1.34309358 2.7127036
| 30> H   -1.56783115 3.54269177 0.65584395
| 31> H   0.14096639 3.29496509 0.85606716
| 32> H   -0.52285343 3.53538343 -0.76501937
| 33> H   -0.30875752 -2.02946322 1.69458865
| 34> H   -2.70837339 -0.57251024 1.71144595
| 35> H   1.91421188 -1.56016674 -1.62173463
| 36> H   -1.59609858 -0.76434845 -2.14289059
| 37> *
| 38>
| 39>                          ****END OF INPUT****

CARTESIAN COORDINATES (ANGSTROEM)
---------------------------------
  O      3.203671    0.394132   -0.915040
  O     -0.642756    1.535942   -2.310163
  O      0.409342   -3.085278   -0.350547
  O     -3.009517   -1.777202   -0.415206
  N      0.335961   -1.438048    1.211584
  N     -2.149651   -0.187623    0.962445
  N      1.548870   -1.157480   -0.765109
  N     -1.485510   -0.293378   -1.257504
  C      1.744965    0.501963    0.961629
  C     -0.864010    1.616631    0.048069
  C      0.394323   -0.034591    1.552535
  C     -1.066885    0.721660    1.224939
  C      2.482473    1.576201    1.648427
  C     -0.689848    3.073084    0.198080
  C      2.244285   -0.045999   -0.289217
  C     -0.972312    0.998906   -1.257755
  C      0.727868   -1.969085    0.006689
  C     -2.276599   -0.835621   -0.245675
  H      0.511957    0.040139    2.622366
  H     -1.322051    1.303191    2.111123
  H      3.477128    1.734167    1.197389
  H      1.924169    2.512500    1.619806
  H      2.582586    1.343094    2.712704
  H     -1.567831    3.542692    0.655844
  H      0.140966    3.294965    0.856067
  H     -0.522853    3.535383   -0.765019
  H     -0.308758   -2.029463    1.694589
  H     -2.708373   -0.572510    1.711446
  H      1.914212   -1.560167   -1.621735
  H     -1.596099   -0.764348   -2.142891

 Total Charge           Charge          ....    0
 Multiplicity           Mult            ....    3
 Number of Electrons    NEL             ....  132
 Basis Dimension        Dim             ....  882

ORBITAL ENERGIES
----------------
                 SPIN UP ORBITALS
  NO   OCC          E(Eh)            E(eV)
   0   1.0000     -19.332987      -526.0773
   1   1.0000     -19.331890      -526.0475
   2   1.0000     -19.320164      -525.7284
   3   1.0000     -19.313976      -525.5600
   4   1.0000     -14.564935      -396.3320
   5   1.0000     -14.560284      -396.2055
   6   1.0000     -14.558530      -396.1577
   7   1.0000     -14.557403      -396.1271
   8   1.0000     -10.503772      -285.8222
   9   1.0000     -10.500730      -285.7394
  10   1.0000     -10.479907      -285.1728
  11   1.0000     -10.478745      -285.1411
  12   1.0000     -10.449713      -284.3512
  13   1.0000     -10.448391      -284.3152
  14   1.0000     -10.425065      -283.6804
  15   1.0000     -10.414501      -283.3930
  16   1.0000     -10.375905      -282.3427
  17   1.0000     -10.372899      -282.2609
  18   1.0000      -1.219682       -33.1892
  19   1.0000      -1.211812       -32.9751
  20   1.0000      -1.191927       -32.4340
  21   1.0000      -1.189416       -32.3657
  22   1.0000      -1.115920       -30.3657
  23   1.0000      -1.094977       -29.7958
  24   1.0000      -1.063806       -28.9476
  25   1.0000      -1.053097       -28.6562
  26   1.0000      -0.975764       -26.5519
  27   1.0000      -0.953355       -25.9421
  28   1.0000      -0.883484       -24.0408
  29   1.0000      -0.840136       -22.8613
  30   1.0000      -0.829155       -22.5625
  31   1.0000      -0.804211       -21.8837
  32   1.0000      -0.783635       -21.3238
  33   1.0000      -0.776241       -21.1226
  34   1.0000      -0.699301       -19.0289
  35   1.0000      -0.691747       -18.8234
  36   1.0000      -0.684110       -18.6156
  37   1.0000      -0.662591       -18.0300
  38   1.0000      -0.651226       -17.7208
  39   1.0000      -0.646680       -17.5970
  40   1.0000      -0.617064       -16.7912
  41   1.0000      -0.603303       -16.4167
  42   1.0000      -0.589423       -16.0390
  43   1.0000      -0.583175       -15.8690
  44   1.0000      -0.580842       -15.8055
  45   1.0000      -0.569333       -15.4923
  46   1.0000      -0.564520       -15.3614
  47   1.0000      -0.557235       -15.1631
  48   1.0000      -0.555644       -15.1198
  49   1.0000      -0.549822       -14.9614
  50   1.0000      -0.545236       -14.8366
  51   1.0000      -0.541801       -14.7431
  52   1.0000      -0.531769       -14.4702
  53   1.0000      -0.525493       -14.2994
  54   1.0000      -0.513705       -13.9786
  55   1.0000      -0.507142       -13.8000
  56   1.0000      -0.489926       -13.3316
  57   1.0000      -0.420451       -11.4411
  58   1.0000      -0.416345       -11.3293
  59   1.0000      -0.408247       -11.1090
  60   1.0000      -0.406435       -11.0596
  61   1.0000      -0.394795       -10.7429
  62   1.0000      -0.392181       -10.6718
  63   1.0000      -0.387523       -10.5450
  64   1.0000      -0.382713       -10.4142
  65   1.0000      -0.340086        -9.2542
  66   1.0000      -0.328736        -8.9454
  67   0.0000       0.005910         0.1608
  68   0.0000       0.028364         0.7718
  69   0.0000       0.031462         0.8561
  70   0.0000       0.039453         1.0736
  71   0.0000       0.055412         1.5078

                 SPIN DOWN ORBITALS
  NO   OCC          E(Eh)            E(eV)
   0   1.0000     -19.328310      -525.9500
   1   1.0000     -19.327098      -525.9171
   2   1.0000     -19.319949      -525.7225
   3   1.0000     -19.313754      -525.5540
   4   1.0000     -14.564398      -396.3174
   5   1.0000     -14.559958      -396.1966
   6   1.0000     -14.558159      -396.1477
   7   1.0000     -14.556961      -396.1151
   8   1.0000     -10.503799      -285.8229
   9   1.0000     -10.500756      -285.7401
  10   1.0000     -10.481007      -285.2027
  11   1.0000     -10.479805      -285.1700
  12   1.0000     -10.449347      -284.3412
  13   1.0000     -10.448244      -284.3112
  14   1.0000     -10.413567      -283.3676
  15   1.0000     -10.403133      -283.0836
  16   1.0000     -10.376490      -282.3587
  17   1.0000     -10.373468      -282.2764
  18   1.0000      -1.218312       -33.1520
  19   1.0000      -1.209952       -32.9245
  20   1.0000      -1.185976       -32.2720
  21   1.0000      -1.184066       -32.2201
  22   1.0000      -1.113391       -30.2969
  23   1.0000      -1.092636       -29.7321
  24   1.0000      -1.061979       -28.8979
  25   1.0000      -1.051541       -28.6139
  26   1.0000      -0.961223       -26.1562
  27   1.0000      -0.936594       -25.4860
  28   1.0000      -0.879303       -23.9270
  29   1.0000      -0.835123       -22.7249
  30   1.0000      -0.820336       -22.3225
  31   1.0000      -0.798634       -21.7319
  32   1.0000      -0.782337       -21.2885
  33   1.0000      -0.774721       -21.0812
  34   1.0000      -0.692738       -18.8504
  35   1.0000      -0.686221       -18.6730
  36   1.0000      -0.678421       -18.4608
  37   1.0000      -0.655623       -17.8404
  38   1.0000      -0.643924       -17.5221
  39   1.0000      -0.639739       -17.4082
  40   1.0000      -0.614549       -16.7227
  41   1.0000      -0.598683       -16.2910
  42   1.0000      -0.582493       -15.8504
  43   1.0000      -0.573892       -15.6164
  44   1.0000      -0.570655       -15.5283
  45   1.0000      -0.563108       -15.3229
  46   1.0000      -0.560047       -15.2396
  47   1.0000      -0.552535       -15.0353
  48   1.0000      -0.548945       -14.9376
  49   1.0000      -0.540588       -14.7102
  50   1.0000      -0.537466       -14.6252
  51   1.0000      -0.535332       -14.5671
  52   1.0000      -0.525513       -14.2999
  53   1.0000      -0.514720       -14.0062
  54   1.0000      -0.502949       -13.6859
  55   1.0000      -0.500631       -13.6229
  56   1.0000      -0.484568       -13.1858
  57   1.0000      -0.416084       -11.3222
  58   1.0000      -0.412336       -11.2202
  59   1.0000      -0.401652       -10.9295
  60   1.0000      -0.392717       -10.6864
  61   1.0000      -0.386223       -10.5097
  62   1.0000      -0.383328       -10.4309
  63   1.0000      -0.380583       -10.3562
  64   1.0000      -0.373051       -10.1512
  65   0.0000      -0.064434        -1.7533
  66   0.0000      -0.045771        -1.2455
  67   0.0000       0.005537         0.1507
  68   0.0000       0.028271         0.7693
  69   0.0000       0.031124         0.8469

----------------------------------------------------------------------------------------------------
          SPIN FLIP ABSORPTION SPECTRUM VIA TRANSITION ELECTRIC DIPOLE MOMENTS
----------------------------------------------------------------------------------------------------
     Transition      Energy     Energy  Wavelength fosc(D2)      D2        DX        DY        DZ
                      (eV)      (cm-1)    (nm)                 (au**2)    (au)      (au)      (au)
----------------------------------------------------------------------------------------------------
  1-3A  ->  2-3A    0.052354     422.3  23682.1   0.000000284   0.00022  -0.00742   0.00372  -0.01234

Dispersion correction             ... done (  0.1 sec)

MULLIKEN ATOMIC CHARGES AND SPIN DENSITIES
------------------------------------------
   0 O :   -0.685220    0.026216
   1 O :   -0.695003   -0.032355
   2 O :   -0.656110   -0.000411
   3 O :   -0.637408   -0.001579
   4 N :   -0.287577    0.008840
   5 N :   -0.303119   -0.000174
   6 N :    0.081389    0.000939
   7 N :    0.070277    0.003788
   8 C :    0.514070    0.479561
   9 C :    0.708208    0.488990
  10 C :   -0.014330   -0.199996
  11 C :    0.335419   -0.278537
  12 C :   -1.162803    0.031410
  13 C :   -1.171725   -0.000795
  14 C :    0.173183   -0.244846
  15 C :   -0.108323   -0.381996
  16 C :    0.396747    0.014601
  17 C :    0.367586    0.014695
  18 H :    0.613703    0.011615
  19 H :    0.508592   -0.003083
  20 H :    0.308240   -0.001812
  21 H :    0.214020    0.019684
  22 H :    0.314134    0.010079
  23 H :    0.331052    0.008782
  24 H :    0.259964    0.026951
  25 H :    0.309564   -0.007792
  26 H :    0.061783    0.001231
  27 H :    0.066741    0.000373
  28 H :    0.049132    0.003125
  29 H :    0.037813    0.002496
Sum of atomic charges       :    0.0000000

LOEWDIN ATOMIC CHARGES AND SPIN DENSITIES
-----------------------------------------
   0 O :    0.083268    0.023458
   1 O :    0.081727   -0.030304
   2 O :    0.088516    0.000083
   3 O :    0.102221   -0.001059
   4 N :    0.267057   -0.000330
   5 N :    0.267001   -0.001370
   6 N :    0.316934    0.001173
   7 N :    0.326046   -0.003511
   8 C :    0.011835    0.095702
   9 C :   -0.021103   -0.073124
  10 C :   -0.041608    0.001731
  11 C :   -0.083966   -0.003515
  12 C :    0.182470    0.013367
  13 C :    0.199490   -0.013607
  14 C :   -0.400231    0.009691
  15 C :   -0.406095   -0.018670
  16 C :   -0.490506   -0.000236
  17 C :   -0.487894   -0.000195
  18 H :    0.021310    0.000087
  19 H :    0.047775    0.000096
  20 H :    0.014984   -0.000073
  21 H :   -0.015718    0.004458
  22 H :    0.006334    0.003049
  23 H :    0.017505   -0.003926
  24 H :   -0.022464   -0.002914
  25 H :   -0.000076    0.000238
  26 H :   -0.036323    0.000015
  27 H :   -0.021874   -0.000120
  28 H :   -0.002052    0.000094
  29 H :   -0.004564   -0.000289

  Mayer bond orders larger than 0.100000
B(  0-O , 14-C ) :   1.3221 B(  1-O , 15-C ) :   1.3772 B(  2-O , 16-C ) :   1.5149
B(  3-O , 17-C ) :   1.5408 B(  4-N ,  5-N ) :   0.1200 B(  4-N ,  8-C ) :   0.2684
B(  4-N , 10-C ) :   0.2760 B(  4-N , 16-C ) :   1.0477 B(  4-N , 18-H ) :  -0.1162
B(  4-N , 26-H ) :   1.0899 B(  5-N ,  9-C ) :   0.3264 B(  5-N , 11-C ) :   0.1242
B(  5-N , 17-C ) :   1.1358 B(  5-N , 27-H ) :   1.0736 B(  6-N ,  8-C ) :  -0.1362
B(  6-N , 10-C ) :   0.1111 B(  6-N , 14-C ) :   1.0867 B(  6-N , 16-C ) :   0.9693
B(  6-N , 28-H ) :   1.0821 B(  7-N , 11-C ) :   0.1329 B(  7-N , 15-C ) :   0.9923
B(  7-N , 17-C ) :   0.9566 B(  7-N , 29-H ) :   1.0859 B(  8-C ,  9-C ) :   0.2077
B(  8-C , 12-C ) :   0.5858 B(  8-C , 14-C ) :   0.7564 B(  8-C , 18-H ) :  -0.1591
B(  9-C , 11-C ) :   0.2843 B(  9-C , 13-C ) :   0.5761 B(  9-C , 15-C ) :   0.6147
B( 10-C , 11-C ) :   0.7617 B( 10-C , 15-C ) :   0.1010 B( 10-C , 16-C ) :  -0.1087
B( 10-C , 18-H ) :   0.7216 B( 11-C , 15-C ) :  -0.1300 B( 11-C , 17-C ) :  -0.2001
B( 11-C , 19-H ) :   0.8140 B( 12-C , 20-H ) :   0.9774 B( 12-C , 21-H ) :   0.9039
B( 12-C , 22-H ) :   0.9719 B( 13-C , 23-H ) :   0.9428 B( 13-C , 24-H ) :   0.8222
B( 13-C , 25-H ) :   1.0104 B( 15-C , 17-C ) :  -0.1008

Dispersion correction           -0.058344968
FINAL SINGLE POINT ENERGY      -908.795052016108

DIPOLE MOMENT
-------------

Method             : TDA/CIS
Type of density    : Electron Density
Level              : Relaxed density
State              :   1
Multiplicity       :   3
Irrep              :   0
Energy             :     0.0000000000000000 Eh
Relativity type    :
Basis              : AO
                                X                 Y                 Z
Electronic contribution:     -2.743688990     -10.335530168      -7.244865259
Nuclear contribution   :      2.443678724      12.013897665      10.149797051
                        -----------------------------------------
Total Dipole Moment    :     -0.300010265       1.678367497       2.904931792
                        -----------------------------------------
Magnitude (a.u.)       :      3.368315949
Magnitude (Debye)      :      8.561578742

Rotational constants in cm-1:             0.018881             0.015264             0.012220
Rotational constants in MHz :           566.042634           457.591147           366.346076

                             ****ORCA TERMINATED NORMALLY****
TOTAL RUN TIME: 0 days 0 hours 4 minutes 32 seconds 218 msec
