                         Program Version 6.0.0  -   RELEASE  -
|  1> ! Engrad def2-TZVPPD wB97M-D3BJ
|  2> %pal nprocs 8 end%pal nprocs 64 end
|  3> %tddft
|  4>  Iroot 2 Nroots 3
|  5> sf true
|  6> end
|  7> *xyz 0 3
|  8> O   3.41376645 0.87859983 0.07282182
|  9> O   -0.78992976 0.69278243 -2.67971594
| 10> O   1.15246914 -2.91019019 -0.69870152
| 11> O   -3.64673928 -1.41743 0.07126473
| 12> N   0.23836593 -1.47323256 0.77658732
| 13> N   -2.1789301 0.06242368 0.96158296
| 14> N   1.94467693 -0.72960143 -0.62466567
| 15> N   -2.2002154 -0.4224656 -1.33675302
| 16> C   1.50992594 0.56649702 1.38591407
| 17> C   -0.65200812 1.28581928 -0.43767529
| 18> C   0.23509467 -0.21275522 1.47870856
| 19> C   -0.91995405 0.72159536 0.91223329
| 20> C   1.79420748 1.66723484 2.3035414
| 21> C   0.31585399 2.40320102 -0.65929091
| 22> C   2.40917102 0.25170255 0.28998641
| 23> C   -1.22505889 0.58639878 -1.56715898
| 24> C   1.19188162 -1.81206639 -0.2189729
| 25> C   -2.75738669 -0.5863379 -0.1125945
| 26> H   -0.15304883 -0.37979515 2.47284208
| 27> H   -1.02972267 1.52945069 1.60751724
| 28> H   1.8338847 1.37841687 3.32722499
| 29> H   2.75460715 2.15692692 2.03422276
| 30> H   0.98475791 2.35764034 2.44397637
| 31> H   0.03558646 3.17554945 -1.49254142
| 32> H   0.46870659 2.92548938 0.23543991
| 33> H   1.30241106 2.03182354 -0.90714034
| 34> H   -0.2256754 -2.30534456 1.04406626
| 35> H   -2.3854262 -0.22946098 1.87000349
| 36> H   2.71335839 -0.97031329 -1.27150822
| 37> H   -2.60785617 -0.86009458 -2.15893822
| 38> *
| 39>
| 40>                          ****END OF INPUT****

CARTESIAN COORDINATES (ANGSTROEM)
---------------------------------
  O      3.413766    0.878600    0.072822
  O     -0.789930    0.692782   -2.679716
  O      1.152469   -2.910190   -0.698702
  O     -3.646739   -1.417430    0.071265
  N      0.238366   -1.473233    0.776587
  N     -2.178930    0.062424    0.961583
  N      1.944677   -0.729601   -0.624666
  N     -2.200215   -0.422466   -1.336753
  C      1.509926    0.566497    1.385914
  C     -0.652008    1.285819   -0.437675
  C      0.235095   -0.212755    1.478709
  C     -0.919954    0.721595    0.912233
  C      1.794207    1.667235    2.303541
  C      0.315854    2.403201   -0.659291
  C      2.409171    0.251703    0.289986
  C     -1.225059    0.586399   -1.567159
  C      1.191882   -1.812066   -0.218973
  C     -2.757387   -0.586338   -0.112595
  H     -0.153049   -0.379795    2.472842
  H     -1.029723    1.529451    1.607517
  H      1.833885    1.378417    3.327225
  H      2.754607    2.156927    2.034223
  H      0.984758    2.357640    2.443976
  H      0.035586    3.175549   -1.492541
  H      0.468707    2.925489    0.235440
  H      1.302411    2.031824   -0.907140
  H     -0.225675   -2.305345    1.044066
  H     -2.385426   -0.229461    1.870003
  H      2.713358   -0.970313   -1.271508
  H     -2.607856   -0.860095   -2.158938

 Total Charge           Charge          ....    0
 Multiplicity           Mult            ....    3
 Number of Electrons    NEL             ....  132
 Basis Dimension        Dim             ....  882

ORBITAL ENERGIES
----------------
                 SPIN UP ORBITALS
  NO   OCC          E(Eh)            E(eV)
   0   1.0000     -19.348307      -526.4942
   1   1.0000     -19.331156      -526.0275
   2   1.0000     -19.325618      -525.8768
   3   1.0000     -19.304363      -525.2984
   4   1.0000     -14.570758      -396.4905
   5   1.0000     -14.559985      -396.1973
   6   1.0000     -14.552771      -396.0010
   7   1.0000     -14.551421      -395.9643
   8   1.0000     -10.506251      -285.8896
   9   1.0000     -10.498034      -285.6660
  10   1.0000     -10.490894      -285.4717
  11   1.0000     -10.475452      -285.0515
  12   1.0000     -10.446132      -284.2537
  13   1.0000     -10.432779      -283.8904
  14   1.0000     -10.426235      -283.7123
  15   1.0000     -10.416944      -283.4595
  16   1.0000     -10.378972      -282.4262
  17   1.0000     -10.372771      -282.2574
  18   1.0000      -1.229840       -33.4657
  19   1.0000      -1.217145       -33.1202
  20   1.0000      -1.211041       -32.9541
  21   1.0000      -1.190924       -32.4067
  22   1.0000      -1.115896       -30.3651
  23   1.0000      -1.096379       -29.8340
  24   1.0000      -1.066095       -29.0099
  25   1.0000      -1.054177       -28.6856
  26   1.0000      -0.985863       -26.8267
  27   1.0000      -0.953325       -25.9413
  28   1.0000      -0.889849       -24.2140
  29   1.0000      -0.848597       -23.0915
  30   1.0000      -0.829529       -22.5726
  31   1.0000      -0.801173       -21.8010
  32   1.0000      -0.783721       -21.3261
  33   1.0000      -0.776494       -21.1295
  34   1.0000      -0.702795       -19.1240
  35   1.0000      -0.696880       -18.9631
  36   1.0000      -0.691153       -18.8072
  37   1.0000      -0.677286       -18.4299
  38   1.0000      -0.652714       -17.7612
  39   1.0000      -0.638137       -17.3646
  40   1.0000      -0.621754       -16.9188
  41   1.0000      -0.606138       -16.4939
  42   1.0000      -0.602741       -16.4014
  43   1.0000      -0.586101       -15.9486
  44   1.0000      -0.579133       -15.7590
  45   1.0000      -0.576327       -15.6827
  46   1.0000      -0.568542       -15.4708
  47   1.0000      -0.565571       -15.3900
  48   1.0000      -0.558752       -15.2044
  49   1.0000      -0.552454       -15.0330
  50   1.0000      -0.549073       -14.9410
  51   1.0000      -0.540930       -14.7195
  52   1.0000      -0.535828       -14.5806
  53   1.0000      -0.525540       -14.3007
  54   1.0000      -0.514188       -13.9918
  55   1.0000      -0.508345       -13.8328
  56   1.0000      -0.494259       -13.4495
  57   1.0000      -0.436742       -11.8844
  58   1.0000      -0.416226       -11.3261
  59   1.0000      -0.410244       -11.1633
  60   1.0000      -0.404084       -10.9957
  61   1.0000      -0.400432       -10.8963
  62   1.0000      -0.390489       -10.6258
  63   1.0000      -0.384452       -10.4615
  64   1.0000      -0.376584       -10.2474
  65   1.0000      -0.348839        -9.4924
  66   1.0000      -0.323373        -8.7994
  67   0.0000       0.006737         0.1833
  68   0.0000       0.029670         0.8074
  69   0.0000       0.032410         0.8819
  70   0.0000       0.035867         0.9760
  71   0.0000       0.053983         1.4689

                 SPIN DOWN ORBITALS
  NO   OCC          E(Eh)            E(eV)
   0   1.0000     -19.343707      -526.3690
   1   1.0000     -19.326709      -525.9065
   2   1.0000     -19.325595      -525.8762
   3   1.0000     -19.304233      -525.2949
   4   1.0000     -14.570237      -396.4763
   5   1.0000     -14.559587      -396.1865
   6   1.0000     -14.552459      -395.9925
   7   1.0000     -14.551360      -395.9626
   8   1.0000     -10.506276      -285.8903
   9   1.0000     -10.498075      -285.6672
  10   1.0000     -10.491826      -285.4971
  11   1.0000     -10.476483      -285.0796
  12   1.0000     -10.445643      -284.2404
  13   1.0000     -10.432249      -283.8759
  14   1.0000     -10.415226      -283.4127
  15   1.0000     -10.405570      -283.1500
  16   1.0000     -10.379550      -282.4419
  17   1.0000     -10.373353      -282.2733
  18   1.0000      -1.226008       -33.3614
  19   1.0000      -1.212640       -32.9976
  20   1.0000      -1.207896       -32.8685
  21   1.0000      -1.188242       -32.3337
  22   1.0000      -1.113188       -30.2914
  23   1.0000      -1.094442       -29.7813
  24   1.0000      -1.064453       -28.9652
  25   1.0000      -1.052960       -28.6525
  26   1.0000      -0.972463       -26.4621
  27   1.0000      -0.936129       -25.4734
  28   1.0000      -0.884733       -24.0748
  29   1.0000      -0.841657       -22.9027
  30   1.0000      -0.820720       -22.3329
  31   1.0000      -0.796687       -21.6790
  32   1.0000      -0.782223       -21.2854
  33   1.0000      -0.774485       -21.0748
  34   1.0000      -0.697743       -18.9866
  35   1.0000      -0.690895       -18.8002
  36   1.0000      -0.686044       -18.6682
  37   1.0000      -0.672121       -18.2893
  38   1.0000      -0.637669       -17.3519
  39   1.0000      -0.633652       -17.2426
  40   1.0000      -0.618892       -16.8409
  41   1.0000      -0.601632       -16.3712
  42   1.0000      -0.595464       -16.2034
  43   1.0000      -0.579507       -15.7692
  44   1.0000      -0.574217       -15.6252
  45   1.0000      -0.571158       -15.5420
  46   1.0000      -0.556847       -15.1526
  47   1.0000      -0.555481       -15.1154
  48   1.0000      -0.551735       -15.0135
  49   1.0000      -0.546330       -14.8664
  50   1.0000      -0.540045       -14.6954
  51   1.0000      -0.537231       -14.6188
  52   1.0000      -0.526043       -14.3144
  53   1.0000      -0.517058       -14.0699
  54   1.0000      -0.509346       -13.8600
  55   1.0000      -0.497953       -13.5500
  56   1.0000      -0.488587       -13.2951
  57   1.0000      -0.428760       -11.6672
  58   1.0000      -0.409544       -11.1443
  59   1.0000      -0.402451       -10.9513
  60   1.0000      -0.397643       -10.8204
  61   1.0000      -0.397247       -10.8096
  62   1.0000      -0.381304       -10.3758
  63   1.0000      -0.377732       -10.2786
  64   1.0000      -0.367665       -10.0047
  65   0.0000      -0.067351        -1.8327
  66   0.0000      -0.050537        -1.3752
  67   0.0000       0.006047         0.1645
  68   0.0000       0.029310         0.7976
  69   0.0000       0.032057         0.8723

----------------------------------------------------------------------------------------------------
          SPIN FLIP ABSORPTION SPECTRUM VIA TRANSITION ELECTRIC DIPOLE MOMENTS
----------------------------------------------------------------------------------------------------
     Transition      Energy     Energy  Wavelength fosc(D2)      D2        DX        DY        DZ
                      (eV)      (cm-1)    (nm)                 (au**2)    (au)      (au)      (au)
----------------------------------------------------------------------------------------------------
  1-3A  ->  2-3A    0.075836     611.7  16349.1   0.000021512   0.01158   0.10354  -0.01046   0.02734
  1-3A  ->  3-1A    2.158557   17409.9   574.4   0.041346003   0.78183   0.79870   0.09033   0.36843

Dispersion correction             ... done (  0.1 sec)

MULLIKEN ATOMIC CHARGES AND SPIN DENSITIES
------------------------------------------
   0 O :   -0.631679    0.084316
   1 O :   -0.660315   -0.083890
   2 O :   -0.637058    0.000214
   3 O :   -0.693582    0.001232
   4 N :   -0.164339    0.000438
   5 N :   -0.269935   -0.007555
   6 N :    0.096982    0.003176
   7 N :    0.033454   -0.009665
   8 C :    0.148595    0.353584
   9 C :    0.712899    0.408213
  10 C :    0.251653   -0.075885
  11 C :    0.274680   -0.362907
  12 C :   -1.265360    0.005390
  13 C :   -1.448591   -0.028250
  14 C :    0.145338   -0.010068
  15 C :   -0.128382   -0.295875
  16 C :    0.345983   -0.000391
  17 C :    0.416838    0.020503
  18 H :    0.670572    0.011587
  19 H :    0.623212   -0.036967
  20 H :    0.318190    0.014811
  21 H :    0.300964    0.000897
  22 H :    0.310629    0.015851
  23 H :    0.345787   -0.010270
  24 H :    0.366155    0.006035
  25 H :    0.296715   -0.012285
  26 H :    0.000327    0.000452
  27 H :    0.026784    0.003636
  28 H :    0.139472    0.000233
  29 H :    0.074015    0.003438
Sum of atomic charges       :    0.0000000

LOEWDIN ATOMIC CHARGES AND SPIN DENSITIES
-----------------------------------------
   0 O :    0.103993    0.073705
   1 O :    0.103072   -0.072254
   2 O :    0.108441    0.000142
   3 O :    0.051407    0.001051
   4 N :    0.299461   -0.000865
   5 N :    0.290570    0.002066
   6 N :    0.326153    0.002971
   7 N :    0.328683   -0.011018
   8 C :   -0.033576    0.250823
   9 C :    0.014653   -0.238325
  10 C :   -0.085641    0.008864
  11 C :   -0.137332   -0.017066
  12 C :    0.197158    0.040267
  13 C :    0.201450   -0.033499
  14 C :   -0.421958    0.040630
  15 C :   -0.407437   -0.048383
  16 C :   -0.463218   -0.000346
  17 C :   -0.476737   -0.000242
  18 H :    0.048142    0.001919
  19 H :    0.034177   -0.005613
  20 H :   -0.011805    0.012217
  21 H :    0.029866   -0.000529
  22 H :   -0.015403    0.010506
  23 H :    0.076249   -0.006010
  24 H :   -0.048703    0.000261
  25 H :   -0.013213   -0.011304
  26 H :   -0.050856    0.000068
  27 H :   -0.065006    0.000496
  28 H :    0.012464    0.000394
  29 H :    0.004946   -0.000927

  Mayer bond orders larger than 0.100000
B(  0-O , 14-C ) :   1.4446 B(  1-O , 15-C ) :   1.4268 B(  2-O , 16-C ) :   1.5374
B(  3-O , 17-C ) :   1.5628 B(  4-N ,  8-C ) :   0.1373 B(  4-N , 10-C ) :   0.5597
B(  4-N , 16-C ) :   1.0572 B(  4-N , 26-H ) :   1.1203 B(  5-N ,  9-C ) :   0.1645
B(  5-N , 10-C ) :   0.1321 B(  5-N , 17-C ) :   1.1276 B(  5-N , 27-H ) :   1.1451
B(  6-N ,  8-C ) :  -0.1318 B(  6-N , 10-C ) :   0.1143 B(  6-N , 14-C ) :   1.0595
B(  6-N , 16-C ) :   1.0156 B(  6-N , 28-H ) :   0.9699 B(  7-N , 15-C ) :   1.0314
B(  7-N , 17-C ) :   1.0323 B(  7-N , 29-H ) :   1.0710 B(  8-C ,  9-C ) :   0.1992
B(  8-C , 10-C ) :   0.6362 B(  8-C , 11-C ) :   0.1315 B(  8-C , 12-C ) :   0.4983
B(  8-C , 14-C ) :   0.7280 B(  8-C , 16-C ) :   0.1013 B(  9-C , 11-C ) :   0.5128
B(  9-C , 13-C ) :   0.2526 B(  9-C , 15-C ) :   0.6090 B(  9-C , 17-C ) :   0.1117
B(  9-C , 19-H ) :  -0.2851 B(  9-C , 24-H ) :  -0.1781 B( 10-C , 11-C ) :   0.6327
B( 10-C , 14-C ) :  -0.1476 B( 10-C , 16-C ) :  -0.1671 B( 10-C , 18-H ) :   0.5451
B( 11-C , 13-C ) :  -0.1858 B( 11-C , 15-C ) :  -0.1153 B( 11-C , 17-C ) :  -0.2666
B( 11-C , 19-H ) :   0.6962 B( 12-C , 20-H ) :   0.9526 B( 12-C , 21-H ) :   0.9514
B( 12-C , 22-H ) :   0.8944 B( 13-C , 14-C ) :   0.1385 B( 13-C , 15-C ) :   0.1263
B( 13-C , 23-H ) :   0.9043 B( 13-C , 24-H ) :   1.1044 B( 13-C , 25-H ) :   0.8413

Dispersion correction           -0.059537813
FINAL SINGLE POINT ENERGY      -908.774805126901

DIPOLE MOMENT
-------------

Method             : TDA/CIS
Type of density    : Electron Density
Level              : Relaxed density
State              :   2
Multiplicity       :   3
Irrep              :   0
Energy             :     0.0000000000000000 Eh
Relativity type    :
Basis              : AO
                                X                 Y                 Z
Electronic contribution:     -3.156882103      -9.014660332      -6.492546758
Nuclear contribution   :      3.548716256      10.563142456       8.814523645
                        -----------------------------------------
Total Dipole Moment    :      0.391834153       1.548482124       2.321976887
                        -----------------------------------------
Magnitude (a.u.)       :      2.818316440
Magnitude (Debye)      :      7.163591090

Rotational constants in cm-1:             0.021453             0.012675             0.011875
Rotational constants in MHz :           643.133750           379.977368           355.995793

                             ****ORCA TERMINATED NORMALLY****
TOTAL RUN TIME: 0 days 0 hours 4 minutes 59 seconds 511 msec
