                         Program Version 6.0.0  -   RELEASE  -
|  1> ! Engrad wB97M-D3BJ def2-TZVPPD
|  2> %pal nprocs 8 end%pal nprocs 16 end
|  3> %tddft nroots 2 Iroot 1
|  4>  sf true
|  5> end
|  6> *xyz 0 3
|  7> O   0.36697830137089 0.93006150839828 -0.00034548909656
|  8> C   0.73512331010449 -0.3666205150644 -0.00013009362684
|  9> C   -0.67074552472979 -0.54436928567605 -0.00014532067911
| 10> H   1.26935612228399 -0.70419199484327 0.89325992805004
| 11> H   1.26970852925442 -0.70459329313556 -0.89316150731315
| 12> H   -1.21718309293053 -0.56687522793385 -0.92805539577289
| 13> H   -1.2159169357911 -0.56540602703629 0.92857787843851
| 14> *
| 15>
| 16>                          ****END OF INPUT****

CARTESIAN COORDINATES (ANGSTROEM)
---------------------------------
  O      0.366978    0.930062   -0.000345
  C      0.735123   -0.366621   -0.000130
  C     -0.670746   -0.544369   -0.000145
  H      1.269356   -0.704192    0.893260
  H      1.269709   -0.704593   -0.893162
  H     -1.217183   -0.566875   -0.928055
  H     -1.215917   -0.565406    0.928578

 Total Charge           Charge          ....    0
 Multiplicity           Mult            ....    3
 Number of Electrons    NEL             ....   24
 Basis Dimension        Dim             ....  182

ORBITAL ENERGIES
----------------
                 SPIN UP ORBITALS
  NO   OCC          E(Eh)            E(eV)
   0   1.0000     -19.422066      -528.5013
   1   1.0000     -10.408576      -283.2317
   2   1.0000     -10.334331      -281.2114
   3   1.0000      -1.233875       -33.5754
   4   1.0000      -0.861419       -23.4404
   5   1.0000      -0.747379       -20.3372
   6   1.0000      -0.654577       -17.8119
   7   1.0000      -0.618442       -16.8287
   8   1.0000      -0.549885       -14.9631
   9   1.0000      -0.501012       -13.6332
  10   1.0000      -0.464702       -12.6452
  11   1.0000      -0.449473       -12.2308
  12   1.0000      -0.235130        -6.3982
  13   0.0000       0.040173         1.0932
  14   0.0000       0.063595         1.7305
  15   0.0000       0.072152         1.9634
  16   0.0000       0.085555         2.3281
  17   0.0000       0.114965         3.1284

                 SPIN DOWN ORBITALS
  NO   OCC          E(Eh)            E(eV)
   0   1.0000     -19.391537      -527.6706
   1   1.0000     -10.409560      -283.2585
   2   1.0000     -10.322131      -280.8795
   3   1.0000      -1.170252       -31.8442
   4   1.0000      -0.826833       -22.4993
   5   1.0000      -0.727258       -19.7897
   6   1.0000      -0.608028       -16.5453
   7   1.0000      -0.581734       -15.8298
   8   1.0000      -0.522295       -14.2124
   9   1.0000      -0.471161       -12.8209
  10   1.0000      -0.400328       -10.8935
  11   0.0000      -0.084532        -2.3002
  12   0.0000       0.037551         1.0218
  13   0.0000       0.047915         1.3038
  14   0.0000       0.062868         1.7107
  15   0.0000       0.069700         1.8966

----------------------------------------------------------------------------------------------------
          SPIN FLIP ABSORPTION SPECTRUM VIA TRANSITION ELECTRIC DIPOLE MOMENTS
----------------------------------------------------------------------------------------------------
     Transition      Energy     Energy  Wavelength fosc(D2)      D2        DX        DY        DZ
                      (eV)      (cm-1)    (nm)                 (au**2)    (au)      (au)      (au)
----------------------------------------------------------------------------------------------------
  1-3A  ->  2-3A    5.081994   40989.1   244.0   0.226592085   1.81992   0.88405   1.01900  -0.00050

Dispersion correction             ... done (  0.0 sec)

MULLIKEN ATOMIC CHARGES AND SPIN DENSITIES
------------------------------------------
   0 O :   -0.471692   -0.015481
   1 C :   -0.143336   -0.068432
   2 C :   -0.338230   -0.003256
   3 H :    0.224628    0.030545
   4 H :    0.224768    0.030516
   5 H :    0.251871    0.013012
   6 H :    0.251991    0.013096
Sum of atomic charges       :    0.0000000

LOEWDIN ATOMIC CHARGES AND SPIN DENSITIES
-----------------------------------------
   0 O :   -0.057955   -0.051452
   1 C :   -0.287777   -0.007792
   2 C :    0.285828    0.045559
   3 H :    0.029702    0.005293
   4 H :    0.029705    0.005279
   5 H :    0.000256    0.001556
   6 H :    0.000241    0.001555

  Mayer bond orders larger than 0.100000
B(  0-O ,  1-C ) :   0.7394 B(  0-O ,  2-C ) :   0.9136 B(  1-C ,  2-C ) :   0.7904
B(  1-C ,  3-H ) :   1.0326 B(  1-C ,  4-H ) :   1.0323 B(  2-C ,  5-H ) :   0.9339
B(  2-C ,  6-H ) :   0.9339

Dispersion correction           -0.005387342
FINAL SINGLE POINT ENERGY      -153.830466269642

DIPOLE MOMENT
-------------

Method             : TDA/CIS
Type of density    : Electron Density
Level              : Relaxed density
State              :   1
Multiplicity       :   3
Irrep              :   0
Energy             :     0.0000000000000000 Eh
Relativity type    :
Basis              : AO
                                X                 Y                 Z
Electronic contribution:      0.065449715       1.275346674      -0.001042906
Nuclear contribution   :     -0.472546344      -2.487956880       0.001279509
                        -----------------------------------------
Total Dipole Moment    :     -0.407096628      -1.212610205       0.000236603
                        -----------------------------------------
Magnitude (a.u.)       :      1.279121273
Magnitude (Debye)      :      3.251267893

Rotational constants in cm-1:             0.976983             0.575335             0.422880
Rotational constants in MHz :         29289.209003         17248.096569         12677.623156

                             ****ORCA TERMINATED NORMALLY****
TOTAL RUN TIME: 0 days 0 hours 0 minutes 16 seconds 558 msec
