                         Program Version 6.0.0  -   RELEASE  -
|  1> ! opt def2-TZVPPD wB97M-D3BJ
|  2> %pal nprocs 8 end%pal nprocs 32 end
|  3> %geom Constraints
|  4> {B 9 8 2.9 C}
|  5> {A 8 9 11 43.14285714285714 C}
|  6> end
|  7> MaxIter 300
|  8> end
|  9> *xyz 0 1
| 10> O   2.98579685529314 0.88758230159078 -0.86184571092411
| 11> O   -0.03983205397054 0.68929041702508 -2.10362336723772
| 12> O   0.93431434349854 -3.13274393337945 -0.68767288184107
| 13> O   -3.75829998830163 -0.84727300865116 -0.0472717177755
| 14> N   0.21184538946282 -1.54604804365365 0.7617588924445
| 15> N   -2.13631993928911 0.03188773433438 1.27350571071531
| 16> N   2.02598672506387 -1.14318467211666 -0.64531219127023
| 17> N   -1.91814233924584 0.03137116037665 -1.04498946748291
| 18> C   1.18097737274226 0.71693507080484 0.70173889017321
| 19> C   -0.20686880480777 1.27024627933494 0.21345042231937
| 20> C   0.41441080275909 -0.34173258966541 1.52336266615173
| 21> C   -0.82922175114212 0.58960593673968 1.44434972027296
| 22> C   1.92822011286806 1.69488653817281 1.5963734975385
| 23> C   -0.37809776891576 2.77134929626422 0.04819649358288
| 24> C   2.1403947470937 0.1972384729179 -0.35038567829864
| 25> C   -0.67361678962426 0.6214190571346 -1.0793014500539
| 26> C   1.04142578622994 -2.02697492875068 -0.21027082435993
| 27> C   -2.68467002550422 -0.30396816036989 0.07167054343891
| 28> H   0.80817443950001 -0.54572267081061 2.51895215321335
| 29> H   -0.83785272399001 1.27240685039143 2.28901317073582
| 30> H   2.31167340578204 2.52284411740894 1.00913016264629
| 31> H   1.28982602448342 2.08257620823614 2.38710022492991
| 32> H   2.77390820759972 1.19140411795486 2.06045858523949
| 33> H   -1.41857211141493 3.00964947214868 -0.16882755561625
| 34> H   -0.09065531563179 3.29799318042223 0.95389844358819
| 35> H   0.23426221611057 3.12492645074476 -0.77764887675592
| 36> H   -0.46772570547622 -2.21560145172536 1.0787081584806
| 37> H   -2.71769301149571 -0.17090724573546 2.06627440900372
| 38> H   2.60065167263658 -1.49057255715425 -1.3966820077142
| 39> H   -2.27169977231386 -0.32388339999036 -1.91951041514436
| 40> *
| 41>
| 42>                          ****END OF INPUT****
 Total Charge           Charge          ....    0
 Multiplicity           Mult            ....    1
 Number of Electrons    NEL             ....  132
Dispersion correction           -0.053605769
FINAL SINGLE POINT ENERGY      -908.574311936179
Dispersion correction             ... done (  0.0 sec)
Dispersion correction           -0.053949150
FINAL SINGLE POINT ENERGY      -908.617828123046
Dispersion correction             ... done (  0.0 sec)
Dispersion correction           -0.054381612
FINAL SINGLE POINT ENERGY      -908.647942142760
Dispersion correction             ... done (  0.0 sec)
FINAL SINGLE POINT ENERGY      -908.680465219871
FINAL SINGLE POINT ENERGY      -908.711270375851
FINAL SINGLE POINT ENERGY      -908.726527941292
FINAL SINGLE POINT ENERGY      -908.736073487298
FINAL SINGLE POINT ENERGY      -908.740656660221
FINAL SINGLE POINT ENERGY      -908.742559746072
FINAL SINGLE POINT ENERGY      -908.743594145557
FINAL SINGLE POINT ENERGY      -908.746360678363
FINAL SINGLE POINT ENERGY      -908.746449802039
FINAL SINGLE POINT ENERGY      -908.746506871868
FINAL SINGLE POINT ENERGY      -908.746538352371
FINAL SINGLE POINT ENERGY      -908.746554473727
FINAL SINGLE POINT ENERGY      -908.746565738973
FINAL SINGLE POINT ENERGY      -908.746572560079
Dispersion correction             ... done (  0.0 sec)
Dispersion correction           -0.058038224
FINAL SINGLE POINT ENERGY      -908.746576618716
Dispersion correction             ... done (  0.0 sec)
Dispersion correction           -0.058041723
FINAL SINGLE POINT ENERGY      -908.746578974962
Dispersion correction             ... done (  0.0 sec)
                    ***********************HURRAY********************

CARTESIAN COORDINATES (ANGSTROEM)
---------------------------------
  O      3.552933    0.857944    0.186745
  O     -1.370206    0.628500   -2.540492
  O      1.101547   -2.535239   -1.564798
  O     -3.779221   -0.668319    0.997790
  N      0.297653   -1.489278    0.277476
  N     -1.912561    0.586201    1.403690
  N      2.366647   -0.907116   -0.611546
  N     -2.292672   -0.341548   -0.695942
  C      1.544940    0.322582    1.294712
  C     -0.586781    1.311048   -0.404906
  C      0.333216   -0.470317    1.281162
  C     -0.456985    0.777848    1.000144
  C      1.923636    1.184884    2.435875
  C     -0.368959    2.742994   -0.709286
  C      2.563676    0.152061    0.257516
  C     -1.393977    0.519662   -1.333978
  C      1.233489   -1.704866   -0.697584
  C     -2.738774   -0.174057    0.623188
  H      0.084760   -0.877716    2.264009
  H     -0.147041    1.604795    1.624194
  H      2.070279    2.217751    2.114571
  H      1.191065    1.152379    3.237943
  H      2.893292    0.858876    2.815092
  H     -1.269457    3.335443   -0.504937
  H      0.448275    3.159409   -0.124781
  H     -0.154642    2.859156   -1.770123
  H     -0.554755   -2.002013    0.141030
  H     -2.224492    0.664788    2.358206
  H      3.037794   -1.024079   -1.352815
  H     -2.940079   -0.826777   -1.297553

 Multiplicity           Mult            ....    1
 Number of Electrons    NEL             ....  132
 Basis Dimension        Dim             ....  882

ORBITAL ENERGIES
----------------

  NO   OCC          E(Eh)            E(eV)
   0   2.0000     -19.332750      -526.0709
   1   2.0000     -19.332696      -526.0694
   2   2.0000     -19.323328      -525.8145
   3   2.0000     -19.317689      -525.6610
   4   2.0000     -14.563586      -396.2953
   5   2.0000     -14.563371      -396.2895
   6   2.0000     -14.560135      -396.2014
   7   2.0000     -14.548222      -395.8772
   8   2.0000     -10.506107      -285.8857
   9   2.0000     -10.503720      -285.8207
  10   2.0000     -10.487409      -285.3769
  11   2.0000     -10.481748      -285.2229
  12   2.0000     -10.449624      -284.3487
  13   2.0000     -10.444265      -284.2029
  14   2.0000     -10.442559      -284.1565
  15   2.0000     -10.419443      -283.5275
  16   2.0000     -10.392356      -282.7904
  17   2.0000     -10.371698      -282.2283
  18   2.0000      -1.221092       -33.2276
  19   2.0000      -1.217395       -33.1270
  20   2.0000      -1.196829       -32.5674
  21   2.0000      -1.195461       -32.5301
  22   2.0000      -1.122295       -30.5392
  23   2.0000      -1.095453       -29.8088
  24   2.0000      -1.066936       -29.0328
  25   2.0000      -1.053050       -28.6549
  26   2.0000      -1.002898       -27.2902
  27   2.0000      -0.950281       -25.8585
  28   2.0000      -0.898129       -24.4393
  29   2.0000      -0.845254       -23.0005
  30   2.0000      -0.824655       -22.4400
  31   2.0000      -0.803921       -21.8758
  32   2.0000      -0.787815       -21.4375
  33   2.0000      -0.776835       -21.1387
  34   2.0000      -0.709568       -19.3083
  35   2.0000      -0.700110       -19.0510
  36   2.0000      -0.688184       -18.7264
  37   2.0000      -0.676116       -18.3980
  38   2.0000      -0.651955       -17.7406
  39   2.0000      -0.629801       -17.1377
  40   2.0000      -0.625859       -17.0305
  41   2.0000      -0.600226       -16.3330
  42   2.0000      -0.593629       -16.1535
  43   2.0000      -0.588204       -16.0059
  44   2.0000      -0.580365       -15.7925
  45   2.0000      -0.572948       -15.5907
  46   2.0000      -0.570041       -15.5116
  47   2.0000      -0.563897       -15.3444
  48   2.0000      -0.554719       -15.0947
  49   2.0000      -0.550664       -14.9843
  50   2.0000      -0.545589       -14.8462
  51   2.0000      -0.540806       -14.7161
  52   2.0000      -0.534234       -14.5372
  53   2.0000      -0.523120       -14.2348
  54   2.0000      -0.515423       -14.0254
  55   2.0000      -0.508128       -13.8269
  56   2.0000      -0.496355       -13.5065
  57   2.0000      -0.422830       -11.5058
  58   2.0000      -0.420224       -11.4349
  59   2.0000      -0.407057       -11.0766
  60   2.0000      -0.399882       -10.8813
  61   2.0000      -0.393591       -10.7102
  62   2.0000      -0.391432       -10.6514
  63   2.0000      -0.388321       -10.5667
  64   2.0000      -0.377412       -10.2699
  65   2.0000      -0.282033        -7.6745
  66   0.0000      -0.111344        -3.0298
  67   0.0000       0.008568         0.2332
  68   0.0000       0.028416         0.7732
  69   0.0000       0.032319         0.8794
  70   0.0000       0.033906         0.9226

MULLIKEN ATOMIC CHARGES
-----------------------
   0 O :   -0.676710
   1 O :   -0.644214
   2 O :   -0.651342
   3 O :   -0.646892
   4 N :   -0.193644
   5 N :   -0.345838
   6 N :   -0.049728
   7 N :   -0.013526
   8 C :    0.117708
   9 C :    0.255627
  10 C :    0.793278
  11 C :    0.383936
  12 C :   -1.674205
  13 C :   -1.555229
  14 C :    0.462587
  15 C :    0.153084
  16 C :    0.474315
  17 C :    0.354784
  18 H :    0.433263
  19 H :    0.641793
  20 H :    0.322611
  21 H :    0.352635
  22 H :    0.418623
  23 H :    0.362586
  24 H :    0.314088
  25 H :    0.353791
  26 H :    0.092978
  27 H :    0.070746
  28 H :    0.033213
  29 H :    0.059684
Sum of atomic charges:   -0.0000000

LOEWDIN ATOMIC CHARGES
----------------------
   0 O :    0.091689
   1 O :    0.111122
   2 O :    0.097261
   3 O :    0.085552
   4 N :    0.305401
   5 N :    0.294219
   6 N :    0.330557
   7 N :    0.310821
   8 C :   -0.034579
   9 C :    0.004089
  10 C :   -0.139932
  11 C :   -0.146638
  12 C :    0.194778
  13 C :    0.187378
  14 C :   -0.391409
  15 C :   -0.402799
  16 C :   -0.472371
  17 C :   -0.494758
  18 H :    0.075161
  19 H :    0.021774
  20 H :    0.019216
  21 H :    0.007022
  22 H :    0.022828
  23 H :    0.015424
  24 H :   -0.004260
  25 H :    0.004850
  26 H :   -0.030082
  27 H :   -0.039032
  28 H :   -0.009525
  29 H :   -0.013757

  Mayer bond orders larger than 0.100000
B(  0-O , 12-C ) :   0.1158 B(  0-O , 14-C ) :   1.2690 B(  1-O , 15-C ) :   1.4722
B(  2-O , 16-C ) :   1.5646 B(  3-O , 17-C ) :   1.5737 B(  4-N ,  8-C ) :   0.2277
B(  4-N ,  9-C ) :   0.1255 B(  4-N , 10-C ) :   0.4992 B(  4-N , 16-C ) :   1.0321
B(  4-N , 26-H ) :   1.0840 B(  5-N ,  9-C ) :   0.3424 B(  5-N , 10-C ) :   0.1596
B(  5-N , 17-C ) :   1.2699 B(  5-N , 27-H ) :   1.0485 B(  6-N , 14-C ) :   1.0061
B(  6-N , 16-C ) :   0.9307 B(  6-N , 28-H ) :   1.1025 B(  7-N , 15-C ) :   0.9836
B(  7-N , 17-C ) :   0.9648 B(  7-N , 29-H ) :   1.0665 B(  8-C ,  9-C ) :   0.5743
B(  8-C , 11-C ) :   0.5809 B(  8-C , 12-C ) :   0.2005 B(  8-C , 14-C ) :   0.9496
B(  8-C , 16-C ) :   0.1103 B(  8-C , 18-H ) :  -0.2472 B(  8-C , 21-H ) :  -0.1540
B(  9-C , 10-C ) :   0.2469 B(  9-C , 11-C ) :   0.1777 B(  9-C , 13-C ) :   0.1970
B(  9-C , 15-C ) :   0.7585 B(  9-C , 19-H ) :  -0.1247 B(  9-C , 25-H ) :  -0.1174
B( 10-C , 11-C ) :   0.2149 B( 10-C , 12-C ) :  -0.2793 B( 10-C , 14-C ) :  -0.1537
B( 10-C , 16-C ) :  -0.1397 B( 10-C , 18-H ) :   1.0886 B( 11-C , 12-C ) :   0.1439
B( 11-C , 15-C ) :  -0.2820 B( 11-C , 17-C ) :  -0.1965 B( 11-C , 19-H ) :   0.7581
B( 12-C , 19-H ) :  -0.1153 B( 12-C , 20-H ) :   0.9194 B( 12-C , 21-H ) :   1.0754
B( 12-C , 22-H ) :   0.8173 B( 13-C , 15-C ) :  -0.1262 B( 13-C , 23-H ) :   0.8589
B( 13-C , 24-H ) :   1.0024 B( 13-C , 25-H ) :   0.9874

Dispersion correction           -0.058044441
FINAL SINGLE POINT ENERGY      -908.746580230430

DIPOLE MOMENT
-------------

Method             : SCF
Type of density    : Electron Density
Multiplicity       :   1
Irrep              :   0
Energy             :  -908.6885357893468154 Eh
Relativity type    :
Basis              : AO
                                X                 Y                 Z
Electronic contribution:     -2.012203135      -8.848778275      -5.932124268
Nuclear contribution   :      2.375815250       9.965907800       8.287634021
                        -----------------------------------------
Total Dipole Moment    :      0.363612114       1.117129525       2.355509753
                        -----------------------------------------
Magnitude (a.u.)       :      2.632226879
Magnitude (Debye)      :      6.690589017

Rotational constants in cm-1:             0.020977             0.012492             0.011274
Rotational constants in MHz :           628.864069           374.492345           337.981182

                             ****ORCA TERMINATED NORMALLY****
TOTAL RUN TIME: 0 days 1 hours 1 minutes 5 seconds 286 msec
