                         Program Version 6.0.0  -   RELEASE  -
|  1> ! Engrad def2-TZVPPD wB97M-D3BJ
|  2> %pal nprocs 8 end%pal nprocs 64 end
|  3> %tddft
|  4>  Iroot 1 Nroots 3
|  5> sf true
|  6> end
|  7> *xyz 0 3
|  8> O   0.40426138 -0.76269619 -0.73249734
|  9> C   0.85204855 0.01639342 0.37482427
| 10> C   -0.0930316 1.03680089 0.6562215
| 11> H   1.86019775 0.44072696 0.21057989
| 12> H   1.03263377 -0.83818756 1.06175625
| 13> H   0.30957832 2.03719159 0.92235903
| 14> H   -1.1388351 0.90104241 0.40317094
| 15> *
| 16>
| 17>                          ****END OF INPUT****

CARTESIAN COORDINATES (ANGSTROEM)
---------------------------------
  O      0.404261   -0.762696   -0.732497
  C      0.852049    0.016393    0.374824
  C     -0.093032    1.036801    0.656221
  H      1.860198    0.440727    0.210580
  H      1.032634   -0.838188    1.061756
  H      0.309578    2.037192    0.922359
  H     -1.138835    0.901042    0.403171

 Total Charge           Charge          ....    0
 Multiplicity           Mult            ....    3
 Number of Electrons    NEL             ....   24
 Basis Dimension        Dim             ....  182

ORBITAL ENERGIES
----------------
                 SPIN UP ORBITALS
  NO   OCC          E(Eh)            E(eV)
   0   1.0000     -19.387551      -527.5621
   1   1.0000     -10.411946      -283.3235
   2   1.0000     -10.368605      -282.1441
   3   1.0000      -1.152039       -31.3486
   4   1.0000      -0.888143       -24.1676
   5   1.0000      -0.735328       -20.0093
   6   1.0000      -0.612467       -16.6661
   7   1.0000      -0.589395       -16.0383
   8   1.0000      -0.547641       -14.9021
   9   1.0000      -0.507493       -13.8096
  10   1.0000      -0.445114       -12.1122
  11   1.0000      -0.420128       -11.4323
  12   1.0000      -0.322784        -8.7834
  13   0.0000       0.041424         1.1272
  14   0.0000       0.060946         1.6584
  15   0.0000       0.078925         2.1477
  16   0.0000       0.087526         2.3817
  17   0.0000       0.111475         3.0334

                 SPIN DOWN ORBITALS
  NO   OCC          E(Eh)            E(eV)
   0   1.0000     -19.362807      -526.8888
   1   1.0000     -10.413292      -283.3601
   2   1.0000     -10.355705      -281.7930
   3   1.0000      -1.095843       -29.8194
   4   1.0000      -0.854821       -23.2609
   5   1.0000      -0.708524       -19.2799
   6   1.0000      -0.586581       -15.9617
   7   1.0000      -0.549826       -14.9615
   8   1.0000      -0.522304       -14.2126
   9   1.0000      -0.484288       -13.1782
  10   1.0000      -0.387637       -10.5481
  11   0.0000      -0.045674        -1.2429
  12   0.0000      -0.006362        -0.1731
  13   0.0000       0.040610         1.1051
  14   0.0000       0.061278         1.6675
  15   0.0000       0.079023         2.1503

----------------------------------------------------------------------------------------------------
          SPIN FLIP ABSORPTION SPECTRUM VIA TRANSITION ELECTRIC DIPOLE MOMENTS
----------------------------------------------------------------------------------------------------
     Transition      Energy     Energy  Wavelength fosc(D2)      D2        DX        DY        DZ
                      (eV)      (cm-1)    (nm)                 (au**2)    (au)      (au)      (au)
----------------------------------------------------------------------------------------------------
  1-3A  ->  2-3A    0.028932     233.4  42853.6   0.000110202   0.15547  -0.01111   0.32463   0.22353
  1-3A  ->  3-3A    0.907734    7321.4  1365.9   0.004089481   0.18389  -0.01104  -0.30182  -0.30442

Dispersion correction             ... done (  0.2 sec)

MULLIKEN ATOMIC CHARGES AND SPIN DENSITIES
------------------------------------------
   0 O :   -0.367114    0.554813
   1 C :   -0.047605   -0.031499
   2 C :   -0.287230   -0.441834
   3 H :    0.209992    0.007791
   4 H :    0.190076    0.020806
   5 H :    0.115948   -0.064454
   6 H :    0.185933   -0.045624
Sum of atomic charges       :   -0.0000000

LOEWDIN ATOMIC CHARGES AND SPIN DENSITIES
-----------------------------------------
   0 O :   -0.010011    0.517004
   1 C :   -0.247401   -0.023131
   2 C :    0.255687   -0.420043
   3 H :    0.042873    0.007812
   4 H :    0.048519    0.021160
   5 H :   -0.040817   -0.053820
   6 H :   -0.048851   -0.048982

  Mayer bond orders larger than 0.100000
B(  0-O ,  1-C ) :   0.8812 B(  0-O ,  2-C ) :   0.1132 B(  1-C ,  2-C ) :   0.9181
B(  1-C ,  3-H ) :   0.9198 B(  1-C ,  4-H ) :   0.9283 B(  2-C ,  5-H ) :   1.0556
B(  2-C ,  6-H ) :   0.9988

Dispersion correction           -0.005544743
FINAL SINGLE POINT ENERGY      -153.748157899558

DIPOLE MOMENT
-------------

Method             : TDA/CIS
Type of density    : Electron Density
Level              : Relaxed density
State              :   1
Multiplicity       :   3
Irrep              :   0
Energy             :     0.0000000000000000 Eh
Relativity type    :
Basis              : AO
                                X                 Y                 Z
Electronic contribution:     -0.079614196      -1.618424278      -1.539760489
Nuclear contribution   :      0.431282191       2.115109413       2.145628369
                        -----------------------------------------
Total Dipole Moment    :      0.351667995       0.496685135       0.605867880
                        -----------------------------------------
Magnitude (a.u.)       :      0.858744659
Magnitude (Debye)      :      2.182755458

Rotational constants in cm-1:             1.368029             0.371912             0.314266
Rotational constants in MHz :         41012.470205         11149.654263          9421.471462

                             ****ORCA TERMINATED NORMALLY****
TOTAL RUN TIME: 0 days 0 hours 0 minutes 26 seconds 601 msec
