                         Program Version 6.0.0  -   RELEASE  -
|  1> ! Engrad def2-TZVPPD wB97M-D3BJ
|  2> %pal nprocs 8 end%pal nprocs 64 end
|  3> %tddft
|  4>  Iroot 1 Nroots 3
|  5> sf true
|  6> end
|  7> *xyz 0 3
|  8> O   2.62983154 -0.5367657 -2.29530673
|  9> O   -2.15074795 1.02276858 -1.68276392
| 10> O   -0.97373521 -2.8106357 -0.84302936
| 11> O   -2.52343308 0.39160649 2.90382964
| 12> N   0.13545599 -1.49577434 0.66745798
| 13> N   -0.65495479 1.21422265 1.99781944
| 14> N   0.75694755 -1.54572483 -1.56695031
| 15> N   -2.3339448 0.53190562 0.6044594
| 16> C   2.09007552 -0.38869048 0.02493463
| 17> C   -0.24733633 1.30218455 -0.36765984
| 18> C   0.99500191 -0.45943766 1.02264212
| 19> C   0.31446952 0.99032265 0.97606258
| 20> C   3.33741163 0.35145358 0.19111241
| 21> C   0.58554503 1.97429778 -1.37323092
| 22> C   1.87177717 -0.83437569 -1.32927233
| 23> C   -1.65745304 0.95653361 -0.53997226
| 24> C   -0.11840471 -2.0020209 -0.57275229
| 25> C   -1.9018052 0.66856088 1.91809535
| 26> H   1.4219262 -0.72181038 2.03521492
| 27> H   1.16554064 1.58727592 1.20265563
| 28> H   4.03497634 -0.02529299 -0.50687958
| 29> H   3.3332723 1.48374287 -0.0490064
| 30> H   3.71651916 0.34052878 1.22736716
| 31> H   0.02144409 2.12792754 -2.28577652
| 32> H   1.00106045 2.98946654 -0.9829991
| 33> H   1.35850971 1.37905502 -1.70945024
| 34> H   -0.57019682 -1.83131158 1.35735587
| 35> H   -0.27185306 1.19781277 2.87625574
| 36> H   0.5240153 -1.73144613 -2.53342185
| 37> H   -3.26168267 0.10537175 0.55390681
| 38> *
| 39>
| 40>                          ****END OF INPUT****

CARTESIAN COORDINATES (ANGSTROEM)
---------------------------------
  O      2.629832   -0.536766   -2.295307
  O     -2.150748    1.022769   -1.682764
  O     -0.973735   -2.810636   -0.843029
  O     -2.523433    0.391606    2.903830
  N      0.135456   -1.495774    0.667458
  N     -0.654955    1.214223    1.997819
  N      0.756948   -1.545725   -1.566950
  N     -2.333945    0.531906    0.604459
  C      2.090076   -0.388690    0.024935
  C     -0.247336    1.302185   -0.367660
  C      0.995002   -0.459438    1.022642
  C      0.314470    0.990323    0.976063
  C      3.337412    0.351454    0.191112
  C      0.585545    1.974298   -1.373231
  C      1.871777   -0.834376   -1.329272
  C     -1.657453    0.956534   -0.539972
  C     -0.118405   -2.002021   -0.572752
  C     -1.901805    0.668561    1.918095
  H      1.421926   -0.721810    2.035215
  H      1.165541    1.587276    1.202656
  H      4.034976   -0.025293   -0.506880
  H      3.333272    1.483743   -0.049006
  H      3.716519    0.340529    1.227367
  H      0.021444    2.127928   -2.285777
  H      1.001060    2.989467   -0.982999
  H      1.358510    1.379055   -1.709450
  H     -0.570197   -1.831312    1.357356
  H     -0.271853    1.197813    2.876256
  H      0.524015   -1.731446   -2.533422
  H     -3.261683    0.105372    0.553907

 Total Charge           Charge          ....    0
 Multiplicity           Mult            ....    3
 Number of Electrons    NEL             ....  132
 Basis Dimension        Dim             ....  882

ORBITAL ENERGIES
----------------
                 SPIN UP ORBITALS
  NO   OCC          E(Eh)            E(eV)
   0   1.0000     -19.338917      -526.2387
   1   1.0000     -19.331448      -526.0354
   2   1.0000     -19.328698      -525.9606
   3   1.0000     -19.324439      -525.8447
   4   1.0000     -14.573804      -396.5734
   5   1.0000     -14.567766      -396.4091
   6   1.0000     -14.567632      -396.4054
   7   1.0000     -14.556437      -396.1008
   8   1.0000     -10.510786      -286.0130
   9   1.0000     -10.510329      -286.0006
  10   1.0000     -10.489945      -285.4459
  11   1.0000     -10.480255      -285.1822
  12   1.0000     -10.450011      -284.3593
  13   1.0000     -10.436629      -283.9951
  14   1.0000     -10.419272      -283.5228
  15   1.0000     -10.418616      -283.5049
  16   1.0000     -10.376126      -282.3487
  17   1.0000     -10.365618      -282.0628
  18   1.0000      -1.232242       -33.5310
  19   1.0000      -1.224085       -33.3091
  20   1.0000      -1.189380       -32.3647
  21   1.0000      -1.183214       -32.1969
  22   1.0000      -1.131958       -30.8021
  23   1.0000      -1.112193       -30.2643
  24   1.0000      -1.074161       -29.2294
  25   1.0000      -1.068055       -29.0633
  26   1.0000      -0.988769       -26.9058
  27   1.0000      -0.957225       -26.0474
  28   1.0000      -0.892200       -24.2780
  29   1.0000      -0.849029       -23.1033
  30   1.0000      -0.829579       -22.5740
  31   1.0000      -0.813351       -22.1324
  32   1.0000      -0.794683       -21.6244
  33   1.0000      -0.788499       -21.4562
  34   1.0000      -0.709225       -19.2990
  35   1.0000      -0.702064       -19.1041
  36   1.0000      -0.696342       -18.9484
  37   1.0000      -0.682999       -18.5854
  38   1.0000      -0.662458       -18.0264
  39   1.0000      -0.647370       -17.6158
  40   1.0000      -0.630724       -17.1629
  41   1.0000      -0.602344       -16.3906
  42   1.0000      -0.598474       -16.2853
  43   1.0000      -0.589708       -16.0468
  44   1.0000      -0.576417       -15.6851
  45   1.0000      -0.574044       -15.6205
  46   1.0000      -0.569753       -15.5038
  47   1.0000      -0.566453       -15.4140
  48   1.0000      -0.560814       -15.2605
  49   1.0000      -0.555054       -15.1038
  50   1.0000      -0.550722       -14.9859
  51   1.0000      -0.539249       -14.6737
  52   1.0000      -0.533418       -14.5151
  53   1.0000      -0.521947       -14.2029
  54   1.0000      -0.507253       -13.8031
  55   1.0000      -0.505752       -13.7622
  56   1.0000      -0.486110       -13.2277
  57   1.0000      -0.433570       -11.7980
  58   1.0000      -0.421174       -11.4607
  59   1.0000      -0.417604       -11.3636
  60   1.0000      -0.411294       -11.1919
  61   1.0000      -0.407658       -11.0929
  62   1.0000      -0.398174       -10.8349
  63   1.0000      -0.392157       -10.6711
  64   1.0000      -0.380453       -10.3527
  65   1.0000      -0.346789        -9.4366
  66   1.0000      -0.327627        -8.9152
  67   0.0000       0.008831         0.2403
  68   0.0000       0.027706         0.7539
  69   0.0000       0.034075         0.9272
  70   0.0000       0.035875         0.9762
  71   0.0000       0.054354         1.4790

                 SPIN DOWN ORBITALS
  NO   OCC          E(Eh)            E(eV)
   0   1.0000     -19.333518      -526.0918
   1   1.0000     -19.331264      -526.0304
   2   1.0000     -19.324731      -525.8527
   3   1.0000     -19.324377      -525.8430
   4   1.0000     -14.573538      -396.5661
   5   1.0000     -14.567626      -396.4053
   6   1.0000     -14.566709      -396.3803
   7   1.0000     -14.555913      -396.0865
   8   1.0000     -10.510844      -286.0146
   9   1.0000     -10.510367      -286.0016
  10   1.0000     -10.491187      -285.4797
  11   1.0000     -10.481100      -285.2052
  12   1.0000     -10.449644      -284.3493
  13   1.0000     -10.436213      -283.9838
  14   1.0000     -10.408273      -283.2235
  15   1.0000     -10.407477      -283.2019
  16   1.0000     -10.376829      -282.3679
  17   1.0000     -10.366142      -282.0771
  18   1.0000      -1.231519       -33.5113
  19   1.0000      -1.223109       -33.2825
  20   1.0000      -1.182156       -32.1681
  21   1.0000      -1.178411       -32.0662
  22   1.0000      -1.129171       -30.7263
  23   1.0000      -1.110013       -30.2050
  24   1.0000      -1.071848       -29.1665
  25   1.0000      -1.065842       -29.0030
  26   1.0000      -0.975572       -26.5467
  27   1.0000      -0.939922       -25.5766
  28   1.0000      -0.886792       -24.1308
  29   1.0000      -0.844949       -22.9922
  30   1.0000      -0.821621       -22.3574
  31   1.0000      -0.808369       -21.9968
  32   1.0000      -0.793214       -21.5844
  33   1.0000      -0.786642       -21.4056
  34   1.0000      -0.704077       -19.1589
  35   1.0000      -0.695580       -18.9277
  36   1.0000      -0.689658       -18.7665
  37   1.0000      -0.675353       -18.3773
  38   1.0000      -0.650197       -17.6928
  39   1.0000      -0.644628       -17.5412
  40   1.0000      -0.627244       -17.0682
  41   1.0000      -0.597100       -16.2479
  42   1.0000      -0.592609       -16.1257
  43   1.0000      -0.585410       -15.9298
  44   1.0000      -0.570505       -15.5242
  45   1.0000      -0.566502       -15.4153
  46   1.0000      -0.563455       -15.3324
  47   1.0000      -0.561990       -15.2925
  48   1.0000      -0.556009       -15.1298
  49   1.0000      -0.547011       -14.8849
  50   1.0000      -0.535841       -14.5810
  51   1.0000      -0.530811       -14.4441
  52   1.0000      -0.526916       -14.3381
  53   1.0000      -0.510267       -13.8851
  54   1.0000      -0.503237       -13.6938
  55   1.0000      -0.495008       -13.4699
  56   1.0000      -0.481703       -13.1078
  57   1.0000      -0.429145       -11.6776
  58   1.0000      -0.418312       -11.3828
  59   1.0000      -0.412374       -11.2213
  60   1.0000      -0.400125       -10.8879
  61   1.0000      -0.391531       -10.6541
  62   1.0000      -0.388570       -10.5735
  63   1.0000      -0.387230       -10.5371
  64   1.0000      -0.369357       -10.0507
  65   0.0000      -0.067671        -1.8414
  66   0.0000      -0.055225        -1.5027
  67   0.0000       0.008341         0.2270
  68   0.0000       0.027316         0.7433
  69   0.0000       0.034077         0.9273

----------------------------------------------------------------------------------------------------
          SPIN FLIP ABSORPTION SPECTRUM VIA TRANSITION ELECTRIC DIPOLE MOMENTS
----------------------------------------------------------------------------------------------------
     Transition      Energy     Energy  Wavelength fosc(D2)      D2        DX        DY        DZ
                      (eV)      (cm-1)    (nm)                 (au**2)    (au)      (au)      (au)
----------------------------------------------------------------------------------------------------
  1-3A  ->  2-3A    0.065167     525.6  19025.6   0.000004007   0.00251   0.04147  -0.02671  -0.00873
  1-3A  ->  3-3A    2.107890   17001.3   588.2   0.014404376   0.27893   0.43653  -0.07944  -0.28645

Dispersion correction             ... done (  0.1 sec)

MULLIKEN ATOMIC CHARGES AND SPIN DENSITIES
------------------------------------------
   0 O :   -0.762540   -0.124215
   1 O :   -0.671078    0.170429
   2 O :   -0.654478   -0.002913
   3 O :   -0.620614    0.000157
   4 N :   -0.204676   -0.014777
   5 N :   -0.289385    0.012295
   6 N :    0.046301   -0.026034
   7 N :    0.036102    0.011157
   8 C :    0.990023    0.172860
   9 C :   -0.375073    0.333255
  10 C :    0.180165   -0.241541
  11 C :    0.680509    0.025880
  12 C :   -1.571788   -0.049561
  13 C :   -1.110577    0.063361
  14 C :   -0.016759   -0.427329
  15 C :    0.351320    0.049618
  16 C :    0.433887    0.030464
  17 C :    0.386294   -0.000102
  18 H :    0.493174   -0.040971
  19 H :    0.659980    0.030732
  20 H :    0.401084   -0.013279
  21 H :    0.285738   -0.006524
  22 H :    0.378564    0.003288
  23 H :    0.313688    0.005855
  24 H :    0.299716    0.009133
  25 H :    0.148680    0.017514
  26 H :    0.090654    0.004776
  27 H :    0.005979   -0.000693
  28 H :    0.041760    0.007688
  29 H :    0.053352   -0.000524
Sum of atomic charges       :   -0.0000000

LOEWDIN ATOMIC CHARGES AND SPIN DENSITIES
-----------------------------------------
   0 O :    0.025018   -0.104350
   1 O :    0.073825    0.153245
   2 O :    0.098798   -0.002591
   3 O :    0.109497    0.000055
   4 N :    0.253305    0.000055
   5 N :    0.310594    0.000357
   6 N :    0.341598   -0.020657
   7 N :    0.327590    0.008535
   8 C :   -0.044031   -0.403212
   9 C :   -0.018783    0.422519
  10 C :   -0.120306   -0.027384
  11 C :   -0.101923    0.018225
  12 C :    0.169404   -0.071016
  13 C :    0.212140    0.060026
  14 C :   -0.433370   -0.076328
  15 C :   -0.354701    0.058324
  16 C :   -0.465733    0.000877
  17 C :   -0.500706   -0.000739
  18 H :    0.095173   -0.007455
  19 H :    0.027140    0.002823
  20 H :   -0.029621   -0.006001
  21 H :    0.060916   -0.029814
  22 H :    0.013701   -0.006033
  23 H :    0.003216   -0.001376
  24 H :    0.073634    0.020575
  25 H :   -0.080611    0.012966
  26 H :    0.021840    0.000029
  27 H :   -0.084210   -0.000251
  28 H :    0.008981   -0.002051
  29 H :    0.007626    0.000648

  Mayer bond orders larger than 0.100000
B(  0-O , 14-C ) :   1.2775 B(  1-O , 15-C ) :   1.3346 B(  2-O , 16-C ) :   1.5388
B(  3-O , 17-C ) :   1.6039 B(  4-N ,  8-C ) :   0.1869 B(  4-N ,  9-C ) :   0.1793
B(  4-N , 10-C ) :   0.3659 B(  4-N , 16-C ) :   1.0253 B(  4-N , 26-H ) :   1.0558
B(  5-N ,  9-C ) :   0.3416 B(  5-N , 10-C ) :   0.1004 B(  5-N , 11-C ) :  -0.2595
B(  5-N , 17-C ) :   1.1877 B(  5-N , 19-H ) :  -0.1160 B(  5-N , 27-H ) :   1.1101
B(  6-N ,  8-C ) :  -0.1588 B(  6-N , 10-C ) :   0.1284 B(  6-N , 14-C ) :   1.0953
B(  6-N , 16-C ) :   0.9341 B(  6-N , 28-H ) :   1.1180 B(  7-N , 11-C ) :   0.1173
B(  7-N , 15-C ) :   1.0826 B(  7-N , 17-C ) :   0.9452 B(  7-N , 29-H ) :   1.1042
B(  8-C , 10-C ) :   0.4916 B(  8-C , 11-C ) :   0.3396 B(  8-C , 12-C ) :   0.3266
B(  8-C , 14-C ) :   0.5882 B(  8-C , 18-H ) :  -0.1986 B(  8-C , 20-H ) :  -0.1072
B(  8-C , 22-H ) :  -0.1246 B(  9-C , 10-C ) :   0.3268 B(  9-C , 11-C ) :  -0.3281
B(  9-C , 13-C ) :   0.4788 B(  9-C , 15-C ) :   0.8377 B(  9-C , 19-H ) :  -0.2862
B(  9-C , 23-H ) :  -0.1043 B( 10-C , 11-C ) :   0.5368 B( 10-C , 12-C ) :  -0.1305
B( 10-C , 18-H ) :   0.8972 B( 11-C , 13-C ) :  -0.1617 B( 11-C , 15-C ) :  -0.2130
B( 11-C , 17-C ) :  -0.1787 B( 11-C , 18-H ) :  -0.1782 B( 11-C , 19-H ) :   0.7821
B( 12-C , 20-H ) :   0.8867 B( 12-C , 21-H ) :   0.8647 B( 12-C , 22-H ) :   0.9894
B( 13-C , 23-H ) :   1.0148 B( 13-C , 24-H ) :   0.9831 B( 13-C , 25-H ) :   0.8992

Dispersion correction           -0.060534690
FINAL SINGLE POINT ENERGY      -908.778270307395

DIPOLE MOMENT
-------------

Method             : TDA/CIS
Type of density    : Electron Density
Level              : Relaxed density
State              :   1
Multiplicity       :   3
Irrep              :   0
Energy             :     0.0000000000000000 Eh
Relativity type    :
Basis              : AO
                                X                 Y                 Z
Electronic contribution:    -10.136920614      -5.964464657       0.274974754
Nuclear contribution   :     11.726633179       6.950541877       1.373037898
                        -----------------------------------------
Total Dipole Moment    :      1.589712565       0.986077220       1.648012652
                        -----------------------------------------
Magnitude (a.u.)       :      2.493086445
Magnitude (Debye)      :      6.336922141

Rotational constants in cm-1:             0.021964             0.012833             0.012183
Rotational constants in MHz :           658.478639           384.737773           365.231574

                             ****ORCA TERMINATED NORMALLY****
TOTAL RUN TIME: 0 days 0 hours 5 minutes 38 seconds 331 msec
