                         Program Version 6.0.0  -   RELEASE  -
|  1> ! Engrad def2-TZVPPD wB97M-D3BJ
|  2> %pal nprocs 8 end%pal nprocs 64 end
|  3> %tddft
|  4> Iroot 0 Nroots 3
|  5> sf true
|  6> end
|  7> *xyz 0 3
|  8> O   2.826117630760861 0.9203193716376641 -0.6418651916839178
|  9> O   -0.4907739410978034 1.038139148203013 -2.322447424817414
| 10> O   0.5049405952332209 -2.912164128218304 -1.0787332310586708
| 11> O   -2.9302589523324816 -1.5178573794225665 0.40615242468494206
| 12> N   0.4264824760455364 -1.8291034535559756 0.8576947216052083
| 13> N   -2.052665242805319 0.28989879335318114 1.269091708790602
| 14> N   1.6423866474725943 -0.9763238003536379 -0.8452320373213549
| 15> N   -1.608501694930795 -0.28848360846344157 -0.9053068573125316
| 16> C   1.4597527089305722 0.30962734087168003 1.0907868903253035
| 17> C   -0.6513968485900984 1.6708529605845377 -0.07007290925120613
| 18> C   0.5968829872650325 -0.6706508889330041 1.5877231297209342
| 19> C   -1.0486661607428003 1.1977431034007107 1.1877977222559213
| 20> C   1.9807004222700908 1.3056825854872705 1.9713814216959922
| 21> C   -0.38654474102172476 3.0531392366705137 -0.2693295194023519
| 22> C   2.0523045982521606 0.1318910821782663 -0.18712241221697343
| 23> C   -0.8836549935373618 0.8265856273122167 -1.2103774559847316
| 24> C   0.8310019446586681 -1.97274631048411 -0.41441095101576386
| 25> C   -2.2316508052707884 -0.5630309962315739 0.26548553039095385
| 26> H   0.5857297002582756 -0.8536537038290084 2.650433503602972
| 27> H   -1.1084891852415495 1.9226536117023272 1.9796077032364316
| 28> H   2.078293726032251 2.254448233299889 1.4501763961830898
| 29> H   1.397291240490326 1.5112020932171724 2.8689916852673942
| 30> H   2.97452339806367 1.135237833487387 2.380802530300024
| 31> H   -1.2997056763379902 3.485511082201171 -0.6835019558771538
| 32> H   -0.0733147931476265 3.676419217495854 0.5587191578184176
| 33> H   0.37423233919466303 3.211579724356416 -1.0303861918376347
| 34> H   -0.230478275827727 -2.5232003161408785 1.154620649215808
| 35> H   -2.480678308637384 0.08247128111662519 2.1459842990676488
| 36> H   1.9634667139515407 -1.0779548284017788 -1.792600605332457
| 37> H   -1.7647275093580168 -0.923232912541683 -1.6694627310494725
| 38> *
| 39>
| 40>                          ****END OF INPUT****

CARTESIAN COORDINATES (ANGSTROEM)
---------------------------------
  O      2.826118    0.920319   -0.641865
  O     -0.490774    1.038139   -2.322447
  O      0.504941   -2.912164   -1.078733
  O     -2.930259   -1.517857    0.406152
  N      0.426482   -1.829103    0.857695
  N     -2.052665    0.289899    1.269092
  N      1.642387   -0.976324   -0.845232
  N     -1.608502   -0.288484   -0.905307
  C      1.459753    0.309627    1.090787
  C     -0.651397    1.670853   -0.070073
  C      0.596883   -0.670651    1.587723
  C     -1.048666    1.197743    1.187798
  C      1.980700    1.305683    1.971381
  C     -0.386545    3.053139   -0.269330
  C      2.052305    0.131891   -0.187122
  C     -0.883655    0.826586   -1.210377
  C      0.831002   -1.972746   -0.414411
  C     -2.231651   -0.563031    0.265486
  H      0.585730   -0.853654    2.650434
  H     -1.108489    1.922654    1.979608
  H      2.078294    2.254448    1.450176
  H      1.397291    1.511202    2.868992
  H      2.974523    1.135238    2.380803
  H     -1.299706    3.485511   -0.683502
  H     -0.073315    3.676419    0.558719
  H      0.374232    3.211580   -1.030386
  H     -0.230478   -2.523200    1.154621
  H     -2.480678    0.082471    2.145984
  H      1.963467   -1.077955   -1.792601
  H     -1.764728   -0.923233   -1.669463

 Total Charge           Charge          ....    0
 Multiplicity           Mult            ....    3
 Number of Electrons    NEL             ....  132
 Basis Dimension        Dim             ....  882

ORBITAL ENERGIES
----------------
                 SPIN UP ORBITALS
  NO   OCC          E(Eh)            E(eV)
   0   1.0000     -19.325880      -525.8839
   1   1.0000     -19.319303      -525.7050
   2   1.0000     -19.317331      -525.6513
   3   1.0000     -19.307481      -525.3833
   4   1.0000     -14.579178      -396.7196
   5   1.0000     -14.576454      -396.6455
   6   1.0000     -14.561216      -396.2308
   7   1.0000     -14.559084      -396.1728
   8   1.0000     -10.500020      -285.7201
   9   1.0000     -10.499382      -285.7027
  10   1.0000     -10.468869      -284.8724
  11   1.0000     -10.458453      -284.5890
  12   1.0000     -10.439899      -284.0841
  13   1.0000     -10.410667      -283.2887
  14   1.0000     -10.402500      -283.0664
  15   1.0000     -10.377647      -282.3901
  16   1.0000     -10.360904      -281.9345
  17   1.0000     -10.351342      -281.6743
  18   1.0000      -1.243348       -33.8332
  19   1.0000      -1.233248       -33.5584
  20   1.0000      -1.206130       -32.8205
  21   1.0000      -1.195021       -32.5182
  22   1.0000      -1.134766       -30.8785
  23   1.0000      -1.125172       -30.6175
  24   1.0000      -1.082155       -29.4469
  25   1.0000      -1.075879       -29.2762
  26   1.0000      -0.983086       -26.7511
  27   1.0000      -0.961485       -26.1633
  28   1.0000      -0.860714       -23.4212
  29   1.0000      -0.853977       -23.2379
  30   1.0000      -0.826678       -22.4950
  31   1.0000      -0.815982       -22.2040
  32   1.0000      -0.805854       -21.9284
  33   1.0000      -0.798571       -21.7302
  34   1.0000      -0.708919       -19.2907
  35   1.0000      -0.702144       -19.1063
  36   1.0000      -0.699242       -19.0273
  37   1.0000      -0.692636       -18.8476
  38   1.0000      -0.662118       -18.0172
  39   1.0000      -0.642509       -17.4836
  40   1.0000      -0.636835       -17.3292
  41   1.0000      -0.606192       -16.4953
  42   1.0000      -0.597528       -16.2596
  43   1.0000      -0.590949       -16.0805
  44   1.0000      -0.584784       -15.9128
  45   1.0000      -0.568554       -15.4711
  46   1.0000      -0.564025       -15.3479
  47   1.0000      -0.559002       -15.2112
  48   1.0000      -0.553399       -15.0587
  49   1.0000      -0.548861       -14.9353
  50   1.0000      -0.540969       -14.7205
  51   1.0000      -0.540481       -14.7072
  52   1.0000      -0.535574       -14.5737
  53   1.0000      -0.512500       -13.9458
  54   1.0000      -0.506628       -13.7860
  55   1.0000      -0.492960       -13.4141
  56   1.0000      -0.489940       -13.3319
  57   1.0000      -0.460635       -12.5345
  58   1.0000      -0.417735       -11.3671
  59   1.0000      -0.411630       -11.2010
  60   1.0000      -0.410739       -11.1768
  61   1.0000      -0.400485       -10.8977
  62   1.0000      -0.390498       -10.6260
  63   1.0000      -0.380617       -10.3571
  64   1.0000      -0.379020       -10.3137
  65   1.0000      -0.323116        -8.7924
  66   1.0000      -0.235624        -6.4117
  67   0.0000       0.002347         0.0639
  68   0.0000       0.009007         0.2451
  69   0.0000       0.030070         0.8182
  70   0.0000       0.036879         1.0035
  71   0.0000       0.038420         1.0455

                 SPIN DOWN ORBITALS
  NO   OCC          E(Eh)            E(eV)
   0   1.0000     -19.322457      -525.7908
   1   1.0000     -19.317706      -525.6615
   2   1.0000     -19.317033      -525.6432
   3   1.0000     -19.305747      -525.3361
   4   1.0000     -14.578599      -396.7038
   5   1.0000     -14.573552      -396.5665
   6   1.0000     -14.560502      -396.2114
   7   1.0000     -14.558932      -396.1687
   8   1.0000     -10.500042      -285.7207
   9   1.0000     -10.499394      -285.7030
  10   1.0000     -10.469359      -284.8857
  11   1.0000     -10.458431      -284.5884
  12   1.0000     -10.438865      -284.0560
  13   1.0000     -10.400747      -283.0187
  14   1.0000     -10.392897      -282.8051
  15   1.0000     -10.374580      -282.3067
  16   1.0000     -10.361148      -281.9412
  17   1.0000     -10.351453      -281.6774
  18   1.0000      -1.240105       -33.7450
  19   1.0000      -1.232319       -33.5331
  20   1.0000      -1.201157       -32.6851
  21   1.0000      -1.192775       -32.4570
  22   1.0000      -1.128315       -30.7030
  23   1.0000      -1.122666       -30.5493
  24   1.0000      -1.078360       -29.3437
  25   1.0000      -1.074818       -29.2473
  26   1.0000      -0.967641       -26.3309
  27   1.0000      -0.953094       -25.9350
  28   1.0000      -0.853985       -23.2381
  29   1.0000      -0.847124       -23.0514
  30   1.0000      -0.818949       -22.2847
  31   1.0000      -0.811910       -22.0932
  32   1.0000      -0.801914       -21.8212
  33   1.0000      -0.797692       -21.7063
  34   1.0000      -0.702551       -19.1174
  35   1.0000      -0.698479       -19.0066
  36   1.0000      -0.691612       -18.8197
  37   1.0000      -0.687343       -18.7035
  38   1.0000      -0.651227       -17.7208
  39   1.0000      -0.637351       -17.3432
  40   1.0000      -0.634363       -17.2619
  41   1.0000      -0.598789       -16.2939
  42   1.0000      -0.590161       -16.0591
  43   1.0000      -0.588462       -16.0129
  44   1.0000      -0.568912       -15.4809
  45   1.0000      -0.563941       -15.3456
  46   1.0000      -0.560881       -15.2623
  47   1.0000      -0.550278       -14.9738
  48   1.0000      -0.546917       -14.8824
  49   1.0000      -0.543363       -14.7857
  50   1.0000      -0.534670       -14.5491
  51   1.0000      -0.531847       -14.4723
  52   1.0000      -0.527596       -14.3566
  53   1.0000      -0.505797       -13.7634
  54   1.0000      -0.498166       -13.5558
  55   1.0000      -0.490056       -13.3351
  56   1.0000      -0.475424       -12.9370
  57   1.0000      -0.444285       -12.0896
  58   1.0000      -0.413824       -11.2607
  59   1.0000      -0.410186       -11.1617
  60   1.0000      -0.395713       -10.7679
  61   1.0000      -0.393816       -10.7163
  62   1.0000      -0.385242       -10.4830
  63   1.0000      -0.377444       -10.2708
  64   1.0000      -0.329834        -8.9752
  65   0.0000      -0.084919        -2.3108
  66   0.0000      -0.002704        -0.0736
  67   0.0000       0.008361         0.2275
  68   0.0000       0.026850         0.7306
  69   0.0000       0.034975         0.9517

MULLIKEN ATOMIC CHARGES AND SPIN POPULATIONS
--------------------------------------------
   0 O :   -0.697165    0.063204
   1 O :   -0.662599    0.130815
   2 O :   -0.651858    0.011202
   3 O :   -0.658292    0.057149
   4 N :   -0.079255    0.026436
   5 N :   -0.075766    0.141521
   6 N :    0.027850    0.007702
   7 N :    0.055936    0.029681
   8 C :    0.676080    0.150535
   9 C :    0.867194    0.364024
  10 C :    0.281669    0.058629
  11 C :   -0.025897    0.727510
  12 C :   -1.714376    0.027988
  13 C :   -1.662591    0.001462
  14 C :    0.525901    0.023825
  15 C :    0.506698    0.123987
  16 C :    0.430580   -0.003664
  17 C :    0.335437    0.003682
  18 H :    0.245660    0.009423
  19 H :    0.195118   -0.007239
  20 H :    0.276625    0.000268
  21 H :    0.316076    0.003713
  22 H :    0.362142    0.004155
  23 H :    0.368475    0.032497
  24 H :    0.375807    0.013628
  25 H :    0.302212    0.016240
  26 H :    0.034135    0.000077
  27 H :    0.052005   -0.022107
  28 H :   -0.008877    0.002679
  29 H :    0.001076    0.000977
Sum of atomic charges         :    0.0000000

LOEWDIN ATOMIC CHARGES AND SPIN POPULATIONS
-------------------------------------------
   0 O :    0.116523    0.057723
   1 O :    0.127815    0.112410
   2 O :    0.112698    0.009740
   3 O :    0.112359    0.053209
   4 N :    0.294836    0.024291
   5 N :    0.273540    0.145731
   6 N :    0.354343    0.008717
   7 N :    0.345572    0.026396
   8 C :   -0.176880    0.154086
   9 C :   -0.116297    0.464920
  10 C :    0.076473    0.079068
  11 C :   -0.002854    0.475071
  12 C :    0.150808    0.014905
  13 C :    0.185218    0.087525
  14 C :   -0.462968    0.038418
  15 C :   -0.436471    0.082074
  16 C :   -0.524068    0.004958
  17 C :   -0.547987    0.026316
  18 H :    0.043985    0.010592
  19 H :    0.023421    0.048563
  20 H :    0.000290    0.001906
  21 H :    0.003738    0.001849
  22 H :    0.013544    0.002692
  23 H :    0.024983    0.035015
  24 H :    0.004746    0.003561
  25 H :    0.018064    0.015493
  26 H :   -0.015537    0.001819
  27 H :   -0.009716    0.008533
  28 H :    0.006307    0.001087
  29 H :    0.003516    0.003331

  Mayer bond orders larger than 0.100000
B(  0-O , 14-C ) :   1.2849 B(  1-O , 15-C ) :   1.3732 B(  2-O , 16-C ) :   1.5235
B(  3-O , 17-C ) :   1.5460 B(  4-N ,  8-C ) :   0.2003 B(  4-N , 10-C ) :   0.6715
B(  4-N , 16-C ) :   0.9967 B(  4-N , 26-H ) :   1.1226 B(  5-N ,  9-C ) :   0.1906
B(  5-N , 11-C ) :   0.5474 B(  5-N , 17-C ) :   1.1462 B(  5-N , 27-H ) :   1.0907
B(  6-N ,  8-C ) :  -0.1092 B(  6-N , 14-C ) :   1.0694 B(  6-N , 15-C ) :   0.1065
B(  6-N , 16-C ) :   0.9478 B(  6-N , 28-H ) :   1.1292 B(  7-N , 15-C ) :   0.9521
B(  7-N , 17-C ) :   0.9264 B(  7-N , 29-H ) :   1.1356 B(  8-C ,  9-C ) :   0.3029
B(  8-C , 10-C ) :   0.7995 B(  8-C , 14-C ) :   0.7441 B(  8-C , 16-C ) :   0.1021
B(  8-C , 18-H ) :  -0.1068 B(  8-C , 20-H ) :  -0.1102 B(  8-C , 21-H ) :  -0.1680
B(  9-C , 13-C ) :   0.4102 B(  9-C , 15-C ) :   0.6534 B(  9-C , 17-C ) :   0.1345
B(  9-C , 19-H ) :  -0.1424 B(  9-C , 25-H ) :  -0.1453 B( 10-C , 12-C ) :  -0.1843
B( 10-C , 18-H ) :   1.0621 B( 11-C , 13-C ) :  -0.1687 B( 11-C , 15-C ) :  -0.1085
B( 11-C , 17-C ) :  -0.2327 B( 11-C , 19-H ) :   1.2025 B( 12-C , 20-H ) :   0.9722
B( 12-C , 21-H ) :   1.0755 B( 12-C , 22-H ) :   0.8467 B( 13-C , 15-C ) :  -0.1623
B( 13-C , 23-H ) :   0.7893 B( 13-C , 24-H ) :   0.9219 B( 13-C , 25-H ) :   1.0835

----------------------------------------------------------------------------------------------------
          SPIN FLIP ABSORPTION SPECTRUM VIA TRANSITION ELECTRIC DIPOLE MOMENTS
----------------------------------------------------------------------------------------------------
     Transition      Energy     Energy  Wavelength fosc(D2)      D2        DX        DY        DZ
                      (eV)      (cm-1)    (nm)                 (au**2)    (au)      (au)      (au)
----------------------------------------------------------------------------------------------------
  1-3A  ->  2-3A    2.327050   18768.9   532.8   0.001096273   0.01923   0.08980  -0.09904  -0.03683
  1-3A  ->  3-1A    2.872785   23170.6   431.6   0.043390483   0.61650  -0.07603   0.13040  -0.77053

Dispersion correction           -0.062103714
FINAL SINGLE POINT ENERGY      -908.758018579556

DIPOLE MOMENT
-------------

Method             : SCF
Type of density    : Electron Density
Multiplicity       :   3
Irrep              :   0
Energy             :  -908.6959148657974765 Eh
Relativity type    :
Basis              : AO
                                X                 Y                 Z
Electronic contribution:     -2.826086729     -10.255734259      -6.573951431
Nuclear contribution   :      2.286506913      11.261796459       9.133885943
                        -----------------------------------------
Total Dipole Moment    :     -0.539579816       1.006062200       2.559934511
                        -----------------------------------------
Magnitude (a.u.)       :      2.802957764
Magnitude (Debye)      :      7.124552440

Rotational constants in cm-1:             0.018656             0.016669             0.013588
Rotational constants in MHz :           559.293569           499.722146           407.345374

                             ****ORCA TERMINATED NORMALLY****
TOTAL RUN TIME: 0 days 0 hours 3 minutes 49 seconds 994 msec
