                         Program Version 6.0.0  -   RELEASE  -
|  1> ! EnGrad wB97M-D3BJ def2-TZVPPD
|  2> %pal nprocs 8 end%pal nprocs 16 end
|  3> %tddft
|  4>  sf true
|  5>  nroots 2 Iroot 1 end
|  6> *xyz 0 3
|  7> O   0.80148135404247 1.37069719035808 -0.01064872552352
|  8> C   0.53332526173127 0.22448876994731 0.21657582387186
|  9> C   -0.46162684140726 -0.80003334798058 -0.23543269029423
| 10> H   1.18372529703953 -0.27171450105887 0.97913928875177
| 11> H   0.10595486548664 -1.64801268568006 -0.61717217346186
| 12> H   -1.16867112888063 -0.45349820280797 -0.98584599997435
| 13> H   -0.99198880801201 -1.14032722277792 0.65338447663032
| 14> *
| 15>
| 16>                          ****END OF INPUT****

CARTESIAN COORDINATES (ANGSTROEM)
---------------------------------
  O      0.801481    1.370697   -0.010649
  C      0.533325    0.224489    0.216576
  C     -0.461627   -0.800033   -0.235433
  H      1.183725   -0.271715    0.979139
  H      0.105955   -1.648013   -0.617172
  H     -1.168671   -0.453498   -0.985846
  H     -0.991989   -1.140327    0.653384

 Total Charge           Charge          ....    0
 Multiplicity           Mult            ....    3
 Number of Electrons    NEL             ....   24
 Basis Dimension        Dim             ....  182

ORBITAL ENERGIES
----------------
                 SPIN UP ORBITALS
  NO   OCC          E(Eh)            E(eV)
   0   1.0000     -19.405643      -528.0544
   1   1.0000     -10.380830      -282.4768
   2   1.0000     -10.370826      -282.2045
   3   1.0000      -1.242422       -33.8080
   4   1.0000      -0.888911       -24.1885
   5   1.0000      -0.715430       -19.4678
   6   1.0000      -0.629051       -17.1173
   7   1.0000      -0.589464       -16.0401
   8   1.0000      -0.580414       -15.7939
   9   1.0000      -0.517440       -14.0803
  10   1.0000      -0.516816       -14.0633
  11   1.0000      -0.423924       -11.5356
  12   1.0000      -0.217165        -5.9094
  13   0.0000       0.037827         1.0293
  14   0.0000       0.059743         1.6257
  15   0.0000       0.077557         2.1104
  16   0.0000       0.087398         2.3782
  17   0.0000       0.106200         2.8898

                 SPIN DOWN ORBITALS
  NO   OCC          E(Eh)            E(eV)
   0   1.0000     -19.378611      -527.3188
   1   1.0000     -10.370576      -282.1977
   2   1.0000     -10.368890      -282.1518
   3   1.0000      -1.186555       -32.2878
   4   1.0000      -0.869913       -23.6715
   5   1.0000      -0.669493       -18.2178
   6   1.0000      -0.585052       -15.9201
   7   1.0000      -0.542004       -14.7487
   8   1.0000      -0.535697       -14.5770
   9   1.0000      -0.497384       -13.5345
  10   1.0000      -0.471438       -12.8285
  11   0.0000      -0.081633        -2.2213
  12   0.0000       0.038952         1.0600
  13   0.0000       0.059408         1.6166
  14   0.0000       0.077127         2.0987
  15   0.0000       0.084908         2.3105

----------------------------------------------------------------------------------------------------
          SPIN FLIP ABSORPTION SPECTRUM VIA TRANSITION ELECTRIC DIPOLE MOMENTS
----------------------------------------------------------------------------------------------------
     Transition      Energy     Energy  Wavelength fosc(D2)      D2        DX        DY        DZ
                      (eV)      (cm-1)    (nm)                 (au**2)    (au)      (au)      (au)
----------------------------------------------------------------------------------------------------
  1-3A  ->  2-3A    4.613898   37213.6   268.7   0.000338320   0.00299   0.03428  -0.01590  -0.03956

Dispersion correction             ... done (  0.0 sec)

MULLIKEN ATOMIC CHARGES AND SPIN DENSITIES
------------------------------------------
   0 O :   -0.504928    0.053990
   1 C :    0.210465   -0.170323
   2 C :   -0.696615    0.041359
   3 H :    0.268311    0.075268
   4 H :    0.244277   -0.002809
   5 H :    0.235325    0.005244
   6 H :    0.243164   -0.002728
Sum of atomic charges       :   -0.0000000

LOEWDIN ATOMIC CHARGES AND SPIN DENSITIES
-----------------------------------------
   0 O :    0.052629    0.020957
   1 C :   -0.240992   -0.015162
   2 C :    0.179689   -0.002047
   3 H :    0.027476   -0.002850
   4 H :   -0.006022   -0.001251
   5 H :   -0.006735    0.001590
   6 H :   -0.006043   -0.001237

  Mayer bond orders larger than 0.100000
B(  0-O ,  1-C ) :   1.7919 B(  1-C ,  2-C ) :   0.7427 B(  1-C ,  3-H ) :   0.9480
B(  2-C ,  4-H ) :   0.9857 B(  2-C ,  5-H ) :   0.9685 B(  2-C ,  6-H ) :   0.9859

Dispersion correction           -0.005504964
FINAL SINGLE POINT ENERGY      -153.918111889855

DIPOLE MOMENT
-------------

Method             : TDA/CIS
Type of density    : Electron Density
Level              : Relaxed density
State              :   1
Multiplicity       :   3
Irrep              :   0
Energy             :     0.0000000000000000 Eh
Relativity type    :
Basis              : AO
                                X                 Y                 Z
Electronic contribution:      1.464114190       3.022480569       0.057723467
Nuclear contribution   :     -1.900482870      -4.257446026       0.058920508
                        -----------------------------------------
Total Dipole Moment    :     -0.436368680      -1.234965458       0.116643975
                        -----------------------------------------
Magnitude (a.u.)       :      1.314976473
Magnitude (Debye)      :      3.342404568

Rotational constants in cm-1:             2.335340             0.310244             0.288396
Rotational constants in MHz :         70011.734379          9300.885169          8645.904315

                             ****ORCA TERMINATED NORMALLY****
TOTAL RUN TIME: 0 days 0 hours 0 minutes 16 seconds 811 msec
