                         Program Version 6.0.0  -   RELEASE  -
|  1> ! EnGrad wB97M-D3BJ def2-TZVPPD
|  2> %pal nprocs 8 end%pal nprocs 16 end
|  3> %tddft
|  4>  sf true
|  5>  nroots 2 Iroot 2 end
|  6> *xyz 0 3
|  7> O   0.77657129973161 1.37483273539055 -0.00814087574233
|  8> C   0.53197663629137 0.22362785829022 0.22160703701064
|  9> C   -0.45842213215457 -0.80298575156038 -0.23471050213382
| 10> H   1.19514869231436 -0.26616786806253 0.97568608359414
| 11> H   0.11131497340591 -1.64505813857893 -0.6261442436333
| 12> H   -1.16751903563144 -0.44921219058928 -0.979714512525
| 13> H   -0.98687043395724 -1.15343664488966 0.65141701342968
| 14> *
| 15>
| 16>                          ****END OF INPUT****

CARTESIAN COORDINATES (ANGSTROEM)
---------------------------------
  O      0.776571    1.374833   -0.008141
  C      0.531977    0.223628    0.221607
  C     -0.458422   -0.802986   -0.234711
  H      1.195149   -0.266168    0.975686
  H      0.111315   -1.645058   -0.626144
  H     -1.167519   -0.449212   -0.979715
  H     -0.986870   -1.153437    0.651417

 Total Charge           Charge          ....    0
 Multiplicity           Mult            ....    3
 Number of Electrons    NEL             ....   24
 Basis Dimension        Dim             ....  182

ORBITAL ENERGIES
----------------
                 SPIN UP ORBITALS
  NO   OCC          E(Eh)            E(eV)
   0   1.0000     -19.405967      -528.0632
   1   1.0000     -10.380599      -282.4704
   2   1.0000     -10.370479      -282.1951
   3   1.0000      -1.242649       -33.8142
   4   1.0000      -0.888519       -24.1778
   5   1.0000      -0.715574       -19.4718
   6   1.0000      -0.629449       -17.1282
   7   1.0000      -0.589319       -16.0362
   8   1.0000      -0.580542       -15.7973
   9   1.0000      -0.517268       -14.0756
  10   1.0000      -0.516703       -14.0602
  11   1.0000      -0.424726       -11.5574
  12   1.0000      -0.217360        -5.9147
  13   0.0000       0.038057         1.0356
  14   0.0000       0.059797         1.6272
  15   0.0000       0.077612         2.1119
  16   0.0000       0.087429         2.3791
  17   0.0000       0.106326         2.8933

                 SPIN DOWN ORBITALS
  NO   OCC          E(Eh)            E(eV)
   0   1.0000     -19.378890      -527.3264
   1   1.0000     -10.370344      -282.1914
   2   1.0000     -10.368527      -282.1420
   3   1.0000      -1.186627       -32.2898
   4   1.0000      -0.869510       -23.6606
   5   1.0000      -0.669710       -18.2237
   6   1.0000      -0.585146       -15.9226
   7   1.0000      -0.541995       -14.7484
   8   1.0000      -0.535608       -14.5746
   9   1.0000      -0.497518       -13.5382
  10   1.0000      -0.471472       -12.8294
  11   0.0000      -0.081894        -2.2285
  12   0.0000       0.039129         1.0648
  13   0.0000       0.059464         1.6181
  14   0.0000       0.077197         2.1006
  15   0.0000       0.084881         2.3097

----------------------------------------------------------------------------------------------------
          SPIN FLIP ABSORPTION SPECTRUM VIA TRANSITION ELECTRIC DIPOLE MOMENTS
----------------------------------------------------------------------------------------------------
     Transition      Energy     Energy  Wavelength fosc(D2)      D2        DX        DY        DZ
                      (eV)      (cm-1)    (nm)                 (au**2)    (au)      (au)      (au)
----------------------------------------------------------------------------------------------------
  1-3A  ->  2-3A    4.617205   37240.3   268.5   0.000318865   0.00282  -0.03325   0.01470   0.03869

Dispersion correction             ... done (  0.0 sec)

MULLIKEN ATOMIC CHARGES AND SPIN DENSITIES
------------------------------------------
   0 O :   -0.277130    0.551857
   1 C :    0.236551   -0.600627
   2 C :   -0.706814    0.125234
   3 H :    0.080656    0.028683
   4 H :    0.209770   -0.051178
   5 H :    0.247967   -0.001062
   6 H :    0.209001   -0.052906
Sum of atomic charges       :   -0.0000000

LOEWDIN ATOMIC CHARGES AND SPIN DENSITIES
-----------------------------------------
   0 O :    0.154361    0.366121
   1 C :   -0.258567   -0.330136
   2 C :    0.131761   -0.021210
   3 H :    0.020587    0.024096
   4 H :   -0.021142   -0.023864
   5 H :   -0.005903    0.009101
   6 H :   -0.021098   -0.024108

  Mayer bond orders larger than 0.100000
B(  0-O ,  1-C ) :   1.3045 B(  1-C ,  2-C ) :   0.6002 B(  1-C ,  3-H ) :   0.9895
B(  2-C ,  4-H ) :   1.0156 B(  2-C ,  5-H ) :   0.9276 B(  2-C ,  6-H ) :   1.0154

Dispersion correction           -0.005507448
FINAL SINGLE POINT ENERGY      -153.749317524752

DIPOLE MOMENT
-------------

Method             : TDA/CIS
Type of density    : Electron Density
Level              : Relaxed density
State              :   2
Multiplicity       :   3
Irrep              :   0
Energy             :     0.0000000000000000 Eh
Relativity type    :
Basis              : AO
                                X                 Y                 Z
Electronic contribution:      1.594617378       3.620079027      -0.016381675
Nuclear contribution   :     -1.849033007      -4.259400864       0.042577943
                        -----------------------------------------
Total Dipole Moment    :     -0.254415629      -0.639321837       0.026196268
                        -----------------------------------------
Magnitude (a.u.)       :      0.688582580
Magnitude (Debye)      :      1.750237824

Rotational constants in cm-1:             2.303938             0.312030             0.289460
Rotational constants in MHz :         69070.328696          9354.412947          8677.805990

                             ****ORCA TERMINATED NORMALLY****
TOTAL RUN TIME: 0 days 0 hours 0 minutes 16 seconds 84 msec
