                         Program Version 6.0.0  -   RELEASE  -
|  1> ! Engrad def2-TZVPPD wB97M-D3BJ
|  2> %pal nprocs 8 end%pal nprocs 64 end
|  3> %tddft Nroots 2 Iroot 1
|  4> sf true
|  5> end
|  6> *xyz 0 3
|  7> O   2.60480002 1.15844362 -0.55205113
|  8> O   -0.59627642 0.84334457 -2.27749277
|  9> O   0.70260275 -2.8661756 -1.4560658
| 10> O   -2.58047713 -1.6481634 0.97031753
| 11> N   0.58499467 -2.05438757 0.66762308
| 12> N   -1.97185515 0.49477692 1.44500377
| 13> N   1.71211366 -0.88161642 -0.96192478
| 14> N   -1.64301956 -0.35616725 -0.66079091
| 15> C   1.33805782 0.15434759 1.17862256
| 16> C   -0.77598972 1.83236046 -0.13594879
| 17> C   0.73265209 -0.98996397 1.5286313
| 18> C   -1.33135638 1.65491045 1.10315678
| 19> C   1.60912594 1.27152471 2.13436344
| 20> C   -0.08078481 3.08370812 -0.53876834
| 21> C   1.94424692 0.22457213 -0.1497773
| 22> C   -0.97144826 0.78985009 -1.11986138
| 23> C   0.97539462 -2.00447435 -0.65111368
| 24> C   -2.10813855 -0.58694091 0.60594179
| 25> H   0.31539179 -1.14358465 2.51389163
| 26> H   -1.26500644 2.40097878 1.85808836
| 27> H   1.37626767 2.24373124 1.68610562
| 28> H   1.02083528 1.15058196 3.0443042
| 29> H   2.67296922 1.2985978 2.39552623
| 30> H   -0.55784157 3.51625691 -1.42083705
| 31> H   -0.08255246 3.81799645 0.26514593
| 32> H   0.96256394 2.87354978 -0.82279309
| 33> H   -0.03505456 -2.81362998 0.9068738
| 34> H   -2.34256117 0.38059242 2.37094764
| 35> H   2.00872562 -0.79976382 -1.91734606
| 36> H   -1.72748494 -1.11772161 -1.31363953
| 37> *
| 38>
| 39>                          ****END OF INPUT****

CARTESIAN COORDINATES (ANGSTROEM)
---------------------------------
  O      2.604800    1.158444   -0.552051
  O     -0.596276    0.843345   -2.277493
  O      0.702603   -2.866176   -1.456066
  O     -2.580477   -1.648163    0.970318
  N      0.584995   -2.054388    0.667623
  N     -1.971855    0.494777    1.445004
  N      1.712114   -0.881616   -0.961925
  N     -1.643020   -0.356167   -0.660791
  C      1.338058    0.154348    1.178623
  C     -0.775990    1.832360   -0.135949
  C      0.732652   -0.989964    1.528631
  C     -1.331356    1.654910    1.103157
  C      1.609126    1.271525    2.134363
  C     -0.080785    3.083708   -0.538768
  C      1.944247    0.224572   -0.149777
  C     -0.971448    0.789850   -1.119861
  C      0.975395   -2.004474   -0.651114
  C     -2.108139   -0.586941    0.605942
  H      0.315392   -1.143585    2.513892
  H     -1.265006    2.400979    1.858088
  H      1.376268    2.243731    1.686106
  H      1.020835    1.150582    3.044304
  H      2.672969    1.298598    2.395526
  H     -0.557842    3.516257   -1.420837
  H     -0.082552    3.817996    0.265146
  H      0.962564    2.873550   -0.822793
  H     -0.035055   -2.813630    0.906874
  H     -2.342561    0.380592    2.370948
  H      2.008726   -0.799764   -1.917346
  H     -1.727485   -1.117722   -1.313640

 Total Charge           Charge          ....    0
 Multiplicity           Mult            ....    3
 Number of Electrons    NEL             ....  132
 Basis Dimension        Dim             ....  882

ORBITAL ENERGIES
----------------
                 SPIN UP ORBITALS
  NO   OCC          E(Eh)            E(eV)
   0   1.0000     -19.337298      -526.1946
   1   1.0000     -19.322579      -525.7941
   2   1.0000     -19.320767      -525.7448
   3   1.0000     -19.319502      -525.7104
   4   1.0000     -14.595546      -397.1650
   5   1.0000     -14.578116      -396.6907
   6   1.0000     -14.563298      -396.2875
   7   1.0000     -14.556790      -396.1104
   8   1.0000     -10.516191      -286.1601
   9   1.0000     -10.506446      -285.8949
  10   1.0000     -10.476330      -285.0754
  11   1.0000     -10.460934      -284.6565
  12   1.0000     -10.433365      -283.9063
  13   1.0000     -10.411182      -283.3027
  14   1.0000     -10.403235      -283.0864
  15   1.0000     -10.380690      -282.4729
  16   1.0000     -10.364303      -282.0270
  17   1.0000     -10.363248      -281.9983
  18   1.0000      -1.230529       -33.4844
  19   1.0000      -1.220095       -33.2005
  20   1.0000      -1.191541       -32.4235
  21   1.0000      -1.189647       -32.3719
  22   1.0000      -1.129577       -30.7374
  23   1.0000      -1.118093       -30.4249
  24   1.0000      -1.066674       -29.0257
  25   1.0000      -1.064835       -28.9756
  26   1.0000      -0.975632       -26.5483
  27   1.0000      -0.956995       -26.0411
  28   1.0000      -0.856470       -23.3057
  29   1.0000      -0.849250       -23.1093
  30   1.0000      -0.817083       -22.2340
  31   1.0000      -0.809041       -22.0151
  32   1.0000      -0.794154       -21.6100
  33   1.0000      -0.788861       -21.4660
  34   1.0000      -0.702006       -19.1026
  35   1.0000      -0.697421       -18.9778
  36   1.0000      -0.693158       -18.8618
  37   1.0000      -0.689256       -18.7556
  38   1.0000      -0.646870       -17.6022
  39   1.0000      -0.638878       -17.3847
  40   1.0000      -0.636825       -17.3289
  41   1.0000      -0.599718       -16.3191
  42   1.0000      -0.599054       -16.3011
  43   1.0000      -0.593236       -16.1428
  44   1.0000      -0.577649       -15.7186
  45   1.0000      -0.573755       -15.6127
  46   1.0000      -0.560698       -15.2574
  47   1.0000      -0.552179       -15.0256
  48   1.0000      -0.551639       -15.0109
  49   1.0000      -0.547495       -14.8981
  50   1.0000      -0.530750       -14.4424
  51   1.0000      -0.523166       -14.2361
  52   1.0000      -0.521092       -14.1796
  53   1.0000      -0.517091       -14.0708
  54   1.0000      -0.506720       -13.7885
  55   1.0000      -0.503898       -13.7118
  56   1.0000      -0.495053       -13.4711
  57   1.0000      -0.473651       -12.8887
  58   1.0000      -0.425716       -11.5843
  59   1.0000      -0.412736       -11.2311
  60   1.0000      -0.410754       -11.1772
  61   1.0000      -0.396480       -10.7888
  62   1.0000      -0.389797       -10.6069
  63   1.0000      -0.389260       -10.5923
  64   1.0000      -0.382498       -10.4083
  65   1.0000      -0.344845        -9.3837
  66   1.0000      -0.218211        -5.9378
  67   0.0000       0.011186         0.3044
  68   0.0000       0.020363         0.5541
  69   0.0000       0.032898         0.8952
  70   0.0000       0.038969         1.0604
  71   0.0000       0.040686         1.1071

                 SPIN DOWN ORBITALS
  NO   OCC          E(Eh)            E(eV)
   0   1.0000     -19.335523      -526.1463
   1   1.0000     -19.320787      -525.7453
   2   1.0000     -19.319426      -525.7083
   3   1.0000     -19.316173      -525.6198
   4   1.0000     -14.591386      -397.0518
   5   1.0000     -14.577860      -396.6837
   6   1.0000     -14.563310      -396.2878
   7   1.0000     -14.555842      -396.0846
   8   1.0000     -10.516449      -286.1671
   9   1.0000     -10.506457      -285.8952
  10   1.0000     -10.476306      -285.0748
  11   1.0000     -10.460638      -284.6484
  12   1.0000     -10.432893      -283.8934
  13   1.0000     -10.401839      -283.0484
  14   1.0000     -10.392512      -282.7946
  15   1.0000     -10.380802      -282.4760
  16   1.0000     -10.364185      -282.0238
  17   1.0000     -10.363644      -282.0091
  18   1.0000      -1.226633       -33.3784
  19   1.0000      -1.219758       -33.1913
  20   1.0000      -1.190676       -32.4000
  21   1.0000      -1.181075       -32.1387
  22   1.0000      -1.119899       -30.4740
  23   1.0000      -1.117353       -30.4047
  24   1.0000      -1.064812       -28.9750
  25   1.0000      -1.061295       -28.8793
  26   1.0000      -0.959886       -26.1198
  27   1.0000      -0.948416       -25.8077
  28   1.0000      -0.848815       -23.0974
  29   1.0000      -0.844447       -22.9786
  30   1.0000      -0.810479       -22.0543
  31   1.0000      -0.805073       -21.9071
  32   1.0000      -0.788823       -21.4650
  33   1.0000      -0.787158       -21.4197
  34   1.0000      -0.693137       -18.8612
  35   1.0000      -0.691224       -18.8092
  36   1.0000      -0.689456       -18.7610
  37   1.0000      -0.688084       -18.7237
  38   1.0000      -0.639083       -17.3903
  39   1.0000      -0.634512       -17.2659
  40   1.0000      -0.630839       -17.1660
  41   1.0000      -0.594857       -16.1869
  42   1.0000      -0.590896       -16.0791
  43   1.0000      -0.588799       -16.0220
  44   1.0000      -0.567973       -15.4553
  45   1.0000      -0.564669       -15.3654
  46   1.0000      -0.559673       -15.2295
  47   1.0000      -0.550729       -14.9861
  48   1.0000      -0.544844       -14.8260
  49   1.0000      -0.533620       -14.5205
  50   1.0000      -0.522233       -14.2107
  51   1.0000      -0.521036       -14.1781
  52   1.0000      -0.515167       -14.0184
  53   1.0000      -0.505103       -13.7445
  54   1.0000      -0.504083       -13.7168
  55   1.0000      -0.498781       -13.5725
  56   1.0000      -0.471506       -12.8303
  57   1.0000      -0.455133       -12.3848
  58   1.0000      -0.421662       -11.4740
  59   1.0000      -0.412219       -11.2170
  60   1.0000      -0.397089       -10.8053
  61   1.0000      -0.386289       -10.5115
  62   1.0000      -0.383733       -10.4419
  63   1.0000      -0.381340       -10.3768
  64   1.0000      -0.344021        -9.3613
  65   0.0000      -0.105589        -2.8732
  66   0.0000       0.010793         0.2937
  67   0.0000       0.023519         0.6400
  68   0.0000       0.030599         0.8326
  69   0.0000       0.037027         1.0076

----------------------------------------------------------------------------------------------------
          SPIN FLIP ABSORPTION SPECTRUM VIA TRANSITION ELECTRIC DIPOLE MOMENTS
----------------------------------------------------------------------------------------------------
     Transition      Energy     Energy  Wavelength fosc(D2)      D2        DX        DY        DZ
                      (eV)      (cm-1)    (nm)                 (au**2)    (au)      (au)      (au)
----------------------------------------------------------------------------------------------------
  1-3A  ->  2-3A    3.921492   31629.0   316.2   0.000976654   0.01017   0.02551  -0.04945  -0.08408

Dispersion correction             ... done (  0.1 sec)

MULLIKEN ATOMIC CHARGES AND SPIN DENSITIES
------------------------------------------
   0 O :   -0.677837   -0.001417
   1 O :   -0.687252    0.037185
   2 O :   -0.652735   -0.000218
   3 O :   -0.670018    0.006508
   4 N :   -0.055267   -0.001006
   5 N :    0.031072    0.053363
   6 N :    0.056578   -0.000106
   7 N :    0.040224    0.003115
   8 C :    1.029173    0.000076
   9 C :    0.861886    0.493047
  10 C :    0.043010    0.016260
  11 C :   -0.085361   -0.325100
  12 C :   -1.516171   -0.012592
  13 C :   -1.521771   -0.040096
  14 C :    0.134490   -0.013638
  15 C :    0.387043   -0.299520
  16 C :    0.399377    0.001883
  17 C :    0.447907    0.011930
  18 H :    0.188827    0.000029
  19 H :    0.228851    0.034816
  20 H :    0.245281    0.005635
  21 H :    0.328946    0.003053
  22 H :    0.378042   -0.002058
  23 H :    0.380609   -0.000907
  24 H :    0.326515    0.012619
  25 H :    0.232914    0.015199
  26 H :    0.064627   -0.000259
  27 H :    0.024890    0.000239
  28 H :    0.017631   -0.000066
  29 H :    0.018522    0.002024
Sum of atomic charges       :   -0.0000000

LOEWDIN ATOMIC CHARGES AND SPIN DENSITIES
-----------------------------------------
   0 O :    0.090677    0.000652
   1 O :    0.087243    0.029617
   2 O :    0.087585   -0.000135
   3 O :    0.075331    0.005360
   4 N :    0.276802   -0.000225
   5 N :    0.291821    0.021780
   6 N :    0.349091    0.000339
   7 N :    0.348999   -0.001004
   8 C :   -0.152146   -0.000435
   9 C :   -0.141721   -0.035733
  10 C :    0.039793   -0.000771
  11 C :    0.063997   -0.025648
  12 C :    0.173058   -0.000749
  13 C :    0.173515   -0.003108
  14 C :   -0.399869    0.000190
  15 C :   -0.405693    0.009431
  16 C :   -0.483595   -0.000104
  17 C :   -0.487242   -0.000169
  18 H :    0.041136   -0.000052
  19 H :    0.026094   -0.001408
  20 H :   -0.012556   -0.000240
  21 H :   -0.004334    0.000035
  22 H :    0.010001   -0.000075
  23 H :    0.006084   -0.000062
  24 H :   -0.004600    0.000295
  25 H :   -0.006005   -0.000122
  26 H :   -0.016698    0.000002
  27 H :   -0.013456    0.002155
  28 H :   -0.006157    0.000113
  29 H :   -0.007155    0.000073

  Mayer bond orders larger than 0.100000
B(  0-O , 14-C ) :   1.4385 B(  1-O , 15-C ) :   1.3663 B(  2-O , 16-C ) :   1.5606
B(  3-O , 17-C ) :   1.5421 B(  4-N , 10-C ) :   0.8150 B(  4-N , 16-C ) :   1.0178
B(  4-N , 26-H ) :   1.1120 B(  5-N , 11-C ) :   0.9862 B(  5-N , 17-C ) :   1.0103
B(  5-N , 27-H ) :   1.1293 B(  6-N ,  8-C ) :  -0.1087 B(  6-N , 14-C ) :   1.0532
B(  6-N , 16-C ) :   0.9151 B(  6-N , 28-H ) :   1.1104 B(  7-N , 15-C ) :   0.9416
B(  7-N , 17-C ) :   0.9597 B(  7-N , 29-H ) :   1.1289 B(  8-C , 10-C ) :   1.0291
B(  8-C , 12-C ) :   0.3536 B(  8-C , 14-C ) :   0.6097 B(  8-C , 20-H ) :  -0.1104
B(  8-C , 21-H ) :  -0.1002 B(  9-C , 11-C ) :   1.0725 B(  9-C , 13-C ) :   0.3070
B(  9-C , 15-C ) :   0.6706 B(  9-C , 17-C ) :   0.1000 B(  9-C , 24-H ) :  -0.1277
B( 10-C , 12-C ) :  -0.2094 B( 10-C , 18-H ) :   1.1393 B( 11-C , 13-C ) :  -0.2317
B( 11-C , 15-C ) :   0.1088 B( 11-C , 19-H ) :   1.0848 B( 12-C , 14-C ) :  -0.1079
B( 12-C , 20-H ) :   1.0174 B( 12-C , 21-H ) :   1.0397 B( 12-C , 22-H ) :   0.8599
B( 13-C , 23-H ) :   0.8476 B( 13-C , 24-H ) :   1.0741 B( 13-C , 25-H ) :   0.9792

Dispersion correction           -0.061442046
FINAL SINGLE POINT ENERGY      -908.921166520262

DIPOLE MOMENT
-------------

Method             : TDA/CIS
Type of density    : Electron Density
Level              : Relaxed density
State              :   1
Multiplicity       :   3
Irrep              :   0
Energy             :     0.0000000000000000 Eh
Relativity type    :
Basis              : AO
                                X                 Y                 Z
Electronic contribution:     -2.763208196     -10.174817865      -5.742964365
Nuclear contribution   :      2.106272592      11.126676180       8.435340241
                        -----------------------------------------
Total Dipole Moment    :     -0.656935603       0.951858314       2.692375876
                        -----------------------------------------
Magnitude (a.u.)       :      2.930270720
Magnitude (Debye)      :      7.448156257

Rotational constants in cm-1:             0.017389             0.016976             0.013601
Rotational constants in MHz :           521.316188           508.927269           407.753062

                             ****ORCA TERMINATED NORMALLY****
TOTAL RUN TIME: 0 days 0 hours 5 minutes 29 seconds 530 msec
