                         Program Version 6.0.0  -   RELEASE  -
|  1> ! Engrad wB97M-D3BJ def2-TZVPPD
|  2> %pal nprocs 8 end%pal nprocs 16 end
|  3> %tddft nroots 2 Iroot 2
|  4>  sf true
|  5> end
|  6> *xyz 0 3
|  7> O   0.13462619115752 0.84240167735806 -8.494216885e-05
|  8> C   0.72412125965529 -0.40241432177803 2.920581365e-05
|  9> C   -0.70147080153682 -0.4763150114944 -4.730259547e-05
| 10> H   1.26349757612092 -0.67173423268479 0.90567513067184
| 11> H   1.26350314602848 -0.6717710239241 -0.90560891733834
| 12> H   -1.23858626756427 -0.61722527439708 -0.92411246355956
| 13> H   -1.23847871730564 -0.61679695276098 0.92414928917673
| 14> *
| 15>
| 16>                          ****END OF INPUT****

CARTESIAN COORDINATES (ANGSTROEM)
---------------------------------
  O      0.134626    0.842402   -0.000085
  C      0.724121   -0.402414    0.000029
  C     -0.701471   -0.476315   -0.000047
  H      1.263498   -0.671734    0.905675
  H      1.263503   -0.671771   -0.905609
  H     -1.238586   -0.617225   -0.924112
  H     -1.238479   -0.616797    0.924149

 Total Charge           Charge          ....    0
 Multiplicity           Mult            ....    3
 Number of Electrons    NEL             ....   24
 Basis Dimension        Dim             ....  182

ORBITAL ENERGIES
----------------
                 SPIN UP ORBITALS
  NO   OCC          E(Eh)            E(eV)
   0   1.0000     -19.464340      -529.6516
   1   1.0000     -10.421618      -283.5866
   2   1.0000     -10.360828      -281.9325
   3   1.0000      -1.288437       -35.0602
   4   1.0000      -0.863255       -23.4904
   5   1.0000      -0.775926       -21.1140
   6   1.0000      -0.684298       -18.6207
   7   1.0000      -0.647213       -17.6115
   8   1.0000      -0.569087       -15.4856
   9   1.0000      -0.505080       -13.7439
  10   1.0000      -0.496209       -13.5025
  11   1.0000      -0.471423       -12.8281
  12   1.0000      -0.154226        -4.1967
  13   0.0000       0.037129         1.0103
  14   0.0000       0.061407         1.6710
  15   0.0000       0.070674         1.9231
  16   0.0000       0.087317         2.3760
  17   0.0000       0.110094         2.9958

                 SPIN DOWN ORBITALS
  NO   OCC          E(Eh)            E(eV)
   0   1.0000     -19.431486      -528.7576
   1   1.0000     -10.421875      -283.5936
   2   1.0000     -10.351932      -281.6904
   3   1.0000      -1.221625       -33.2421
   4   1.0000      -0.829412       -22.5695
   5   1.0000      -0.757217       -20.6049
   6   1.0000      -0.629518       -17.1300
   7   1.0000      -0.614546       -16.7226
   8   1.0000      -0.530801       -14.4438
   9   1.0000      -0.481814       -13.1108
  10   1.0000      -0.438230       -11.9248
  11   0.0000      -0.113659        -3.0928
  12   0.0000       0.033164         0.9024
  13   0.0000       0.057088         1.5535
  14   0.0000       0.062986         1.7139
  15   0.0000       0.064676         1.7599

----------------------------------------------------------------------------------------------------
          SPIN FLIP ABSORPTION SPECTRUM VIA TRANSITION ELECTRIC DIPOLE MOMENTS
----------------------------------------------------------------------------------------------------
     Transition      Energy     Energy  Wavelength fosc(D2)      D2        DX        DY        DZ
                      (eV)      (cm-1)    (nm)                 (au**2)    (au)      (au)      (au)
----------------------------------------------------------------------------------------------------
  1-3A  ->  2-3A    6.188337   49912.3   200.4   0.007974448   0.05260   0.00008   0.00003  -0.22934

Dispersion correction             ... done (  0.0 sec)

MULLIKEN ATOMIC CHARGES AND SPIN DENSITIES
------------------------------------------
   0 O :   -0.323915    0.338430
   1 C :   -0.033355    0.222704
   2 C :    0.551142    0.305431
   3 H :    0.180848   -0.002047
   4 H :    0.180723   -0.002177
   5 H :   -0.277629   -0.430998
   6 H :   -0.277814   -0.431343
Sum of atomic charges       :   -0.0000000

LOEWDIN ATOMIC CHARGES AND SPIN DENSITIES
-----------------------------------------
   0 O :    0.092267    0.486169
   1 C :   -0.054057    0.019316
   2 C :    0.068564   -0.281106
   3 H :    0.014659   -0.005587
   4 H :    0.014663   -0.005579
   5 H :   -0.068051   -0.106621
   6 H :   -0.068046   -0.106591

  Mayer bond orders larger than 0.100000
B(  0-O ,  1-C ) :   0.7572 B(  0-O ,  2-C ) :   0.7078 B(  0-O ,  5-H ) :   0.1227
B(  0-O ,  6-H ) :   0.1229 B(  1-C ,  2-C ) :   0.6997 B(  1-C ,  3-H ) :   0.9872
B(  1-C ,  4-H ) :   0.9872 B(  2-C ,  5-H ) :   0.7236 B(  2-C ,  6-H ) :   0.7240
B(  5-H ,  6-H ) :   0.7817

Dispersion correction           -0.005237416
FINAL SINGLE POINT ENERGY      -153.638078892162

DIPOLE MOMENT
-------------

Method             : TDA/CIS
Type of density    : Electron Density
Level              : Relaxed density
State              :   2
Multiplicity       :   3
Irrep              :   0
Energy             :     0.0000000000000000 Eh
Relativity type    :
Basis              : AO
                                X                 Y                 Z
Electronic contribution:      0.659077598       1.987717125      -0.000184996
Nuclear contribution   :     -0.162936053      -2.433513176       0.000221342
                        -----------------------------------------
Total Dipole Moment    :      0.496141545      -0.445796052       0.000036347
                        -----------------------------------------
Magnitude (a.u.)       :      0.667001165
Magnitude (Debye)      :      1.695382228

Rotational constants in cm-1:             0.870476             0.709719             0.463527
Rotational constants in MHz :         26096.216824         21276.827640         13896.197010

                             ****ORCA TERMINATED NORMALLY****
TOTAL RUN TIME: 0 days 0 hours 0 minutes 19 seconds 418 msec
