                         Program Version 6.0.0  -   RELEASE  -
|  1> ! opt def2-TZVPPD wB97M-D3BJ
|  2> %pal nprocs 8 end%pal nprocs 32 end
|  3> %geom Constraints
|  4> {B 9 8 3.3 C}
|  5> {A 8 9 11 70.57142857142857 C}
|  6> end
|  7> MaxIter 300
|  8> end
|  9> *xyz 0 1
| 10> O   2.98579685529314 0.88758230159078 -0.86184571092411
| 11> O   -0.03983205397054 0.68929041702508 -2.10362336723772
| 12> O   0.93431434349854 -3.13274393337945 -0.68767288184107
| 13> O   -3.75829998830163 -0.84727300865116 -0.0472717177755
| 14> N   0.21184538946282 -1.54604804365365 0.7617588924445
| 15> N   -2.13631993928911 0.03188773433438 1.27350571071531
| 16> N   2.02598672506387 -1.14318467211666 -0.64531219127023
| 17> N   -1.91814233924584 0.03137116037665 -1.04498946748291
| 18> C   1.18097737274226 0.71693507080484 0.70173889017321
| 19> C   -0.20686880480777 1.27024627933494 0.21345042231937
| 20> C   0.41441080275909 -0.34173258966541 1.52336266615173
| 21> C   -0.82922175114212 0.58960593673968 1.44434972027296
| 22> C   1.92822011286806 1.69488653817281 1.5963734975385
| 23> C   -0.37809776891576 2.77134929626422 0.04819649358288
| 24> C   2.1403947470937 0.1972384729179 -0.35038567829864
| 25> C   -0.67361678962426 0.6214190571346 -1.0793014500539
| 26> C   1.04142578622994 -2.02697492875068 -0.21027082435993
| 27> C   -2.68467002550422 -0.30396816036989 0.07167054343891
| 28> H   0.80817443950001 -0.54572267081061 2.51895215321335
| 29> H   -0.83785272399001 1.27240685039143 2.28901317073582
| 30> H   2.31167340578204 2.52284411740894 1.00913016264629
| 31> H   1.28982602448342 2.08257620823614 2.38710022492991
| 32> H   2.77390820759972 1.19140411795486 2.06045858523949
| 33> H   -1.41857211141493 3.00964947214868 -0.16882755561625
| 34> H   -0.09065531563179 3.29799318042223 0.95389844358819
| 35> H   0.23426221611057 3.12492645074476 -0.77764887675592
| 36> H   -0.46772570547622 -2.21560145172536 1.0787081584806
| 37> H   -2.71769301149571 -0.17090724573546 2.06627440900372
| 38> H   2.60065167263658 -1.49057255715425 -1.3966820077142
| 39> H   -2.27169977231386 -0.32388339999036 -1.91951041514436
| 40> *
| 41>
| 42>                          ****END OF INPUT****
 Total Charge           Charge          ....    0
 Multiplicity           Mult            ....    1
 Number of Electrons    NEL             ....  132
Dispersion correction           -0.051822396
FINAL SINGLE POINT ENERGY      -908.620708825767
Dispersion correction             ... done (  0.0 sec)
Dispersion correction           -0.052511155
FINAL SINGLE POINT ENERGY      -908.655034259602
Dispersion correction             ... done (  0.1 sec)
Dispersion correction           -0.053160759
FINAL SINGLE POINT ENERGY      -908.677402034669
Dispersion correction             ... done (  0.1 sec)
FINAL SINGLE POINT ENERGY      -908.695788410128
FINAL SINGLE POINT ENERGY      -908.704789815797
FINAL SINGLE POINT ENERGY      -908.709646590662
FINAL SINGLE POINT ENERGY      -908.714653506739
FINAL SINGLE POINT ENERGY      -908.718758862700
FINAL SINGLE POINT ENERGY      -908.721495853721
FINAL SINGLE POINT ENERGY      -908.724143378739
FINAL SINGLE POINT ENERGY      -908.933542663921
FINAL SINGLE POINT ENERGY      -908.933676039602
FINAL SINGLE POINT ENERGY      -908.933794055483
FINAL SINGLE POINT ENERGY      -908.933858540606
FINAL SINGLE POINT ENERGY      -908.933885442500
FINAL SINGLE POINT ENERGY      -908.933899437704
FINAL SINGLE POINT ENERGY      -908.933908311817
Dispersion correction             ... done (  0.0 sec)
Dispersion correction           -0.060181775
FINAL SINGLE POINT ENERGY      -908.933916003898
Dispersion correction             ... done (  0.0 sec)
Dispersion correction           -0.060169272
FINAL SINGLE POINT ENERGY      -908.933919413083
Dispersion correction             ... done (  0.0 sec)
                    ***********************HURRAY********************

CARTESIAN COORDINATES (ANGSTROEM)
---------------------------------
  O      2.518361    1.239758   -0.422300
  O     -0.805701    0.815461   -2.389312
  O      0.595860   -2.732166   -1.508553
  O     -2.494989   -1.600574    1.071648
  N      0.603322   -2.082351    0.673715
  N     -1.846224    0.548458    1.445518
  N      1.625968   -0.780254   -0.927043
  N     -1.697801   -0.347576   -0.663732
  C      1.417599    0.064188    1.318900
  C     -0.842347    1.874988   -0.263391
  C      0.810216   -1.093292    1.606606
  C     -1.225434    1.694649    1.005097
  C      1.698752    1.135346    2.321328
  C     -0.176840    3.113671   -0.768410
  C      1.911891    0.259052   -0.044517
  C     -1.094674    0.790566   -1.214550
  C      0.917569   -1.932231   -0.659760
  C     -2.055819   -0.551624    0.647113
  H      0.435489   -1.317417    2.593938
  H     -1.079833    2.453102    1.758681
  H      1.387118    2.105214    1.939483
  H      1.184663    0.935733    3.259568
  H      2.766621    1.208744    2.520381
  H     -0.751278    3.548714   -1.583759
  H     -0.080708    3.849117    0.027237
  H      0.814762    2.880863   -1.149519
  H     -0.014778   -2.847512    0.882759
  H     -2.098985    0.436107    2.410040
  H      1.850677   -0.620150   -1.897098
  H     -1.820858   -1.133586   -1.285469

 Multiplicity           Mult            ....    1
 Number of Electrons    NEL             ....  132
 Basis Dimension        Dim             ....  882

ORBITAL ENERGIES
----------------

  NO   OCC          E(Eh)            E(eV)
   0   2.0000     -19.329344      -525.9782
   1   2.0000     -19.323893      -525.8298
   2   2.0000     -19.321168      -525.7557
   3   2.0000     -19.319891      -525.7210
   4   2.0000     -14.585742      -396.8982
   5   2.0000     -14.575687      -396.6246
   6   2.0000     -14.571400      -396.5079
   7   2.0000     -14.564716      -396.3261
   8   2.0000     -10.515857      -286.1510
   9   2.0000     -10.506617      -285.8996
  10   2.0000     -10.479225      -285.1542
  11   2.0000     -10.476695      -285.0854
  12   2.0000     -10.431124      -283.8453
  13   2.0000     -10.429891      -283.8118
  14   2.0000     -10.379697      -282.4459
  15   2.0000     -10.379155      -282.4312
  16   2.0000     -10.363197      -281.9969
  17   2.0000     -10.348410      -281.5946
  18   2.0000      -1.228801       -33.4374
  19   2.0000      -1.219988       -33.1976
  20   2.0000      -1.194661       -32.5084
  21   2.0000      -1.190284       -32.3893
  22   2.0000      -1.124738       -30.6057
  23   2.0000      -1.117306       -30.4034
  24   2.0000      -1.071013       -29.1438
  25   2.0000      -1.064760       -28.9736
  26   2.0000      -0.959002       -26.0958
  27   2.0000      -0.954495       -25.9731
  28   2.0000      -0.850417       -23.1410
  29   2.0000      -0.845396       -23.0044
  30   2.0000      -0.811284       -22.0762
  31   2.0000      -0.807806       -21.9815
  32   2.0000      -0.795485       -21.6462
  33   2.0000      -0.788716       -21.4621
  34   2.0000      -0.696172       -18.9438
  35   2.0000      -0.693274       -18.8649
  36   2.0000      -0.691665       -18.8212
  37   2.0000      -0.688478       -18.7344
  38   2.0000      -0.643021       -17.4975
  39   2.0000      -0.640252       -17.4221
  40   2.0000      -0.635250       -17.2860
  41   2.0000      -0.598029       -16.2732
  42   2.0000      -0.595917       -16.2157
  43   2.0000      -0.592112       -16.1122
  44   2.0000      -0.569085       -15.4856
  45   2.0000      -0.564319       -15.3559
  46   2.0000      -0.560761       -15.2591
  47   2.0000      -0.551710       -15.0128
  48   2.0000      -0.549835       -14.9618
  49   2.0000      -0.547295       -14.8927
  50   2.0000      -0.520994       -14.1770
  51   2.0000      -0.516790       -14.0626
  52   2.0000      -0.514865       -14.0102
  53   2.0000      -0.513242       -13.9660
  54   2.0000      -0.506520       -13.7831
  55   2.0000      -0.496134       -13.5005
  56   2.0000      -0.479042       -13.0354
  57   2.0000      -0.472138       -12.8475
  58   2.0000      -0.421285       -11.4638
  59   2.0000      -0.412877       -11.2350
  60   2.0000      -0.405586       -11.0366
  61   2.0000      -0.396955       -10.8017
  62   2.0000      -0.387814       -10.5530
  63   2.0000      -0.384654       -10.4670
  64   2.0000      -0.348458        -9.4820
  65   2.0000      -0.342892        -9.3306
  66   0.0000       0.010155         0.2763
  67   0.0000       0.019884         0.5411
  68   0.0000       0.023506         0.6396
  69   0.0000       0.033527         0.9123
  70   0.0000       0.040241         1.0950

MULLIKEN ATOMIC CHARGES
-----------------------
   0 O :   -0.680448
   1 O :   -0.662925
   2 O :   -0.646389
   3 O :   -0.671358
   4 N :   -0.046024
   5 N :    0.013990
   6 N :    0.056421
   7 N :    0.051959
   8 C :    0.886167
   9 C :    0.828356
  10 C :    0.107629
  11 C :   -0.215396
  12 C :   -1.520277
  13 C :   -1.385970
  14 C :    0.238765
  15 C :    0.479455
  16 C :    0.359847
  17 C :    0.424075
  18 H :    0.168554
  19 H :    0.183159
  20 H :    0.249576
  21 H :    0.337621
  22 H :    0.377067
  23 H :    0.366024
  24 H :    0.322598
  25 H :    0.224785
  26 H :    0.059294
  27 H :    0.027800
  28 H :    0.035587
  29 H :    0.030056
Sum of atomic charges:    0.0000000

LOEWDIN ATOMIC CHARGES
----------------------
   0 O :    0.088195
   1 O :    0.103595
   2 O :    0.088432
   3 O :    0.072693
   4 N :    0.279464
   5 N :    0.282855
   6 N :    0.345518
   7 N :    0.347141
   8 C :   -0.147507
   9 C :   -0.134934
  10 C :    0.043177
  11 C :    0.037697
  12 C :    0.173916
  13 C :    0.185302
  14 C :   -0.396514
  15 C :   -0.392027
  16 C :   -0.484344
  17 C :   -0.491517
  18 H :    0.041442
  19 H :    0.037241
  20 H :   -0.015193
  21 H :   -0.004375
  22 H :    0.003810
  23 H :    0.001639
  24 H :   -0.004306
  25 H :   -0.014709
  26 H :   -0.020322
  27 H :   -0.018679
  28 H :   -0.001960
  29 H :   -0.005730

  Mayer bond orders larger than 0.100000
B(  0-O , 14-C ) :   1.4517 B(  1-O , 15-C ) :   1.4691 B(  2-O , 16-C ) :   1.5606
B(  3-O , 17-C ) :   1.5333 B(  4-N , 10-C ) :   0.8214 B(  4-N , 16-C ) :   1.0239
B(  4-N , 26-H ) :   1.1115 B(  5-N , 11-C ) :   0.9326 B(  5-N , 17-C ) :   1.0275
B(  5-N , 27-H ) :   1.1234 B(  6-N , 14-C ) :   1.0355 B(  6-N , 16-C ) :   0.9031
B(  6-N , 28-H ) :   1.1091 B(  7-N , 15-C ) :   0.9589 B(  7-N , 16-C ) :   0.1090
B(  7-N , 17-C ) :   0.9554 B(  7-N , 29-H ) :   1.1184 B(  8-C , 10-C ) :   1.0842
B(  8-C , 12-C ) :   0.3298 B(  8-C , 14-C ) :   0.7178 B(  8-C , 20-H ) :  -0.1033
B(  8-C , 21-H ) :  -0.1018 B(  9-C , 11-C ) :   1.2381 B(  9-C , 13-C ) :   0.2989
B(  9-C , 15-C ) :   0.7060 B(  9-C , 19-H ) :  -0.1024 B(  9-C , 24-H ) :  -0.1094
B( 10-C , 12-C ) :  -0.2060 B( 10-C , 18-H ) :   1.1232 B( 11-C , 13-C ) :  -0.1750
B( 11-C , 14-C ) :   0.1238 B( 11-C , 15-C ) :  -0.1203 B( 11-C , 19-H ) :   1.1330
B( 12-C , 20-H ) :   1.0047 B( 12-C , 21-H ) :   1.0245 B( 12-C , 22-H ) :   0.8811
B( 13-C , 23-H ) :   0.8925 B( 13-C , 24-H ) :   1.0570 B( 13-C , 25-H ) :   0.9800

Dispersion correction           -0.060165245
FINAL SINGLE POINT ENERGY      -908.933921128308

DIPOLE MOMENT
-------------

Method             : SCF
Type of density    : Electron Density
Multiplicity       :   1
Irrep              :   0
Energy             :  -908.8737558834511674 Eh
Relativity type    :
Basis              : AO
                                X                 Y                 Z
Electronic contribution:     -2.913155492      -9.812864723      -5.774785757
Nuclear contribution   :      2.532250581      10.641104893       8.287545570
                        -----------------------------------------
Total Dipole Moment    :     -0.380904912       0.828240170       2.512759813
                        -----------------------------------------
Magnitude (a.u.)       :      2.673019306
Magnitude (Debye)      :      6.794275125

Rotational constants in cm-1:             0.016937             0.016404             0.014086
Rotational constants in MHz :           507.744469           491.772125           422.300935

                             ****ORCA TERMINATED NORMALLY****
TOTAL RUN TIME: 0 days 8 hours 49 minutes 14 seconds 172 msec
