                         Program Version 6.0.0  -   RELEASE  -
|  1> ! Engrad def2-TZVPPD wB97M-D3BJ
|  2> %pal nprocs 8 end%pal nprocs 64 end
|  3> %tddft
|  4>  Iroot 1 Nroots 3
|  5> sf true
|  6> end
|  7> *xyz 0 3
|  8> O   1.23849265 0.71987923 0.51769231
|  9> C   -0.02675714 0.33627108 0.1865835
| 10> C   0.0213609 -0.95207973 -0.55277478
| 11> H   -0.55338187 1.18716254 -0.37493372
| 12> H   -0.64524902 0.23399596 1.0957273
| 13> H   -0.81269193 -1.66573684 -0.55097531
| 14> H   1.02258543 -1.09936133 -0.86365937
| 15> *
| 16>
| 17>                          ****END OF INPUT****

CARTESIAN COORDINATES (ANGSTROEM)
---------------------------------
  O      1.238493    0.719879    0.517692
  C     -0.026757    0.336271    0.186584
  C      0.021361   -0.952080   -0.552775
  H     -0.553382    1.187163   -0.374934
  H     -0.645249    0.233996    1.095727
  H     -0.812692   -1.665737   -0.550975
  H      1.022585   -1.099361   -0.863659

 Total Charge           Charge          ....    0
 Multiplicity           Mult            ....    3
 Number of Electrons    NEL             ....   24
 Basis Dimension        Dim             ....  182

ORBITAL ENERGIES
----------------
                 SPIN UP ORBITALS
  NO   OCC          E(Eh)            E(eV)
   0   1.0000     -19.389658      -527.6194
   1   1.0000     -10.415364      -283.4165
   2   1.0000     -10.361931      -281.9625
   3   1.0000      -1.172885       -31.9158
   4   1.0000      -0.872406       -23.7394
   5   1.0000      -0.734244       -19.9798
   6   1.0000      -0.609610       -16.5883
   7   1.0000      -0.599324       -16.3084
   8   1.0000      -0.544983       -14.8297
   9   1.0000      -0.514836       -14.0094
  10   1.0000      -0.446861       -12.1597
  11   1.0000      -0.413783       -11.2596
  12   1.0000      -0.317242        -8.6326
  13   0.0000       0.040724         1.1082
  14   0.0000       0.061625         1.6769
  15   0.0000       0.080154         2.1811
  16   0.0000       0.083361         2.2684
  17   0.0000       0.110157         2.9975

                 SPIN DOWN ORBITALS
  NO   OCC          E(Eh)            E(eV)
   0   1.0000     -19.366737      -526.9957
   1   1.0000     -10.416905      -283.4584
   2   1.0000     -10.348789      -281.6049
   3   1.0000      -1.121211       -30.5097
   4   1.0000      -0.839589       -22.8464
   5   1.0000      -0.708175       -19.2704
   6   1.0000      -0.585474       -15.9316
   7   1.0000      -0.546066       -14.8592
   8   1.0000      -0.522362       -14.2142
   9   1.0000      -0.498871       -13.5750
  10   1.0000      -0.384461       -10.4617
  11   0.0000      -0.058140        -1.5821
  12   0.0000       0.004688         0.1276
  13   0.0000       0.039853         1.0845
  14   0.0000       0.061395         1.6706
  15   0.0000       0.079986         2.1765

----------------------------------------------------------------------------------------------------
          SPIN FLIP ABSORPTION SPECTRUM VIA TRANSITION ELECTRIC DIPOLE MOMENTS
----------------------------------------------------------------------------------------------------
     Transition      Energy     Energy  Wavelength fosc(D2)      D2        DX        DY        DZ
                      (eV)      (cm-1)    (nm)                 (au**2)    (au)      (au)      (au)
----------------------------------------------------------------------------------------------------
  1-3A  ->  2-3A    0.245266    1978.2  5055.1   0.000311301   0.05181   0.02344   0.21235   0.07853
  1-3A  ->  3-3A    0.776136    6260.0  1597.5   0.026996990   1.41978  -0.76779  -0.74185  -0.52909

Dispersion correction             ... done (  0.1 sec)

MULLIKEN ATOMIC CHARGES AND SPIN DENSITIES
------------------------------------------
   0 O :   -0.507522   -0.399337
   1 C :    0.012909   -0.034082
   2 C :   -0.427896    0.340483
   3 H :    0.235791    0.084485
   4 H :    0.215574   -0.050029
   5 H :    0.224679    0.009540
   6 H :    0.246466    0.048940
Sum of atomic charges       :   -0.0000000

LOEWDIN ATOMIC CHARGES AND SPIN DENSITIES
-----------------------------------------
   0 O :   -0.090779   -0.409028
   1 C :   -0.301477    0.007847
   2 C :    0.357928    0.321202
   3 H :    0.068848    0.044034
   4 H :    0.043758   -0.041228
   5 H :   -0.023424    0.033423
   6 H :   -0.054853    0.043750

  Mayer bond orders larger than 0.100000
B(  0-O ,  1-C ) :   1.0244 B(  0-O ,  2-C ) :   0.3212 B(  1-C ,  2-C ) :   0.9144
B(  1-C ,  3-H ) :   0.9209 B(  1-C ,  4-H ) :   0.8935 B(  2-C ,  5-H ) :   0.9772
B(  2-C ,  6-H ) :   0.9397

Dispersion correction           -0.005568276
FINAL SINGLE POINT ENERGY      -153.756220559206

DIPOLE MOMENT
-------------

Method             : TDA/CIS
Type of density    : Electron Density
Level              : Relaxed density
State              :   1
Multiplicity       :   3
Irrep              :   0
Energy             :     0.0000000000000000 Eh
Relativity type    :
Basis              : AO
                                X                 Y                 Z
Electronic contribution:      1.330552145       0.738769188       0.492307073
Nuclear contribution   :     -2.513100900      -1.486774790      -0.915662865
                        -----------------------------------------
Total Dipole Moment    :     -1.182548755      -0.748005603      -0.423355793
                        -----------------------------------------
Magnitude (a.u.)       :      1.461904260
Magnitude (Debye)      :      3.715865326

Rotational constants in cm-1:             1.379793             0.374744             0.314180
Rotational constants in MHz :         41365.141174         11234.537937          9418.890583

                             ****ORCA TERMINATED NORMALLY****
TOTAL RUN TIME: 0 days 0 hours 0 minutes 31 seconds 131 msec
