                         Program Version 6.0.0  -   RELEASE  -
|  1> ! Engrad def2-TZVPPD wB97M-D3BJ
|  2> %pal nprocs 8 end%pal nprocs 64 end
|  3> %tddft
|  4>  Iroot 1 Nroots 3
|  5> sf true
|  6> end
|  7> *xyz 0 3
|  8> O   3.46222586 -0.25772929 -0.04446904
|  9> O   -0.26675113 0.77097551 -2.76833043
| 10> O   -0.33407203 -2.73894425 -0.79313502
| 11> O   -3.54241969 -0.75178745 0.07452418
| 12> N   -0.31086102 -1.35030345 0.97001366
| 13> N   -2.04470889 0.75996865 0.94979852
| 14> N   1.51098603 -1.36287933 -0.50885103
| 15> N   -1.90510278 -0.01508645 -1.35535852
| 16> C   1.68666927 0.09177413 1.38275677
| 17> C   -0.22951522 1.41293906 -0.4251512
| 18> C   0.19270648 -0.12184244 1.60056013
| 19> C   -0.64073011 1.08148351 0.99195516
| 20> C   2.41373355 1.18057624 2.19960138
| 21> C   0.73810726 2.52294436 -0.67440692
| 22> C   2.31887462 -0.50314253 0.24415802
| 23> C   -0.74422615 0.73462306 -1.62194087
| 24> C   0.23823498 -1.90843312 -0.15227141
| 25> C   -2.55990206 -0.02216996 -0.14073006
| 26> H   -0.0231421 -0.1512114 2.65343068
| 27> H   -0.44328381 1.97647481 1.60650336
| 28> H   3.433565 1.18162349 1.86935203
| 29> H   1.89745423 2.13752125 1.9681256
| 30> H   2.44804176 0.99324884 3.23261812
| 31> H   1.6159916 2.45828864 -0.05352545
| 32> H   1.11125406 2.3708732 -1.74037835
| 33> H   0.22075807 3.48623951 -0.62513337
| 34> H   -1.09872363 -1.92176781 1.29962776
| 35> H   -2.53171225 0.53662465 1.81477716
| 36> H   1.97733112 -1.99880571 -1.16403324
| 37> H   -2.24149036 -0.68991935 -2.00878737
| 38> *
| 39>
| 40>                          ****END OF INPUT****

CARTESIAN COORDINATES (ANGSTROEM)
---------------------------------
  O      3.462226   -0.257729   -0.044469
  O     -0.266751    0.770976   -2.768330
  O     -0.334072   -2.738944   -0.793135
  O     -3.542420   -0.751787    0.074524
  N     -0.310861   -1.350303    0.970014
  N     -2.044709    0.759969    0.949799
  N      1.510986   -1.362879   -0.508851
  N     -1.905103   -0.015086   -1.355359
  C      1.686669    0.091774    1.382757
  C     -0.229515    1.412939   -0.425151
  C      0.192706   -0.121842    1.600560
  C     -0.640730    1.081484    0.991955
  C      2.413734    1.180576    2.199601
  C      0.738107    2.522944   -0.674407
  C      2.318875   -0.503143    0.244158
  C     -0.744226    0.734623   -1.621941
  C      0.238235   -1.908433   -0.152271
  C     -2.559902   -0.022170   -0.140730
  H     -0.023142   -0.151211    2.653431
  H     -0.443284    1.976475    1.606503
  H      3.433565    1.181623    1.869352
  H      1.897454    2.137521    1.968126
  H      2.448042    0.993249    3.232618
  H      1.615992    2.458289   -0.053525
  H      1.111254    2.370873   -1.740378
  H      0.220758    3.486240   -0.625133
  H     -1.098724   -1.921768    1.299628
  H     -2.531712    0.536625    1.814777
  H      1.977331   -1.998806   -1.164033
  H     -2.241490   -0.689919   -2.008787

 Total Charge           Charge          ....    0
 Multiplicity           Mult            ....    3
 Number of Electrons    NEL             ....  132
 Basis Dimension        Dim             ....  882

ORBITAL ENERGIES
----------------
                 SPIN UP ORBITALS
  NO   OCC          E(Eh)            E(eV)
   0   1.0000     -19.337846      -526.2095
   1   1.0000     -19.336432      -526.1711
   2   1.0000     -19.324901      -525.8573
   3   1.0000     -19.319952      -525.7226
   4   1.0000     -14.566312      -396.3695
   5   1.0000     -14.562420      -396.2636
   6   1.0000     -14.559300      -396.1787
   7   1.0000     -14.558795      -396.1649
   8   1.0000     -10.511616      -286.0356
   9   1.0000     -10.505645      -285.8731
  10   1.0000     -10.488345      -285.4024
  11   1.0000     -10.480970      -285.2017
  12   1.0000     -10.448636      -284.3218
  13   1.0000     -10.445170      -284.2275
  14   1.0000     -10.424736      -283.6715
  15   1.0000     -10.420418      -283.5540
  16   1.0000     -10.377966      -282.3988
  17   1.0000     -10.369529      -282.1692
  18   1.0000      -1.224299       -33.3149
  19   1.0000      -1.207978       -32.8707
  20   1.0000      -1.203847       -32.7584
  21   1.0000      -1.181077       -32.1387
  22   1.0000      -1.112067       -30.2609
  23   1.0000      -1.087629       -29.5959
  24   1.0000      -1.065359       -28.9899
  25   1.0000      -1.047910       -28.5151
  26   1.0000      -0.975349       -26.5406
  27   1.0000      -0.947265       -25.7764
  28   1.0000      -0.884510       -24.0687
  29   1.0000      -0.838942       -22.8288
  30   1.0000      -0.825479       -22.4624
  31   1.0000      -0.800881       -21.7931
  32   1.0000      -0.777309       -21.1516
  33   1.0000      -0.772803       -21.0291
  34   1.0000      -0.695261       -18.9190
  35   1.0000      -0.690562       -18.7911
  36   1.0000      -0.686487       -18.6803
  37   1.0000      -0.671245       -18.2655
  38   1.0000      -0.651459       -17.7271
  39   1.0000      -0.633997       -17.2519
  40   1.0000      -0.616984       -16.7890
  41   1.0000      -0.603789       -16.4299
  42   1.0000      -0.591727       -16.1017
  43   1.0000      -0.586721       -15.9655
  44   1.0000      -0.579430       -15.7671
  45   1.0000      -0.573123       -15.5955
  46   1.0000      -0.566366       -15.4116
  47   1.0000      -0.562348       -15.3023
  48   1.0000      -0.554563       -15.0904
  49   1.0000      -0.549415       -14.9503
  50   1.0000      -0.545102       -14.8330
  51   1.0000      -0.539027       -14.6677
  52   1.0000      -0.529583       -14.4107
  53   1.0000      -0.525216       -14.2918
  54   1.0000      -0.508069       -13.8253
  55   1.0000      -0.504284       -13.7223
  56   1.0000      -0.479290       -13.0421
  57   1.0000      -0.424507       -11.5514
  58   1.0000      -0.418576       -11.3900
  59   1.0000      -0.411528       -11.1983
  60   1.0000      -0.402927       -10.9642
  61   1.0000      -0.398480       -10.8432
  62   1.0000      -0.396044       -10.7769
  63   1.0000      -0.390411       -10.6236
  64   1.0000      -0.383493       -10.4354
  65   1.0000      -0.344265        -9.3679
  66   1.0000      -0.335734        -9.1358
  67   0.0000       0.009076         0.2470
  68   0.0000       0.028855         0.7852
  69   0.0000       0.033939         0.9235
  70   0.0000       0.038290         1.0419
  71   0.0000       0.052272         1.4224

                 SPIN DOWN ORBITALS
  NO   OCC          E(Eh)            E(eV)
   0   1.0000     -19.333449      -526.0899
   1   1.0000     -19.331717      -526.0428
   2   1.0000     -19.324856      -525.8561
   3   1.0000     -19.319774      -525.7178
   4   1.0000     -14.565791      -396.3553
   5   1.0000     -14.561657      -396.2428
   6   1.0000     -14.558774      -396.1644
   7   1.0000     -14.558741      -396.1635
   8   1.0000     -10.511669      -286.0371
   9   1.0000     -10.505684      -285.8742
  10   1.0000     -10.489439      -285.4322
  11   1.0000     -10.482052      -285.2311
  12   1.0000     -10.448393      -284.3152
  13   1.0000     -10.444743      -284.2159
  14   1.0000     -10.413220      -283.3581
  15   1.0000     -10.408877      -283.2399
  16   1.0000     -10.378529      -282.4141
  17   1.0000     -10.370035      -282.1830
  18   1.0000      -1.222744       -33.2726
  19   1.0000      -1.202720       -32.7277
  20   1.0000      -1.201165       -32.6854
  21   1.0000      -1.176353       -32.0102
  22   1.0000      -1.109468       -30.1902
  23   1.0000      -1.085099       -29.5270
  24   1.0000      -1.063339       -28.9349
  25   1.0000      -1.046455       -28.4755
  26   1.0000      -0.961776       -26.1713
  27   1.0000      -0.929713       -25.2988
  28   1.0000      -0.879484       -23.9320
  29   1.0000      -0.832699       -22.6589
  30   1.0000      -0.817707       -22.2510
  31   1.0000      -0.796085       -21.6626
  32   1.0000      -0.775825       -21.1113
  33   1.0000      -0.771033       -20.9809
  34   1.0000      -0.689410       -18.7598
  35   1.0000      -0.685257       -18.6468
  36   1.0000      -0.680979       -18.5304
  37   1.0000      -0.664487       -18.0816
  38   1.0000      -0.638749       -17.3813
  39   1.0000      -0.629565       -17.1313
  40   1.0000      -0.614361       -16.7176
  41   1.0000      -0.598165       -16.2769
  42   1.0000      -0.585611       -15.9353
  43   1.0000      -0.577207       -15.7066
  44   1.0000      -0.571348       -15.5472
  45   1.0000      -0.566983       -15.4284
  46   1.0000      -0.562533       -15.3073
  47   1.0000      -0.555253       -15.1092
  48   1.0000      -0.547270       -14.8920
  49   1.0000      -0.544726       -14.8228
  50   1.0000      -0.540395       -14.7049
  51   1.0000      -0.526312       -14.3217
  52   1.0000      -0.521221       -14.1832
  53   1.0000      -0.519248       -14.1295
  54   1.0000      -0.499953       -13.6044
  55   1.0000      -0.496232       -13.5032
  56   1.0000      -0.475092       -12.9279
  57   1.0000      -0.420604       -11.4452
  58   1.0000      -0.412988       -11.2380
  59   1.0000      -0.399987       -10.8842
  60   1.0000      -0.395916       -10.7734
  61   1.0000      -0.391599       -10.6560
  62   1.0000      -0.385811       -10.4985
  63   1.0000      -0.384795       -10.4708
  64   1.0000      -0.374455       -10.1894
  65   0.0000      -0.060031        -1.6335
  66   0.0000      -0.056100        -1.5266
  67   0.0000       0.008662         0.2357
  68   0.0000       0.028933         0.7873
  69   0.0000       0.033624         0.9150

----------------------------------------------------------------------------------------------------
          SPIN FLIP ABSORPTION SPECTRUM VIA TRANSITION ELECTRIC DIPOLE MOMENTS
----------------------------------------------------------------------------------------------------
     Transition      Energy     Energy  Wavelength fosc(D2)      D2        DX        DY        DZ
                      (eV)      (cm-1)    (nm)                 (au**2)    (au)      (au)      (au)
----------------------------------------------------------------------------------------------------
  1-3A  ->  2-1A    0.014914     120.3  83131.4   0.000002325   0.00636   0.07279  -0.01046   0.03093
  1-3A  ->  3-3A    2.097205   16915.1   591.2   0.002876327   0.05598  -0.23153  -0.04735  -0.01159

Dispersion correction             ... done (  0.1 sec)

MULLIKEN ATOMIC CHARGES AND SPIN DENSITIES
------------------------------------------
   0 O :   -0.650491   -0.025571
   1 O :   -0.675802    0.025318
   2 O :   -0.639686   -0.000832
   3 O :   -0.663794    0.000242
   4 N :   -0.231983   -0.004966
   5 N :   -0.368116   -0.003334
   6 N :    0.056116   -0.008110
   7 N :    0.051241    0.000909
   8 C :    0.407082    0.268329
   9 C :    0.364259    0.340413
  10 C :    0.051748   -0.138857
  11 C :    0.379693   -0.144267
  12 C :   -1.307275   -0.020900
  13 C :   -1.443900    0.022754
  14 C :    0.267652   -0.232303
  15 C :    0.317105   -0.151824
  16 C :    0.327560    0.014100
  17 C :    0.363788    0.011279
  18 H :    0.562466   -0.003539
  19 H :    0.454574    0.004171
  20 H :    0.302137   -0.002321
  21 H :    0.374590    0.008833
  22 H :    0.372799    0.008558
  23 H :    0.285536    0.014518
  24 H :    0.322595   -0.002063
  25 H :    0.367812    0.013596
  26 H :    0.087058    0.000246
  27 H :    0.143705    0.001295
  28 H :    0.100000    0.002187
  29 H :    0.021532    0.002140
Sum of atomic charges       :   -0.0000000

LOEWDIN ATOMIC CHARGES AND SPIN DENSITIES
-----------------------------------------
   0 O :    0.098014   -0.023600
   1 O :    0.069293    0.022145
   2 O :    0.107285   -0.000500
   3 O :    0.045960    0.000243
   4 N :    0.266184   -0.000525
   5 N :    0.255982    0.000360
   6 N :    0.329943   -0.006705
   7 N :    0.327209    0.001620
   8 C :    0.015196   -0.067955
   9 C :   -0.008330    0.089857
  10 C :   -0.076669   -0.007176
  11 C :   -0.129901    0.001905
  12 C :    0.225240   -0.008772
  13 C :    0.194429    0.009627
  14 C :   -0.447789   -0.018623
  15 C :   -0.368995    0.008282
  16 C :   -0.492010   -0.000131
  17 C :   -0.425796   -0.000226
  18 H :    0.041385   -0.001462
  19 H :    0.057003    0.000218
  20 H :   -0.018502    0.000196
  21 H :    0.001641   -0.002458
  22 H :   -0.030599   -0.001245
  23 H :   -0.034343    0.001269
  24 H :    0.033876    0.000314
  25 H :    0.014256    0.003773
  26 H :   -0.001726   -0.000084
  27 H :   -0.029763    0.000037
  28 H :   -0.000121   -0.000557
  29 H :   -0.018353    0.000172

  Mayer bond orders larger than 0.100000
B(  0-O , 14-C ) :   1.4009 B(  1-O , 15-C ) :   1.2944 B(  2-O , 16-C ) :   1.5135
B(  3-O , 17-C ) :   1.5225 B(  4-N ,  8-C ) :   0.1172 B(  4-N , 10-C ) :   0.6664
B(  4-N , 16-C ) :   1.0201 B(  4-N , 26-H ) :   1.0738 B(  5-N ,  9-C ) :   0.3671
B(  5-N , 17-C ) :   1.1460 B(  5-N , 19-H ) :  -0.1436 B(  5-N , 27-H ) :   0.9671
B(  6-N , 10-C ) :   0.1352 B(  6-N , 14-C ) :   1.0602 B(  6-N , 16-C ) :   0.9204
B(  6-N , 28-H ) :   1.0450 B(  7-N ,  9-C ) :  -0.1088 B(  7-N , 11-C ) :   0.1322
B(  7-N , 15-C ) :   0.9415 B(  7-N , 17-C ) :   0.9727 B(  7-N , 29-H ) :   1.1162
B(  8-C ,  9-C ) :   0.1610 B(  8-C , 10-C ) :   0.7396 B(  8-C , 11-C ) :   0.1406
B(  8-C , 12-C ) :   0.5202 B(  8-C , 14-C ) :   0.8124 B(  8-C , 18-H ) :  -0.1026
B(  9-C , 11-C ) :   0.2187 B(  9-C , 13-C ) :   0.6330 B(  9-C , 15-C ) :   0.7604
B(  9-C , 19-H ) :  -0.1741 B(  9-C , 24-H ) :  -0.1077 B( 10-C , 11-C ) :   0.7664
B( 10-C , 18-H ) :   0.6877 B( 11-C , 13-C ) :  -0.2075 B( 11-C , 17-C ) :  -0.1776
B( 11-C , 19-H ) :   1.0005 B( 12-C , 20-H ) :   1.0464 B( 12-C , 21-H ) :   0.7671
B( 12-C , 22-H ) :   0.9898 B( 13-C , 15-C ) :  -0.1091 B( 13-C , 23-H ) :   0.9271
B( 13-C , 24-H ) :   1.0261 B( 13-C , 25-H ) :   0.8545 B( 14-C , 16-C ) :  -0.1001

Dispersion correction           -0.060466060
FINAL SINGLE POINT ENERGY      -908.781685768876

DIPOLE MOMENT
-------------

Method             : TDA/CIS
Type of density    : Electron Density
Level              : Relaxed density
State              :   1
Multiplicity       :   3
Irrep              :   0
Energy             :     0.0000000000000000 Eh
Relativity type    :
Basis              : AO
                                X                 Y                 Z
Electronic contribution:     -5.665913750      -8.838154902      -5.992627165
Nuclear contribution   :      6.036653884      10.180319369       8.518823796
                        -----------------------------------------
Total Dipole Moment    :      0.370740134       1.342164466       2.526196631
                        -----------------------------------------
Magnitude (a.u.)       :      2.884531699
Magnitude (Debye)      :      7.331896902

Rotational constants in cm-1:             0.021421             0.013557             0.012903
Rotational constants in MHz :           642.174196           406.413828           386.833345

                             ****ORCA TERMINATED NORMALLY****
TOTAL RUN TIME: 0 days 0 hours 4 minutes 57 seconds 512 msec
