                         Program Version 6.0.0  -   RELEASE  -
|  1> ! Opt wB97M-D3BJ def2-TZVPPD
|  2> %pal nprocs 8 end %pal nprocs 64 end
|  3> %geom
|  4> Constraints
|  5>     {A 2 1 0 83.63636363636363 C }
|  6> end
|  7> MaxIter 500
|  8> end
|  9> *xyz 0 1
| 10> O   -0.0007 0.8141 0.0
| 11> C   0.7509 -0.4065 0.0
| 12> C   -0.7502 -0.4076 0.0
| 13> H   1.2625 -0.6786 0.9136
| 14> H   1.2625 -0.6787 -0.9136
| 15> H   -1.2614 -0.6806 -0.9136
| 16> H   -1.2614 -0.6805 0.9136
| 17> *
| 18>
| 19>                          ****END OF INPUT****
 Total Charge           Charge          ....    0
 Multiplicity           Mult            ....    1
 Number of Electrons    NEL             ....   24
Dispersion correction           -0.005416089
FINAL SINGLE POINT ENERGY      -153.824060315356
Dispersion correction             ... done (  0.1 sec)
Dispersion correction           -0.005437555
FINAL SINGLE POINT ENERGY      -153.836583876671
Dispersion correction             ... done (  0.2 sec)
Dispersion correction           -0.005463770
FINAL SINGLE POINT ENERGY      -153.840965995491
Dispersion correction             ... done (  0.1 sec)
FINAL SINGLE POINT ENERGY      -153.842045767939
FINAL SINGLE POINT ENERGY      -153.842314911304
FINAL SINGLE POINT ENERGY      -153.842404129255
FINAL SINGLE POINT ENERGY      -153.842430528207
Dispersion correction             ... done (  0.1 sec)
Dispersion correction           -0.005477917
FINAL SINGLE POINT ENERGY      -153.842440762046
Dispersion correction             ... done (  0.1 sec)
Dispersion correction           -0.005478833
FINAL SINGLE POINT ENERGY      -153.842446110831
Dispersion correction             ... done (  0.1 sec)
                    ***********************HURRAY********************

CARTESIAN COORDINATES (ANGSTROEM)
---------------------------------
  O      0.221063    0.935299   -0.001243
  C      0.652112   -0.339531   -0.000241
  C     -0.733376   -0.642070    0.000261
  H      1.209335   -0.644591    0.891790
  H      1.209556   -0.645502   -0.891787
  H     -1.278709   -0.692424   -0.927646
  H     -1.277780   -0.689581    0.928866

 Multiplicity           Mult            ....    1
 Number of Electrons    NEL             ....   24
 Basis Dimension        Dim             ....  182

ORBITAL ENERGIES
----------------

  NO   OCC          E(Eh)            E(eV)
   0   2.0000     -19.341251      -526.3022
   1   2.0000     -10.422654      -283.6148
   2   2.0000     -10.396681      -282.9081
   3   2.0000      -1.155513       -31.4431
   4   2.0000      -0.856279       -23.3005
   5   2.0000      -0.736875       -20.0514
   6   2.0000      -0.626392       -17.0450
   7   2.0000      -0.583631       -15.8814
   8   2.0000      -0.510441       -13.8898
   9   2.0000      -0.503417       -13.6987
  10   2.0000      -0.396910       -10.8005
  11   2.0000      -0.368256       -10.0208
  12   0.0000       0.008539         0.2324
  13   0.0000       0.042396         1.1537
  14   0.0000       0.060692         1.6515
  15   0.0000       0.076691         2.0869
  16   0.0000       0.099619         2.7108

MULLIKEN ATOMIC CHARGES
-----------------------
   0 O :   -0.460482
   1 C :   -0.085570
   2 C :   -0.308901
   3 H :    0.213591
   4 H :    0.213604
   5 H :    0.213806
   6 H :    0.213952
Sum of atomic charges:   -0.0000000

LOEWDIN ATOMIC CHARGES
----------------------
   0 O :   -0.020738
   1 C :   -0.305548
   2 C :    0.286132
   3 H :    0.024809
   4 H :    0.024814
   5 H :   -0.004729
   6 H :   -0.004741

  Mayer bond orders larger than 0.100000
B(  0-O ,  1-C ) :   0.6711 B(  0-O ,  2-C ) :   0.9454 B(  1-C ,  2-C ) :   0.7689
B(  1-C ,  3-H ) :   1.0511 B(  1-C ,  4-H ) :   1.0509 B(  2-C ,  5-H ) :   0.9666
B(  2-C ,  6-H ) :   0.9666

Dispersion correction           -0.005479077
FINAL SINGLE POINT ENERGY      -153.842448028126

DIPOLE MOMENT
-------------

Method             : SCF
Type of density    : Electron Density
Multiplicity       :   1
Irrep              :   0
Energy             :  -153.8369689508266731 Eh
Relativity type    :
Basis              : AO
                                X                 Y                 Z
Electronic contribution:      0.040340185       1.463220830      -0.001761775
Nuclear contribution   :     -0.332957899      -2.534148896       0.002704599
                        -----------------------------------------
Total Dipole Moment    :     -0.292617713      -1.070928066       0.000942824
                        -----------------------------------------
Magnitude (a.u.)       :      1.110185993
Magnitude (Debye)      :      2.821868536

Rotational constants in cm-1:             0.997855             0.554997             0.415342
Rotational constants in MHz :         29914.948193         16638.382875         12451.640641

                             ****ORCA TERMINATED NORMALLY****
TOTAL RUN TIME: 0 days 0 hours 2 minutes 16 seconds 928 msec
