                         Program Version 6.0.0  -   RELEASE  -
|  1> ! opt def2-TZVPPD wB97M-D3BJ
|  2> %pal nprocs 24 end%geom Constraints
|  3> {B 9 8 3.0 C}
|  4> {A 8 9 11 70.57142857142857 C}
|  5>  end
|  6>  end
|  7> *xyz 0 1
|  8> O   2.98579685529314 0.88758230159078 -0.86184571092411
|  9> O   -0.03983205397054 0.68929041702508 -2.10362336723772
| 10> O   0.93431434349854 -3.13274393337945 -0.68767288184107
| 11> O   -3.75829998830163 -0.84727300865116 -0.0472717177755
| 12> N   0.21184538946282 -1.54604804365365 0.7617588924445
| 13> N   -2.13631993928911 0.03188773433438 1.27350571071531
| 14> N   2.02598672506387 -1.14318467211666 -0.64531219127023
| 15> N   -1.91814233924584 0.03137116037665 -1.04498946748291
| 16> C   1.18097737274226 0.71693507080484 0.70173889017321
| 17> C   -0.20686880480777 1.27024627933494 0.21345042231937
| 18> C   0.41441080275909 -0.34173258966541 1.52336266615173
| 19> C   -0.82922175114212 0.58960593673968 1.44434972027296
| 20> C   1.92822011286806 1.69488653817281 1.5963734975385
| 21> C   -0.37809776891576 2.77134929626422 0.04819649358288
| 22> C   2.1403947470937 0.1972384729179 -0.35038567829864
| 23> C   -0.67361678962426 0.6214190571346 -1.0793014500539
| 24> C   1.04142578622994 -2.02697492875068 -0.21027082435993
| 25> C   -2.68467002550422 -0.30396816036989 0.07167054343891
| 26> H   0.80817443950001 -0.54572267081061 2.51895215321335
| 27> H   -0.83785272399001 1.27240685039143 2.28901317073582
| 28> H   2.31167340578204 2.52284411740894 1.00913016264629
| 29> H   1.28982602448342 2.08257620823614 2.38710022492991
| 30> H   2.77390820759972 1.19140411795486 2.06045858523949
| 31> H   -1.41857211141493 3.00964947214868 -0.16882755561625
| 32> H   -0.09065531563179 3.29799318042223 0.95389844358819
| 33> H   0.23426221611057 3.12492645074476 -0.77764887675592
| 34> H   -0.46772570547622 -2.21560145172536 1.0787081584806
| 35> H   -2.71769301149571 -0.17090724573546 2.06627440900372
| 36> H   2.60065167263658 -1.49057255715425 -1.3966820077142
| 37> H   -2.27169977231386 -0.32388339999036 -1.91951041514436
| 38> *
| 39>
| 40>                          ****END OF INPUT****
 Total Charge           Charge          ....    0
 Multiplicity           Mult            ....    1
 Number of Electrons    NEL             ....  132
Dispersion correction           -0.052480862
FINAL SINGLE POINT ENERGY      -908.684353758363
Dispersion correction             ... done (  0.1 sec)
Dispersion correction           -0.053278075
FINAL SINGLE POINT ENERGY      -908.712508726009
Dispersion correction             ... done (  0.1 sec)
Dispersion correction           -0.054207571
FINAL SINGLE POINT ENERGY      -908.731152534934
Dispersion correction             ... done (  0.0 sec)
FINAL SINGLE POINT ENERGY      -908.746482261575
FINAL SINGLE POINT ENERGY      -908.752845692181
FINAL SINGLE POINT ENERGY      -908.756326982743
FINAL SINGLE POINT ENERGY      -908.760008264261
FINAL SINGLE POINT ENERGY      -908.762425980107
FINAL SINGLE POINT ENERGY      -908.763853634920
FINAL SINGLE POINT ENERGY      -908.765841160842
FINAL SINGLE POINT ENERGY      -908.770226663637
FINAL SINGLE POINT ENERGY      -908.770293789276
FINAL SINGLE POINT ENERGY      -908.770336546109
FINAL SINGLE POINT ENERGY      -908.770366770010
FINAL SINGLE POINT ENERGY      -908.770384527801
FINAL SINGLE POINT ENERGY      -908.770399396659
FINAL SINGLE POINT ENERGY      -908.770409276910
Dispersion correction             ... done (  0.0 sec)
Dispersion correction           -0.058239595
FINAL SINGLE POINT ENERGY      -908.770414244230
Dispersion correction             ... done (  0.0 sec)
Dispersion correction           -0.058239812
FINAL SINGLE POINT ENERGY      -908.770417001963
Dispersion correction             ... done (  0.1 sec)
                    ***********************HURRAY********************

CARTESIAN COORDINATES (ANGSTROEM)
---------------------------------
  O      3.201494    0.394505   -0.911754
  O     -0.640971    1.536681   -2.308292
  O      0.407335   -3.078481   -0.354817
  O     -3.007952   -1.776032   -0.416946
  N      0.337772   -1.436685    1.209821
  N     -2.158326   -0.181159    0.966057
  N      1.550588   -1.159444   -0.764698
  N     -1.488970   -0.292786   -1.251848
  C      1.770810    0.503697    0.950275
  C     -0.863754    1.619421    0.047927
  C      0.380015   -0.041956    1.557754
  C     -1.081169    0.720326    1.237178
  C      2.488175    1.571038    1.650539
  C     -0.692469    3.068408    0.192592
  C      2.246891   -0.048226   -0.296954
  C     -0.967472    1.000371   -1.268347
  C      0.730305   -1.969304    0.001946
  C     -2.276383   -0.834825   -0.236380
  H      0.488371    0.012530    2.643625
  H     -1.328321    1.314811    2.112743
  H      3.464466    1.737049    1.206207
  H      1.925362    2.517900    1.599814
  H      2.587128    1.343889    2.715812
  H     -1.569826    3.510772    0.676871
  H      0.154661    3.297058    0.854935
  H     -0.530482    3.537378   -0.772165
  H     -0.282995   -2.051189    1.708130
  H     -2.698717   -0.579377    1.712888
  H      1.900090   -1.580154   -1.609930
  H     -1.593055   -0.741219   -2.148382

 Multiplicity           Mult            ....    1
 Number of Electrons    NEL             ....  132
 Basis Dimension        Dim             ....  882

ORBITAL ENERGIES
----------------

  NO   OCC          E(Eh)            E(eV)
   0   2.0000     -19.332805      -526.0724
   1   2.0000     -19.324844      -525.8557
   2   2.0000     -19.320186      -525.7290
   3   2.0000     -19.315879      -525.6118
   4   2.0000     -14.567015      -396.3886
   5   2.0000     -14.564088      -396.3090
   6   2.0000     -14.557503      -396.1298
   7   2.0000     -14.552412      -395.9913
   8   2.0000     -10.508131      -285.9408
   9   2.0000     -10.499396      -285.7031
  10   2.0000     -10.484766      -285.3050
  11   2.0000     -10.473458      -284.9973
  12   2.0000     -10.447770      -284.2983
  13   2.0000     -10.445033      -284.2238
  14   2.0000     -10.436458      -283.9905
  15   2.0000     -10.424994      -283.6785
  16   2.0000     -10.382375      -282.5188
  17   2.0000     -10.375168      -282.3227
  18   2.0000      -1.223235       -33.2859
  19   2.0000      -1.212184       -32.9852
  20   2.0000      -1.197072       -32.5740
  21   2.0000      -1.184998       -32.2454
  22   2.0000      -1.117525       -30.4094
  23   2.0000      -1.093755       -29.7626
  24   2.0000      -1.065255       -28.9871
  25   2.0000      -1.052225       -28.6325
  26   2.0000      -0.971806       -26.4442
  27   2.0000      -0.943393       -25.6710
  28   2.0000      -0.881979       -23.9999
  29   2.0000      -0.837247       -22.7826
  30   2.0000      -0.825237       -22.4559
  31   2.0000      -0.801829       -21.8189
  32   2.0000      -0.786893       -21.4124
  33   2.0000      -0.772220       -21.0132
  34   2.0000      -0.698947       -19.0193
  35   2.0000      -0.688355       -18.7311
  36   2.0000      -0.682710       -18.5775
  37   2.0000      -0.656899       -17.8751
  38   2.0000      -0.646093       -17.5811
  39   2.0000      -0.642783       -17.4910
  40   2.0000      -0.616502       -16.7759
  41   2.0000      -0.600374       -16.3370
  42   2.0000      -0.584662       -15.9095
  43   2.0000      -0.579137       -15.7591
  44   2.0000      -0.577577       -15.7167
  45   2.0000      -0.567632       -15.4461
  46   2.0000      -0.565325       -15.3833
  47   2.0000      -0.557002       -15.1568
  48   2.0000      -0.552591       -15.0368
  49   2.0000      -0.547052       -14.8860
  50   2.0000      -0.544375       -14.8132
  51   2.0000      -0.539268       -14.6742
  52   2.0000      -0.530724       -14.4417
  53   2.0000      -0.521603       -14.1935
  54   2.0000      -0.508201       -13.8289
  55   2.0000      -0.505668       -13.7599
  56   2.0000      -0.481941       -13.1143
  57   2.0000      -0.422025       -11.4839
  58   2.0000      -0.413549       -11.2532
  59   2.0000      -0.404818       -11.0157
  60   2.0000      -0.401251       -10.9186
  61   2.0000      -0.392023       -10.6675
  62   2.0000      -0.386265       -10.5108
  63   2.0000      -0.381432       -10.3793
  64   2.0000      -0.373713       -10.1693
  65   2.0000      -0.283561        -7.7161
  66   0.0000      -0.110839        -3.0161
  67   0.0000       0.006236         0.1697
  68   0.0000       0.028134         0.7656
  69   0.0000       0.031524         0.8578
  70   0.0000       0.039491         1.0746

MULLIKEN ATOMIC CHARGES
-----------------------
   0 O :   -0.682389
   1 O :   -0.668924
   2 O :   -0.647514
   3 O :   -0.631559
   4 N :   -0.291166
   5 N :   -0.302477
   6 N :    0.083006
   7 N :    0.060610
   8 C :    0.279178
   9 C :    0.181335
  10 C :    0.067413
  11 C :    0.621580
  12 C :   -1.255058
  13 C :   -1.172280
  14 C :    0.368919
  15 C :    0.222520
  16 C :    0.395657
  17 C :    0.346867
  18 H :    0.615021
  19 H :    0.528224
  20 H :    0.320716
  21 H :    0.197010
  22 H :    0.308113
  23 H :    0.326582
  24 H :    0.220270
  25 H :    0.315241
  26 H :    0.070227
  27 H :    0.059175
  28 H :    0.032194
  29 H :    0.031510
Sum of atomic charges:    0.0000000

LOEWDIN ATOMIC CHARGES
----------------------
   0 O :    0.088337
   1 O :    0.102204
   2 O :    0.096036
   3 O :    0.106402
   4 N :    0.260690
   5 N :    0.270338
   6 N :    0.318497
   7 N :    0.330771
   8 C :    0.018397
   9 C :   -0.000520
  10 C :   -0.052788
  11 C :   -0.091208
  12 C :    0.172377
  13 C :    0.190789
  14 C :   -0.425286
  15 C :   -0.404361
  16 C :   -0.495002
  17 C :   -0.485653
  18 H :    0.023296
  19 H :    0.042316
  20 H :   -0.000328
  21 H :   -0.007822
  22 H :    0.007155
  23 H :    0.016905
  24 H :   -0.010229
  25 H :    0.003025
  26 H :   -0.029228
  27 H :   -0.027568
  28 H :   -0.011564
  29 H :   -0.005977

  Mayer bond orders larger than 0.100000
B(  0-O , 14-C ) :   1.3197 B(  1-O , 15-C ) :   1.3983 B(  2-O , 16-C ) :   1.5186
B(  3-O , 17-C ) :   1.5439 B(  4-N ,  5-N ) :   0.1201 B(  4-N ,  8-C ) :   0.2998
B(  4-N , 10-C ) :   0.2990 B(  4-N , 16-C ) :   1.0288 B(  4-N , 26-H ) :   1.0885
B(  5-N ,  9-C ) :   0.3889 B(  5-N , 17-C ) :   1.1489 B(  5-N , 27-H ) :   1.0739
B(  6-N ,  8-C ) :  -0.1451 B(  6-N , 10-C ) :   0.1047 B(  6-N , 14-C ) :   1.0895
B(  6-N , 16-C ) :   0.9675 B(  6-N , 28-H ) :   1.0932 B(  7-N , 11-C ) :   0.1325
B(  7-N , 15-C ) :   1.0262 B(  7-N , 17-C ) :   0.9422 B(  7-N , 29-H ) :   1.0880
B(  8-C ,  9-C ) :   0.5447 B(  8-C , 12-C ) :   0.6107 B(  8-C , 14-C ) :   0.7743
B(  8-C , 16-C ) :   0.1057 B(  8-C , 18-H ) :  -0.1815 B(  8-C , 20-H ) :  -0.1142
B(  9-C , 10-C ) :   0.2669 B(  9-C , 13-C ) :   0.6521 B(  9-C , 14-C ) :   0.1149
B(  9-C , 15-C ) :   0.8241 B(  9-C , 19-H ) :  -0.1011 B(  9-C , 25-H ) :  -0.1027
B( 10-C , 11-C ) :   0.6820 B( 10-C , 16-C ) :  -0.1132 B( 10-C , 18-H ) :   0.7120
B( 11-C , 15-C ) :  -0.2175 B( 11-C , 17-C ) :  -0.2193 B( 11-C , 19-H ) :   0.8211
B( 12-C , 20-H ) :   0.9852 B( 12-C , 21-H ) :   0.9252 B( 12-C , 22-H ) :   0.9595
B( 13-C , 23-H ) :   0.9187 B( 13-C , 24-H ) :   0.8836 B( 13-C , 25-H ) :   0.9881

Dispersion correction           -0.058230609
FINAL SINGLE POINT ENERGY      -908.770417928441

DIPOLE MOMENT
-------------

Method             : SCF
Type of density    : Electron Density
Multiplicity       :   1
Irrep              :   0
Energy             :  -908.7121873196042543 Eh
Relativity type    :
Basis              : AO
                                X                 Y                 Z
Electronic contribution:     -2.970798374     -10.298955027      -7.456751669
Nuclear contribution   :      2.436392508      11.957396478      10.195124096
                        -----------------------------------------
Total Dipole Moment    :     -0.534405866       1.658441452       2.738372428
                        -----------------------------------------
Magnitude (a.u.)       :      3.245720449
Magnitude (Debye)      :      8.249965745

Rotational constants in cm-1:             0.018879             0.015236             0.012215
Rotational constants in MHz :           565.989049           456.775704           366.205931

                             ****ORCA TERMINATED NORMALLY****
TOTAL RUN TIME: 0 days 2 hours 14 minutes 58 seconds 472 msec
