                         Program Version 6.0.0  -   RELEASE  -
|  1> ! Engrad def2-TZVPPD wB97M-D3BJ
|  2> %pal nprocs 8 end%pal nprocs 64 end
|  3> %tddft
|  4>  Iroot 1 Nroots 3
|  5> sf true
|  6> end
|  7> *xyz 0 3
|  8> O   1.14150719 -0.81365848 0.28175778
|  9> C   0.46808422 0.35909101 0.51033671
| 10> C   -0.46531963 0.70582171 -0.61181963
| 11> H   1.00250781 1.22076999 0.74056416
| 12> H   -0.12531893 0.09834114 1.4291125
| 13> H   -0.32988883 1.74663686 -1.18200785
| 14> H   -1.22023951 0.03895488 -1.05600245
| 15> *
| 16>
| 17>                          ****END OF INPUT****

CARTESIAN COORDINATES (ANGSTROEM)
---------------------------------
  O      1.141507   -0.813658    0.281758
  C      0.468084    0.359091    0.510337
  C     -0.465320    0.705822   -0.611820
  H      1.002508    1.220770    0.740564
  H     -0.125319    0.098341    1.429113
  H     -0.329889    1.746637   -1.182008
  H     -1.220240    0.038955   -1.056002

 Total Charge           Charge          ....    0
 Multiplicity           Mult            ....    3
 Number of Electrons    NEL             ....   24
 Basis Dimension        Dim             ....  182

ORBITAL ENERGIES
----------------
                 SPIN UP ORBITALS
  NO   OCC          E(Eh)            E(eV)
   0   1.0000     -19.390945      -527.6544
   1   1.0000     -10.413580      -283.3679
   2   1.0000     -10.381811      -282.5034
   3   1.0000      -1.170000       -31.8373
   4   1.0000      -0.873156       -23.7598
   5   1.0000      -0.733156       -19.9502
   6   1.0000      -0.619961       -16.8700
   7   1.0000      -0.583696       -15.8832
   8   1.0000      -0.552973       -15.0472
   9   1.0000      -0.505374       -13.7519
  10   1.0000      -0.436667       -11.8823
  11   1.0000      -0.417213       -11.3529
  12   1.0000      -0.328082        -8.9276
  13   0.0000       0.040776         1.1096
  14   0.0000       0.059864         1.6290
  15   0.0000       0.076916         2.0930
  16   0.0000       0.088331         2.4036
  17   0.0000       0.112888         3.0718

                 SPIN DOWN ORBITALS
  NO   OCC          E(Eh)            E(eV)
   0   1.0000     -19.366633      -526.9929
   1   1.0000     -10.414938      -283.4049
   2   1.0000     -10.368098      -282.1303
   3   1.0000      -1.115458       -30.3532
   4   1.0000      -0.840877       -22.8814
   5   1.0000      -0.705423       -19.1955
   6   1.0000      -0.589492       -16.0409
   7   1.0000      -0.543195       -14.7811
   8   1.0000      -0.529628       -14.4119
   9   1.0000      -0.478676       -13.0254
  10   1.0000      -0.386537       -10.5182
  11   0.0000      -0.053623        -1.4592
  12   0.0000      -0.004204        -0.1144
  13   0.0000       0.040685         1.1071
  14   0.0000       0.060709         1.6520
  15   0.0000       0.077252         2.1021

----------------------------------------------------------------------------------------------------
          SPIN FLIP ABSORPTION SPECTRUM VIA TRANSITION ELECTRIC DIPOLE MOMENTS
----------------------------------------------------------------------------------------------------
     Transition      Energy     Energy  Wavelength fosc(D2)      D2        DX        DY        DZ
                      (eV)      (cm-1)    (nm)                 (au**2)    (au)      (au)      (au)
----------------------------------------------------------------------------------------------------
  1-3A  ->  2-3A    0.106007     855.0  11695.9   0.000161614   0.06223  -0.10447   0.18958  -0.12399
  1-3A  ->  3-3A    0.958364    7729.7  1293.7   0.006043625   0.25740   0.35796  -0.35792   0.03406

Dispersion correction             ... done (  0.1 sec)

MULLIKEN ATOMIC CHARGES AND SPIN DENSITIES
------------------------------------------
   0 O :   -0.440037   -0.378512
   1 C :   -0.081446   -0.059120
   2 C :   -0.378407    0.409786
   3 H :    0.225921   -0.051780
   4 H :    0.227283    0.038574
   5 H :    0.191571    0.021242
   6 H :    0.255115    0.019811
Sum of atomic charges       :   -0.0000000

LOEWDIN ATOMIC CHARGES AND SPIN DENSITIES
-----------------------------------------
   0 O :   -0.029108   -0.375748
   1 C :   -0.305465   -0.014739
   2 C :    0.323204    0.363717
   3 H :   -0.024825   -0.037823
   4 H :    0.038649   -0.000516
   5 H :    0.032928    0.028411
   6 H :   -0.035383    0.036698

  Mayer bond orders larger than 0.100000
B(  0-O ,  1-C ) :   0.8783 B(  0-O ,  2-C ) :   0.4076 B(  1-C ,  2-C ) :   0.7839
B(  1-C ,  3-H ) :   0.9777 B(  1-C ,  4-H ) :   0.9986 B(  2-C ,  5-H ) :   0.9759
B(  2-C ,  6-H ) :   0.9382

Dispersion correction           -0.005449822
FINAL SINGLE POINT ENERGY      -153.744903777768

DIPOLE MOMENT
-------------

Method             : TDA/CIS
Type of density    : Electron Density
Level              : Relaxed density
State              :   1
Multiplicity       :   3
Irrep              :   0
Energy             :     0.0000000000000000 Eh
Relativity type    :
Basis              : AO
                                X                 Y                 Z
Electronic contribution:      1.280968308      -1.586882894       0.194599001
Nuclear contribution   :     -2.121165845       2.652499615      -0.335326800
                        -----------------------------------------
Total Dipole Moment    :     -0.840197538       1.065616721      -0.140727799
                        -----------------------------------------
Magnitude (a.u.)       :      1.364285605
Magnitude (Debye)      :      3.467738423

Rotational constants in cm-1:             1.395487             0.346660             0.304911
Rotational constants in MHz :         41835.646788         10392.613239          9141.001262

                             ****ORCA TERMINATED NORMALLY****
TOTAL RUN TIME: 0 days 0 hours 0 minutes 26 seconds 341 msec
