                         Program Version 6.0.0  -   RELEASE  -
|  1> ! Engrad def2-TZVPPD wB97M-D3BJ
|  2> %pal nprocs 8 end%pal nprocs 64 end
|  3> %tddft
|  4>  Iroot 1 Nroots 3
|  5> sf true
|  6> end
|  7> *xyz 0 3
|  8> O   3.01893004 -0.94788021 -1.86102279
|  9> O   -1.74171311 1.1179233 -2.02005686
| 10> O   -1.02058796 -2.66108083 -0.77255236
| 11> O   -3.05204019 0.09334052 2.19367644
| 12> N   0.09336041 -1.52949246 0.77773678
| 13> N   -0.97206819 0.93922045 1.98523372
| 14> N   0.81292038 -1.47197646 -1.44897044
| 15> N   -2.43927937 0.76113073 0.12045985
| 16> C   2.13962851 -0.43106641 0.25228993
| 17> C   -0.23176257 1.56273318 -0.23366809
| 18> C   0.91736029 -0.3083396 1.09560454
| 19> C   0.17488847 1.12321844 1.08870404
| 20> C   3.41679932 0.17482823 0.63905711
| 21> C   0.81858746 2.24488187 -1.0609711
| 22> C   2.0418206 -0.94887807 -1.14304332
| 23> C   -1.51505067 1.10635993 -0.83137675
| 24> C   -0.10207735 -1.95483109 -0.51236868
| 25> C   -2.23348033 0.59040704 1.48741945
| 26> H   1.21827796 -0.23148964 2.16468469
| 27> H   0.82415215 1.8483963 1.59121463
| 28> H   4.28546938 -0.40253207 0.30061586
| 29> H   3.65676456 1.16164031 0.19310516
| 30> H   3.49731295 0.31859514 1.72153618
| 31> H   1.31900768 1.51441111 -1.64266147
| 32> H   0.50055464 2.99760706 -1.76601071
| 33> H   1.50577705 2.70477776 -0.32596306
| 34> H   -0.61344493 -1.85577607 1.31403154
| 35> H   -0.80700376 0.32250143 2.8023585
| 36> H   0.64941243 -1.87494585 -2.3430113
| 37> H   -3.30366572 0.41399139 -0.13563563
| 38> *
| 39>
| 40>                          ****END OF INPUT****

CARTESIAN COORDINATES (ANGSTROEM)
---------------------------------
  O      3.018930   -0.947880   -1.861023
  O     -1.741713    1.117923   -2.020057
  O     -1.020588   -2.661081   -0.772552
  O     -3.052040    0.093341    2.193676
  N      0.093360   -1.529492    0.777737
  N     -0.972068    0.939220    1.985234
  N      0.812920   -1.471976   -1.448970
  N     -2.439279    0.761131    0.120460
  C      2.139629   -0.431066    0.252290
  C     -0.231763    1.562733   -0.233668
  C      0.917360   -0.308340    1.095605
  C      0.174888    1.123218    1.088704
  C      3.416799    0.174828    0.639057
  C      0.818587    2.244882   -1.060971
  C      2.041821   -0.948878   -1.143043
  C     -1.515051    1.106360   -0.831377
  C     -0.102077   -1.954831   -0.512369
  C     -2.233480    0.590407    1.487419
  H      1.218278   -0.231490    2.164685
  H      0.824152    1.848396    1.591215
  H      4.285469   -0.402532    0.300616
  H      3.656765    1.161640    0.193105
  H      3.497313    0.318595    1.721536
  H      1.319008    1.514411   -1.642661
  H      0.500555    2.997607   -1.766011
  H      1.505777    2.704778   -0.325963
  H     -0.613445   -1.855776    1.314032
  H     -0.807004    0.322501    2.802358
  H      0.649412   -1.874946   -2.343011
  H     -3.303666    0.413991   -0.135636

 Total Charge           Charge          ....    0
 Multiplicity           Mult            ....    3
 Number of Electrons    NEL             ....  132
 Basis Dimension        Dim             ....  882

ORBITAL ENERGIES
----------------
                 SPIN UP ORBITALS
  NO   OCC          E(Eh)            E(eV)
   0   1.0000     -19.339627      -526.2580
   1   1.0000     -19.334003      -526.1050
   2   1.0000     -19.328966      -525.9679
   3   1.0000     -19.327409      -525.9255
   4   1.0000     -14.568493      -396.4289
   5   1.0000     -14.564394      -396.3173
   6   1.0000     -14.560947      -396.2235
   7   1.0000     -14.558868      -396.1669
   8   1.0000     -10.508984      -285.9640
   9   1.0000     -10.507399      -285.9209
  10   1.0000     -10.487212      -285.3715
  11   1.0000     -10.484953      -285.3101
  12   1.0000     -10.456469      -284.5350
  13   1.0000     -10.443846      -284.1915
  14   1.0000     -10.418562      -283.5035
  15   1.0000     -10.413687      -283.3708
  16   1.0000     -10.374367      -282.3009
  17   1.0000     -10.369829      -282.1774
  18   1.0000      -1.235104       -33.6089
  19   1.0000      -1.231948       -33.5230
  20   1.0000      -1.207000       -32.8441
  21   1.0000      -1.202836       -32.7308
  22   1.0000      -1.118492       -30.4357
  23   1.0000      -1.104250       -30.0482
  24   1.0000      -1.077802       -29.3285
  25   1.0000      -1.062304       -28.9068
  26   1.0000      -0.980963       -26.6934
  27   1.0000      -0.954678       -25.9781
  28   1.0000      -0.885457       -24.0945
  29   1.0000      -0.842015       -22.9124
  30   1.0000      -0.829541       -22.5730
  31   1.0000      -0.803764       -21.8715
  32   1.0000      -0.791786       -21.5456
  33   1.0000      -0.782731       -21.2992
  34   1.0000      -0.704849       -19.1799
  35   1.0000      -0.696341       -18.9484
  36   1.0000      -0.686286       -18.6748
  37   1.0000      -0.678314       -18.4579
  38   1.0000      -0.659385       -17.9428
  39   1.0000      -0.643002       -17.4970
  40   1.0000      -0.612468       -16.6661
  41   1.0000      -0.608373       -16.5547
  42   1.0000      -0.606432       -16.5019
  43   1.0000      -0.591872       -16.1056
  44   1.0000      -0.580760       -15.8033
  45   1.0000      -0.573632       -15.6093
  46   1.0000      -0.569798       -15.5050
  47   1.0000      -0.566848       -15.4247
  48   1.0000      -0.560147       -15.2424
  49   1.0000      -0.556582       -15.1454
  50   1.0000      -0.550081       -14.9685
  51   1.0000      -0.534623       -14.5478
  52   1.0000      -0.532446       -14.4886
  53   1.0000      -0.523970       -14.2579
  54   1.0000      -0.514078       -13.9888
  55   1.0000      -0.509096       -13.8532
  56   1.0000      -0.500784       -13.6270
  57   1.0000      -0.429704       -11.6928
  58   1.0000      -0.425738       -11.5849
  59   1.0000      -0.417084       -11.3494
  60   1.0000      -0.410050       -11.1580
  61   1.0000      -0.405595       -11.0368
  62   1.0000      -0.401970       -10.9382
  63   1.0000      -0.395861       -10.7719
  64   1.0000      -0.389749       -10.6056
  65   1.0000      -0.350407        -9.5351
  66   1.0000      -0.317281        -8.6337
  67   0.0000       0.009932         0.2703
  68   0.0000       0.030454         0.8287
  69   0.0000       0.035611         0.9690
  70   0.0000       0.036568         0.9951
  71   0.0000       0.055341         1.5059

                 SPIN DOWN ORBITALS
  NO   OCC          E(Eh)            E(eV)
   0   1.0000     -19.336005      -526.1594
   1   1.0000     -19.330883      -526.0201
   2   1.0000     -19.328903      -525.9662
   3   1.0000     -19.327178      -525.9192
   4   1.0000     -14.568011      -396.4157
   5   1.0000     -14.563661      -396.2974
   6   1.0000     -14.560547      -396.2126
   7   1.0000     -14.558581      -396.1591
   8   1.0000     -10.509043      -285.9656
   9   1.0000     -10.507434      -285.9218
  10   1.0000     -10.488112      -285.3960
  11   1.0000     -10.485856      -285.3346
  12   1.0000     -10.455607      -284.5115
  13   1.0000     -10.443583      -284.1843
  14   1.0000     -10.407017      -283.1893
  15   1.0000     -10.402056      -283.0543
  16   1.0000     -10.375038      -282.3191
  17   1.0000     -10.370314      -282.1906
  18   1.0000      -1.234225       -33.5850
  19   1.0000      -1.231225       -33.5033
  20   1.0000      -1.202163       -32.7125
  21   1.0000      -1.198650       -32.6169
  22   1.0000      -1.115721       -30.3603
  23   1.0000      -1.102020       -29.9875
  24   1.0000      -1.075941       -29.2778
  25   1.0000      -1.060927       -28.8693
  26   1.0000      -0.967983       -26.3402
  27   1.0000      -0.937436       -25.5089
  28   1.0000      -0.879543       -23.9336
  29   1.0000      -0.836678       -22.7672
  30   1.0000      -0.821947       -22.3663
  31   1.0000      -0.799824       -21.7643
  32   1.0000      -0.790255       -21.5039
  33   1.0000      -0.780686       -21.2435
  34   1.0000      -0.697276       -18.9738
  35   1.0000      -0.690025       -18.7765
  36   1.0000      -0.680219       -18.5097
  37   1.0000      -0.673609       -18.3298
  38   1.0000      -0.646817       -17.6008
  39   1.0000      -0.638144       -17.3648
  40   1.0000      -0.609111       -16.5748
  41   1.0000      -0.602590       -16.3973
  42   1.0000      -0.602208       -16.3869
  43   1.0000      -0.587149       -15.9771
  44   1.0000      -0.573331       -15.6011
  45   1.0000      -0.568574       -15.4717
  46   1.0000      -0.565473       -15.3873
  47   1.0000      -0.559912       -15.2360
  48   1.0000      -0.553209       -15.0536
  49   1.0000      -0.545540       -14.8449
  50   1.0000      -0.539205       -14.6725
  51   1.0000      -0.528083       -14.3699
  52   1.0000      -0.526069       -14.3151
  53   1.0000      -0.515247       -14.0206
  54   1.0000      -0.506488       -13.7822
  55   1.0000      -0.504968       -13.7409
  56   1.0000      -0.494489       -13.4557
  57   1.0000      -0.425788       -11.5863
  58   1.0000      -0.421359       -11.4658
  59   1.0000      -0.407854       -11.0983
  60   1.0000      -0.402342       -10.9483
  61   1.0000      -0.398108       -10.8331
  62   1.0000      -0.394821       -10.7436
  63   1.0000      -0.390286       -10.6202
  64   1.0000      -0.381986       -10.3944
  65   0.0000      -0.064596        -1.7577
  66   0.0000      -0.040804        -1.1103
  67   0.0000       0.009420         0.2563
  68   0.0000       0.030173         0.8210
  69   0.0000       0.035517         0.9665

----------------------------------------------------------------------------------------------------
          SPIN FLIP ABSORPTION SPECTRUM VIA TRANSITION ELECTRIC DIPOLE MOMENTS
----------------------------------------------------------------------------------------------------
     Transition      Energy     Energy  Wavelength fosc(D2)      D2        DX        DY        DZ
                      (eV)      (cm-1)    (nm)                 (au**2)    (au)      (au)      (au)
----------------------------------------------------------------------------------------------------
  1-3A  ->  2-3A    0.182541    1472.3  6792.1   0.000067005   0.01498   0.09482  -0.07237  -0.02747
  1-3A  ->  3-3A    2.507305   20222.8   494.5   0.013178258   0.21453  -0.41230   0.19369   0.08380

Dispersion correction             ... done (  0.1 sec)

MULLIKEN ATOMIC CHARGES AND SPIN DENSITIES
------------------------------------------
   0 O :   -0.660329    0.005061
   1 O :   -0.661152   -0.002615
   2 O :   -0.626179   -0.000354
   3 O :   -0.604516   -0.000231
   4 N :   -0.158958   -0.005076
   5 N :   -0.330539   -0.006918
   6 N :    0.146892   -0.002126
   7 N :    0.061710   -0.004476
   8 C :    0.156427    0.356987
   9 C :    0.466662    0.320455
  10 C :    0.602879   -0.235752
  11 C :    0.378418   -0.160276
  12 C :   -1.448458   -0.014543
  13 C :   -1.304241   -0.007649
  14 C :    0.112023   -0.107866
  15 C :    0.170031   -0.168893
  16 C :    0.403885    0.005901
  17 C :    0.449044    0.012000
  18 H :    0.603571   -0.004843
  19 H :    0.305988   -0.016842
  20 H :    0.353320   -0.001834
  21 H :    0.246898    0.014240
  22 H :    0.347402    0.005219
  23 H :    0.256176    0.012771
  24 H :    0.338492   -0.000315
  25 H :    0.298171    0.002105
  26 H :   -0.060348   -0.000272
  27 H :    0.168586    0.001418
  28 H :    0.022443    0.001777
  29 H :   -0.034299    0.002946
Sum of atomic charges       :   -0.0000000

LOEWDIN ATOMIC CHARGES AND SPIN DENSITIES
-----------------------------------------
   0 O :    0.089469    0.003557
   1 O :    0.101475   -0.003015
   2 O :    0.125367   -0.000222
   3 O :    0.110985   -0.000405
   4 N :    0.342891   -0.000053
   5 N :    0.253364   -0.001671
   6 N :    0.352360   -0.000937
   7 N :    0.357878   -0.002926
   8 C :   -0.035496    0.025619
   9 C :   -0.013656   -0.005649
  10 C :   -0.054484   -0.004810
  11 C :   -0.132124   -0.005657
  12 C :    0.161325    0.003416
  13 C :    0.217941   -0.001486
  14 C :   -0.423545   -0.000253
  15 C :   -0.410585   -0.005015
  16 C :   -0.488918   -0.000553
  17 C :   -0.478832   -0.000584
  18 H :    0.057012   -0.000728
  19 H :    0.055959   -0.000746
  20 H :    0.009680    0.000694
  21 H :    0.019011    0.001909
  22 H :    0.000484    0.000188
  23 H :   -0.025033   -0.000059
  24 H :    0.006706   -0.000106
  25 H :    0.009591   -0.000056
  26 H :   -0.115013    0.000030
  27 H :   -0.015908   -0.000164
  28 H :   -0.020829   -0.000045
  29 H :   -0.057072   -0.000271

  Mayer bond orders larger than 0.100000
B(  0-O , 14-C ) :   1.4865 B(  1-O ,  9-C ) :  -0.1143 B(  1-O , 15-C ) :   1.4817
B(  2-O , 16-C ) :   1.4929 B(  3-O , 17-C ) :   1.5676 B(  4-N ,  8-C ) :   0.3974
B(  4-N , 10-C ) :   0.1055 B(  4-N , 16-C ) :   1.0584 B(  4-N , 26-H ) :   1.1278
B(  5-N ,  9-C ) :   0.1617 B(  5-N , 11-C ) :   0.2562 B(  5-N , 17-C ) :   1.0186
B(  5-N , 27-H ) :   0.9532 B(  6-N , 10-C ) :   0.1219 B(  6-N , 14-C ) :   1.0462
B(  6-N , 16-C ) :   0.9345 B(  6-N , 28-H ) :   1.0986 B(  7-N , 15-C ) :   0.9894
B(  7-N , 17-C ) :   0.9550 B(  7-N , 29-H ) :   1.1383 B(  8-C ,  9-C ) :   0.2278
B(  8-C , 10-C ) :   0.3745 B(  8-C , 11-C ) :   0.2173 B(  8-C , 12-C ) :   0.3049
B(  8-C , 14-C ) :   0.7730 B(  8-C , 16-C ) :   0.1048 B(  8-C , 18-H ) :  -0.1357
B(  8-C , 20-H ) :  -0.1195 B(  8-C , 22-H ) :  -0.1270 B(  9-C , 10-C ) :   0.1578
B(  9-C , 11-C ) :   0.3176 B(  9-C , 13-C ) :   0.4547 B(  9-C , 15-C ) :   0.5579
B(  9-C , 19-H ) :  -0.2691 B(  9-C , 25-H ) :  -0.1410 B( 10-C , 11-C ) :   0.3067
B( 10-C , 14-C ) :  -0.1766 B( 10-C , 16-C ) :  -0.1630 B( 10-C , 18-H ) :   0.7415
B( 11-C , 13-C ) :  -0.1448 B( 11-C , 19-H ) :   1.1636 B( 12-C , 20-H ) :   0.9384
B( 12-C , 21-H ) :   0.9067 B( 12-C , 22-H ) :   0.9927 B( 13-C , 23-H ) :   0.8707
B( 13-C , 24-H ) :   0.9783 B( 13-C , 25-H ) :   1.0430 B( 14-C , 16-C ) :  -0.1091

Dispersion correction           -0.058871707
FINAL SINGLE POINT ENERGY      -908.780996549343

DIPOLE MOMENT
-------------

Method             : TDA/CIS
Type of density    : Electron Density
Level              : Relaxed density
State              :   1
Multiplicity       :   3
Irrep              :   0
Energy             :     0.0000000000000000 Eh
Relativity type    :
Basis              : AO
                                X                 Y                 Z
Electronic contribution:    -10.404848579      -5.904560856      -2.339352313
Nuclear contribution   :     11.971111513       6.971387908       3.874682701
                        -----------------------------------------
Total Dipole Moment    :      1.566262933       1.066827052       1.535330388
                        -----------------------------------------
Magnitude (a.u.)       :      2.438962676
Magnitude (Debye)      :      6.199350453

Rotational constants in cm-1:             0.021749             0.012523             0.012020
Rotational constants in MHz :           652.020239           375.433059           360.348904

                             ****ORCA TERMINATED NORMALLY****
TOTAL RUN TIME: 0 days 0 hours 4 minutes 54 seconds 8 msec
