                         Program Version 6.0.0  -   RELEASE  -
|  1> ! Engrad def2-TZVPPD wB97M-D3BJ
|  2> %pal nprocs 8 end%pal nprocs 64 end
|  3> %tddft
|  4>  Iroot 1 Nroots 3
|  5> sf true
|  6> end
|  7> *xyz 0 3
|  8> O   1.28900343 0.67934542 -0.39086576
|  9> C   0.42854859 0.25157721 0.54434386
| 10> C   -0.51241747 -0.82115989 0.08696448
| 11> H   -0.22524653 1.16273777 0.85627349
| 12> H   0.9934976 -0.0802337 1.46255426
| 13> H   -0.78062724 -0.71336348 -0.99879533
| 14> H   -0.7241103 -1.6764579 0.63160065
| 15> *
| 16>
| 17>                          ****END OF INPUT****

CARTESIAN COORDINATES (ANGSTROEM)
---------------------------------
  O      1.289003    0.679345   -0.390866
  C      0.428549    0.251577    0.544344
  C     -0.512417   -0.821160    0.086964
  H     -0.225247    1.162738    0.856273
  H      0.993498   -0.080234    1.462554
  H     -0.780627   -0.713363   -0.998795
  H     -0.724110   -1.676458    0.631601

 Total Charge           Charge          ....    0
 Multiplicity           Mult            ....    3
 Number of Electrons    NEL             ....   24
 Basis Dimension        Dim             ....  182

ORBITAL ENERGIES
----------------
                 SPIN UP ORBITALS
  NO   OCC          E(Eh)            E(eV)
   0   1.0000     -19.389035      -527.6025
   1   1.0000     -10.420721      -283.5622
   2   1.0000     -10.367303      -282.1087
   3   1.0000      -1.179630       -32.0994
   4   1.0000      -0.872447       -23.7405
   5   1.0000      -0.728201       -19.8154
   6   1.0000      -0.615528       -16.7494
   7   1.0000      -0.595077       -16.1929
   8   1.0000      -0.557964       -15.1830
   9   1.0000      -0.511222       -13.9111
  10   1.0000      -0.440639       -11.9904
  11   1.0000      -0.410353       -11.1663
  12   1.0000      -0.322904        -8.7867
  13   0.0000       0.041532         1.1301
  14   0.0000       0.061142         1.6637
  15   0.0000       0.077691         2.1141
  16   0.0000       0.085414         2.3242
  17   0.0000       0.110604         3.0097

                 SPIN DOWN ORBITALS
  NO   OCC          E(Eh)            E(eV)
   0   1.0000     -19.365956      -526.9745
   1   1.0000     -10.422274      -283.6045
   2   1.0000     -10.353787      -281.7409
   3   1.0000      -1.128316       -30.7031
   4   1.0000      -0.838810       -22.8252
   5   1.0000      -0.700886       -19.0721
   6   1.0000      -0.592367       -16.1191
   7   1.0000      -0.544062       -14.8047
   8   1.0000      -0.529753       -14.4153
   9   1.0000      -0.494810       -13.4645
  10   1.0000      -0.381421       -10.3790
  11   0.0000      -0.058451        -1.5905
  12   0.0000       0.000141         0.0038
  13   0.0000       0.040756         1.1090
  14   0.0000       0.061222         1.6659
  15   0.0000       0.077479         2.1083

----------------------------------------------------------------------------------------------------
          SPIN FLIP ABSORPTION SPECTRUM VIA TRANSITION ELECTRIC DIPOLE MOMENTS
----------------------------------------------------------------------------------------------------
     Transition      Energy     Energy  Wavelength fosc(D2)      D2        DX        DY        DZ
                      (eV)      (cm-1)    (nm)                 (au**2)    (au)      (au)      (au)
----------------------------------------------------------------------------------------------------
  1-3A  ->  2-3A    0.280317    2260.9  4423.0   0.000228418   0.03326  -0.08428  -0.16170  -0.00307
  1-3A  ->  3-3A    0.887231    7156.0  1397.4   0.019726987   0.90754   0.76222   0.47891  -0.31179

Dispersion correction             ... done (  0.1 sec)

MULLIKEN ATOMIC CHARGES AND SPIN DENSITIES
------------------------------------------
   0 O :   -0.484305   -0.448818
   1 C :   -0.012651   -0.046710
   2 C :   -0.446874    0.406817
   3 H :    0.231203    0.091816
   4 H :    0.227507   -0.068954
   5 H :    0.240494    0.033395
   6 H :    0.244625    0.032454
Sum of atomic charges       :    0.0000000

LOEWDIN ATOMIC CHARGES AND SPIN DENSITIES
-----------------------------------------
   0 O :   -0.064377   -0.451150
   1 C :   -0.335344    0.005623
   2 C :    0.352671    0.370065
   3 H :    0.072803    0.038190
   4 H :    0.058950   -0.051981
   5 H :   -0.001627    0.038317
   6 H :   -0.083075    0.050937

  Mayer bond orders larger than 0.100000
B(  0-O ,  1-C ) :   1.0360 B(  0-O ,  2-C ) :   0.3067 B(  1-C ,  2-C ) :   0.8780
B(  1-C ,  3-H ) :   0.9343 B(  1-C ,  4-H ) :   0.9078 B(  2-C ,  5-H ) :   0.9640
B(  2-C ,  6-H ) :   0.9512

Dispersion correction           -0.005521995
FINAL SINGLE POINT ENERGY      -153.757131728872

DIPOLE MOMENT
-------------

Method             : TDA/CIS
Type of density    : Electron Density
Level              : Relaxed density
State              :   1
Multiplicity       :   3
Irrep              :   0
Energy             :     0.0000000000000000 Eh
Relativity type    :
Basis              : AO
                                X                 Y                 Z
Electronic contribution:      1.333527079       0.723918570      -0.820234289
Nuclear contribution   :     -2.285948328      -1.448195586       1.543278689
                        -----------------------------------------
Total Dipole Moment    :     -0.952421249      -0.724277016       0.723044400
                        -----------------------------------------
Magnitude (a.u.)       :      1.398025978
Magnitude (Debye)      :      3.553499635

Rotational constants in cm-1:             1.447928             0.353495             0.308499
Rotational constants in MHz :         43407.786205         10597.516301          9248.563287

                             ****ORCA TERMINATED NORMALLY****
TOTAL RUN TIME: 0 days 0 hours 0 minutes 26 seconds 992 msec
