                         Program Version 6.0.0  -   RELEASE  -
|  1> ! Engrad def2-TZVPPD wB97M-D3BJ
|  2> %pal nprocs 8 end%pal nprocs 32 end
|  3> %tddft Nroots 2 Iroot 2
|  4> sf true
|  5> end
|  6> *xyz 0 3
|  7> O   0.64842543 1.15586883 0.12056197
|  8> C   0.55120613 -0.27837717 0.03855996
|  9> C   -0.85085762 -0.70748552 0.12117215
| 10> H   1.21187315 -0.84764779 0.76828148
| 11> H   1.11761975 -0.82102833 -0.79268465
| 12> H   -1.20412733 -1.5829395 0.63759835
| 13> H   -1.58830968 0.10503151 0.16132043
| 14> *
| 15>
| 16>                          ****END OF INPUT****

CARTESIAN COORDINATES (ANGSTROEM)
---------------------------------
  O      0.648425    1.155869    0.120562
  C      0.551206   -0.278377    0.038560
  C     -0.850858   -0.707486    0.121172
  H      1.211873   -0.847648    0.768281
  H      1.117620   -0.821028   -0.792685
  H     -1.204127   -1.582939    0.637598
  H     -1.588310    0.105032    0.161320

 Total Charge           Charge          ....    0
 Multiplicity           Mult            ....    3
 Number of Electrons    NEL             ....   24
 Basis Dimension        Dim             ....  182

ORBITAL ENERGIES
----------------
                 SPIN UP ORBITALS
  NO   OCC          E(Eh)            E(eV)
   0   1.0000     -19.399475      -527.8865
   1   1.0000     -10.427069      -283.7350
   2   1.0000     -10.364362      -282.0286
   3   1.0000      -1.147494       -31.2249
   4   1.0000      -0.882252       -24.0073
   5   1.0000      -0.742995       -20.2179
   6   1.0000      -0.597506       -16.2590
   7   1.0000      -0.580178       -15.7874
   8   1.0000      -0.546937       -14.8829
   9   1.0000      -0.502502       -13.6738
  10   1.0000      -0.448898       -12.2151
  11   1.0000      -0.427270       -11.6266
  12   1.0000      -0.317333        -8.6351
  13   0.0000       0.038824         1.0565
  14   0.0000       0.059784         1.6268
  15   0.0000       0.079909         2.1744
  16   0.0000       0.083933         2.2839
  17   0.0000       0.107655         2.9294

                 SPIN DOWN ORBITALS
  NO   OCC          E(Eh)            E(eV)
   0   1.0000     -19.376115      -527.2509
   1   1.0000     -10.428602      -283.7767
   2   1.0000     -10.351309      -281.6734
   3   1.0000      -1.092202       -29.7203
   4   1.0000      -0.852470       -23.1969
   5   1.0000      -0.717643       -19.5281
   6   1.0000      -0.578993       -15.7552
   7   1.0000      -0.528762       -14.3883
   8   1.0000      -0.516800       -14.0628
   9   1.0000      -0.482089       -13.1183
  10   1.0000      -0.396358       -10.7855
  11   0.0000      -0.060939        -1.6582
  12   0.0000       0.002611         0.0710
  13   0.0000       0.037984         1.0336
  14   0.0000       0.059626         1.6225
  15   0.0000       0.080826         2.1994

----------------------------------------------------------------------------------------------------
          SPIN FLIP ABSORPTION SPECTRUM VIA TRANSITION ELECTRIC DIPOLE MOMENTS
----------------------------------------------------------------------------------------------------
     Transition      Energy     Energy  Wavelength fosc(D2)      D2        DX        DY        DZ
                      (eV)      (cm-1)    (nm)                 (au**2)    (au)      (au)      (au)
----------------------------------------------------------------------------------------------------
  1-3A  ->  2-3A    0.241310    1946.3  5138.0   0.000801358   0.13555  -0.30800  -0.20145   0.00995

Dispersion correction             ... done (  0.1 sec)

MULLIKEN ATOMIC CHARGES AND SPIN DENSITIES
------------------------------------------
   0 O :   -0.316612    0.537444
   1 C :    0.028406    0.041389
   2 C :   -0.427207   -0.418675
   3 H :    0.188611   -0.044742
   4 H :    0.168819   -0.021612
   5 H :    0.182593   -0.050387
   6 H :    0.175390   -0.043418
Sum of atomic charges       :    0.0000000

LOEWDIN ATOMIC CHARGES AND SPIN DENSITIES
-----------------------------------------
   0 O :    0.028960    0.504093
   1 C :   -0.243130   -0.046488
   2 C :    0.259405   -0.336095
   3 H :    0.031406   -0.033908
   4 H :    0.050128    0.006434
   5 H :   -0.073195   -0.047278
   6 H :   -0.053575   -0.046759

  Mayer bond orders larger than 0.100000
B(  0-O ,  1-C ) :   0.8802 B(  0-O ,  2-C ) :   0.1287 B(  1-C ,  2-C ) :   0.8288
B(  1-C ,  3-H ) :   0.9727 B(  1-C ,  4-H ) :   0.9175 B(  2-C ,  5-H ) :   1.0437
B(  2-C ,  6-H ) :   1.0240

Dispersion correction           -0.005475002
FINAL SINGLE POINT ENERGY      -153.733879325940

DIPOLE MOMENT
-------------

Method             : TDA/CIS
Type of density    : Electron Density
Level              : Relaxed density
State              :   2
Multiplicity       :   3
Irrep              :   0
Energy             :     0.0000000000000000 Eh
Relativity type    :
Basis              : AO
                                X                 Y                 Z
Electronic contribution:      1.041292991       2.446094879      -0.243708517
Nuclear contribution   :     -0.964239379      -3.232554824       0.332609393
                        -----------------------------------------
Total Dipole Moment    :      0.077053612      -0.786459946       0.088900876
                        -----------------------------------------
Magnitude (a.u.)       :      0.795210583
Magnitude (Debye)      :      2.021264669

Rotational constants in cm-1:             1.298579             0.358544             0.295734
Rotational constants in MHz :         38930.406250         10748.876525          8865.874985

                             ****ORCA TERMINATED NORMALLY****
TOTAL RUN TIME: 0 days 0 hours 0 minutes 17 seconds 529 msec
