                         Program Version 6.0.0  -   RELEASE  -
|  1> ! Opt wB97M-D3BJ def2-TZVPPD
|  2> %pal nprocs 8 end %pal nprocs 64 end
|  3> %geom
|  4> Constraints
|  5>     {A 2 1 0 89.0909090909091 C }
|  6> end
|  7> MaxIter 500
|  8> end
|  9> *xyz 0 1
| 10> O   -0.0007 0.8141 0.0
| 11> C   0.7509 -0.4065 0.0
| 12> C   -0.7502 -0.4076 0.0
| 13> H   1.2625 -0.6786 0.9136
| 14> H   1.2625 -0.6787 -0.9136
| 15> H   -1.2614 -0.6806 -0.9136
| 16> H   -1.2614 -0.6805 0.9136
| 17> *
| 18>
| 19>                          ****END OF INPUT****
 Total Charge           Charge          ....    0
 Multiplicity           Mult            ....    1
 Number of Electrons    NEL             ....   24
Dispersion correction           -0.005584371
FINAL SINGLE POINT ENERGY      -153.799714888012
Dispersion correction             ... done (  0.1 sec)
Dispersion correction           -0.005614411
FINAL SINGLE POINT ENERGY      -153.818771642786
Dispersion correction             ... done (  0.2 sec)
Dispersion correction           -0.005618464
FINAL SINGLE POINT ENERGY      -153.825118477922
Dispersion correction             ... done (  0.1 sec)
FINAL SINGLE POINT ENERGY      -153.827118413872
FINAL SINGLE POINT ENERGY      -153.827595132643
FINAL SINGLE POINT ENERGY      -153.827760407999
FINAL SINGLE POINT ENERGY      -153.827836189657
FINAL SINGLE POINT ENERGY      -153.827868879655
FINAL SINGLE POINT ENERGY      -153.827885636925
Dispersion correction             ... done (  0.2 sec)
Dispersion correction           -0.005641187
FINAL SINGLE POINT ENERGY      -153.827892768882
Dispersion correction             ... done (  0.1 sec)
Dispersion correction           -0.005640604
FINAL SINGLE POINT ENERGY      -153.827894642858
Dispersion correction             ... done (  0.1 sec)
                    ***********************HURRAY********************

CARTESIAN COORDINATES (ANGSTROEM)
---------------------------------
  O      0.279381    0.973761   -0.001973
  C      0.640174   -0.318211   -0.000401
  C     -0.736601   -0.679238    0.000518
  H      1.197510   -0.639791    0.888133
  H      1.197702   -0.641761   -0.888045
  H     -1.288524   -0.708092   -0.925920
  H     -1.287442   -0.705068    0.927687

 Multiplicity           Mult            ....    1
 Number of Electrons    NEL             ....   24
 Basis Dimension        Dim             ....  182

ORBITAL ENERGIES
----------------

  NO   OCC          E(Eh)            E(eV)
   0   2.0000     -19.337780      -526.2077
   1   2.0000     -10.430173      -283.8194
   2   2.0000     -10.396864      -282.9131
   3   2.0000      -1.145719       -31.1766
   4   2.0000      -0.866160       -23.5694
   5   2.0000      -0.735082       -20.0026
   6   2.0000      -0.625450       -17.0194
   7   2.0000      -0.580235       -15.7890
   8   2.0000      -0.514519       -14.0008
   9   2.0000      -0.506832       -13.7916
  10   2.0000      -0.386925       -10.5288
  11   2.0000      -0.363487        -9.8910
  12   0.0000      -0.015826        -0.4307
  13   0.0000       0.040301         1.0966
  14   0.0000       0.060810         1.6547
  15   0.0000       0.076634         2.0853
  16   0.0000       0.098293         2.6747

MULLIKEN ATOMIC CHARGES
-----------------------
   0 O :   -0.482275
   1 C :   -0.083564
   2 C :   -0.304657
   3 H :    0.217161
   4 H :    0.217284
   5 H :    0.217995
   6 H :    0.218055
Sum of atomic charges:   -0.0000000

LOEWDIN ATOMIC CHARGES
----------------------
   0 O :   -0.017403
   1 C :   -0.346097
   2 C :    0.327603
   3 H :    0.024485
   4 H :    0.024485
   5 H :   -0.006535
   6 H :   -0.006539

  Mayer bond orders larger than 0.100000
B(  0-O ,  1-C ) :   0.6699 B(  0-O ,  2-C ) :   0.9465 B(  1-C ,  2-C ) :   0.7665
B(  1-C ,  3-H ) :   1.0485 B(  1-C ,  4-H ) :   1.0483 B(  2-C ,  5-H ) :   0.9641
B(  2-C ,  6-H ) :   0.9641

Dispersion correction           -0.005640255
FINAL SINGLE POINT ENERGY      -153.827894968573

DIPOLE MOMENT
-------------

Method             : SCF
Type of density    : Electron Density
Multiplicity       :   1
Irrep              :   0
Energy             :  -153.8222547134585341 Eh
Relativity type    :
Basis              : AO
                                X                 Y                 Z
Electronic contribution:      0.058286845       1.434556234      -0.002496855
Nuclear contribution   :     -0.433082796      -2.589191697       0.004132129
                        -----------------------------------------
Total Dipole Moment    :     -0.374795951      -1.154635463       0.001635274
                        -----------------------------------------
Magnitude (a.u.)       :      1.213943051
Magnitude (Debye)      :      3.085598019

Rotational constants in cm-1:             1.052082             0.509809             0.397152
Rotational constants in MHz :         31540.639654         15283.688640         11906.323723

                             ****ORCA TERMINATED NORMALLY****
TOTAL RUN TIME: 0 days 0 hours 2 minutes 44 seconds 617 msec
