                         Program Version 6.0.0  -   RELEASE  -
|  1> ! Engrad def2-TZVPPD wB97M-D3BJ
|  2> %pal nprocs 8 end%pal nprocs 32 end
|  3>  %tddft nroots 2 Iroot 2
|  4> sf true
|  5> end
|  6> *xyz 0 3
|  7> O   3.43749300215048 0.39546580768483 -0.724449531009
|  8> O   -0.94859086991033 1.37494095376153 -2.48923037836789
|  9> O   0.4335766083429 -2.88324613856578 -0.53898348760115
| 10> O   -2.99914492430993 -1.8207998269391 -0.10566078496776
| 11> N   0.36838468802564 -1.32484246400556 1.11459109224781
| 12> N   -2.1151007184042 -0.06512678001527 1.04317234168413
| 13> N   1.59567018710056 -0.94285796010965 -0.82195590088754
| 14> N   -1.59566812038333 -0.38375869655979 -1.19226616503291
| 15> C   1.93221102479421 0.4746936938702 1.08219466536216
| 16> C   -1.00170711084193 1.67932784046515 -0.14295064345478
| 17> C   0.42439556184954 0.05753473012013 1.502047327415
| 18> C   -1.0294253524174 0.86623966853237 1.13799570536635
| 19> C   2.78022667339489 1.21205995716424 2.02549957532461
| 20> C   -1.01268094570141 3.14947087665472 -0.15024232425958
| 21> C   2.40093626711831 0.02159930662371 -0.19925203530718
| 22> C   -1.16238537214682 0.92918638465411 -1.37791419854938
| 23> C   0.76685500457035 -1.79932974469745 -0.12089989516761
| 24> C   -2.29253955534138 -0.84392517468296 -0.07553251893098
| 25> H   0.4195497947255 0.07091353929009 2.59407787019761
| 26> H   -1.2070933003086 1.53202492689329 1.978112450081
| 27> H   3.78546789736224 1.31895421227058 1.62990461218478
| 28> H   2.37385320981623 2.20621587243469 2.23798120810659
| 29> H   2.81769199119458 0.68986689405693 2.9886579829531
| 30> H   -2.01504796705099 3.5155446421485 0.11026750666303
| 31> H   -0.32725722570888 3.5617181264524 0.58974606078833
| 32> H   -0.76922969945162 3.52339275342006 -1.14039077962821
| 33> H   -0.23484103758706 -1.96652361146103 1.60107906873514
| 34> H   -2.60005694073401 -0.38636955978956 1.86218961376935
| 35> H   1.95536635428203 -1.31356607549206 -1.68658076608037
| 36> H   -1.72830912442953 -0.93380415417933 -2.02660767163465
| 37> *
| 38>
| 39>                          ****END OF INPUT****

CARTESIAN COORDINATES (ANGSTROEM)
---------------------------------
  O      3.437493    0.395466   -0.724450
  O     -0.948591    1.374941   -2.489230
  O      0.433577   -2.883246   -0.538983
  O     -2.999145   -1.820800   -0.105661
  N      0.368385   -1.324842    1.114591
  N     -2.115101   -0.065127    1.043172
  N      1.595670   -0.942858   -0.821956
  N     -1.595668   -0.383759   -1.192266
  C      1.932211    0.474694    1.082195
  C     -1.001707    1.679328   -0.142951
  C      0.424396    0.057535    1.502047
  C     -1.029425    0.866240    1.137996
  C      2.780227    1.212060    2.025500
  C     -1.012681    3.149471   -0.150242
  C      2.400936    0.021599   -0.199252
  C     -1.162385    0.929186   -1.377914
  C      0.766855   -1.799330   -0.120900
  C     -2.292540   -0.843925   -0.075533
  H      0.419550    0.070914    2.594078
  H     -1.207093    1.532025    1.978112
  H      3.785468    1.318954    1.629905
  H      2.373853    2.206216    2.237981
  H      2.817692    0.689867    2.988658
  H     -2.015048    3.515545    0.110268
  H     -0.327257    3.561718    0.589746
  H     -0.769230    3.523393   -1.140391
  H     -0.234841   -1.966524    1.601079
  H     -2.600057   -0.386370    1.862190
  H      1.955366   -1.313566   -1.686581
  H     -1.728309   -0.933804   -2.026608

 Total Charge           Charge          ....    0
 Multiplicity           Mult            ....    3
 Number of Electrons    NEL             ....  132
 Basis Dimension        Dim             ....  882

ORBITAL ENERGIES
----------------
                 SPIN UP ORBITALS
  NO   OCC          E(Eh)            E(eV)
   0   1.0000     -19.335200      -526.1375
   1   1.0000     -19.330976      -526.0226
   2   1.0000     -19.319287      -525.7045
   3   1.0000     -19.314961      -525.5868
   4   1.0000     -14.563427      -396.2910
   5   1.0000     -14.556882      -396.1129
   6   1.0000     -14.556806      -396.1108
   7   1.0000     -14.554828      -396.0570
   8   1.0000     -10.502916      -285.7989
   9   1.0000     -10.498647      -285.6827
  10   1.0000     -10.478887      -285.1450
  11   1.0000     -10.476178      -285.0713
  12   1.0000     -10.450523      -284.3732
  13   1.0000     -10.448387      -284.3151
  14   1.0000     -10.426513      -283.7198
  15   1.0000     -10.412438      -283.3368
  16   1.0000     -10.375319      -282.3268
  17   1.0000     -10.371280      -282.2169
  18   1.0000      -1.219520       -33.1848
  19   1.0000      -1.214266       -33.0419
  20   1.0000      -1.194472       -32.5032
  21   1.0000      -1.193653       -32.4809
  22   1.0000      -1.115291       -30.3486
  23   1.0000      -1.096043       -29.8249
  24   1.0000      -1.062352       -28.9081
  25   1.0000      -1.052636       -28.6437
  26   1.0000      -0.965014       -26.2594
  27   1.0000      -0.952975       -25.9318
  28   1.0000      -0.878904       -23.9162
  29   1.0000      -0.838756       -22.8237
  30   1.0000      -0.826088       -22.4790
  31   1.0000      -0.803540       -21.8654
  32   1.0000      -0.781566       -21.2675
  33   1.0000      -0.772861       -21.0306
  34   1.0000      -0.695376       -18.9221
  35   1.0000      -0.691212       -18.8088
  36   1.0000      -0.676686       -18.4136
  37   1.0000      -0.657674       -17.8962
  38   1.0000      -0.649320       -17.6689
  39   1.0000      -0.642326       -17.4786
  40   1.0000      -0.616682       -16.7808
  41   1.0000      -0.600818       -16.3491
  42   1.0000      -0.591800       -16.1037
  43   1.0000      -0.585336       -15.9278
  44   1.0000      -0.571718       -15.5572
  45   1.0000      -0.568524       -15.4703
  46   1.0000      -0.561581       -15.2814
  47   1.0000      -0.558335       -15.1931
  48   1.0000      -0.555982       -15.1290
  49   1.0000      -0.549880       -14.9630
  50   1.0000      -0.542549       -14.7635
  51   1.0000      -0.541829       -14.7439
  52   1.0000      -0.535724       -14.5778
  53   1.0000      -0.519755       -14.1432
  54   1.0000      -0.516088       -14.0435
  55   1.0000      -0.503885       -13.7114
  56   1.0000      -0.486471       -13.2376
  57   1.0000      -0.420934       -11.4542
  58   1.0000      -0.418352       -11.3839
  59   1.0000      -0.412339       -11.2203
  60   1.0000      -0.402303       -10.9472
  61   1.0000      -0.396210       -10.7814
  62   1.0000      -0.390068       -10.6143
  63   1.0000      -0.388124       -10.5614
  64   1.0000      -0.376603       -10.2479
  65   1.0000      -0.338219        -9.2034
  66   1.0000      -0.329653        -8.9703
  67   0.0000       0.005552         0.1511
  68   0.0000       0.027208         0.7404
  69   0.0000       0.031409         0.8547
  70   0.0000       0.039328         1.0702
  71   0.0000       0.055778         1.5178

                 SPIN DOWN ORBITALS
  NO   OCC          E(Eh)            E(eV)
   0   1.0000     -19.330090      -525.9985
   1   1.0000     -19.326611      -525.9038
   2   1.0000     -19.319077      -525.6988
   3   1.0000     -19.314661      -525.5787
   4   1.0000     -14.562786      -396.2735
   5   1.0000     -14.556575      -396.1046
   6   1.0000     -14.556572      -396.1045
   7   1.0000     -14.554109      -396.0374
   8   1.0000     -10.502937      -285.7994
   9   1.0000     -10.498661      -285.6831
  10   1.0000     -10.479984      -285.1749
  11   1.0000     -10.477193      -285.0989
  12   1.0000     -10.450313      -284.3675
  13   1.0000     -10.448656      -284.3224
  14   1.0000     -10.414969      -283.4057
  15   1.0000     -10.400897      -283.0228
  16   1.0000     -10.375903      -282.3427
  17   1.0000     -10.371843      -282.2322
  18   1.0000      -1.217955       -33.1422
  19   1.0000      -1.212013       -32.9805
  20   1.0000      -1.188966       -32.3534
  21   1.0000      -1.188129       -32.3306
  22   1.0000      -1.112968       -30.2854
  23   1.0000      -1.093506       -29.7558
  24   1.0000      -1.060678       -28.8625
  25   1.0000      -1.051075       -28.6012
  26   1.0000      -0.950080       -25.8530
  27   1.0000      -0.936215       -25.4757
  28   1.0000      -0.875506       -23.8237
  29   1.0000      -0.833273       -22.6745
  30   1.0000      -0.817486       -22.2449
  31   1.0000      -0.798440       -21.7267
  32   1.0000      -0.780339       -21.2341
  33   1.0000      -0.771291       -20.9879
  34   1.0000      -0.689028       -18.7494
  35   1.0000      -0.684802       -18.6344
  36   1.0000      -0.671692       -18.2777
  37   1.0000      -0.651878       -17.7385
  38   1.0000      -0.640709       -17.4346
  39   1.0000      -0.637414       -17.3449
  40   1.0000      -0.614444       -16.7199
  41   1.0000      -0.596090       -16.2204
  42   1.0000      -0.582952       -15.8629
  43   1.0000      -0.575635       -15.6638
  44   1.0000      -0.564616       -15.3640
  45   1.0000      -0.560777       -15.2595
  46   1.0000      -0.555530       -15.1167
  47   1.0000      -0.553488       -15.0612
  48   1.0000      -0.545491       -14.8436
  49   1.0000      -0.542385       -14.7590
  50   1.0000      -0.538703       -14.6589
  51   1.0000      -0.533856       -14.5270
  52   1.0000      -0.529541       -14.4096
  53   1.0000      -0.508920       -13.8484
  54   1.0000      -0.505237       -13.7482
  55   1.0000      -0.498398       -13.5621
  56   1.0000      -0.480256       -13.0684
  57   1.0000      -0.416306       -11.3283
  58   1.0000      -0.414608       -11.2821
  59   1.0000      -0.404383       -11.0038
  60   1.0000      -0.390094       -10.6150
  61   1.0000      -0.384915       -10.4741
  62   1.0000      -0.384550       -10.4641
  63   1.0000      -0.382054       -10.3962
  64   1.0000      -0.368665       -10.0319
  65   0.0000      -0.056084        -1.5261
  66   0.0000      -0.047773        -1.3000
  67   0.0000       0.005308         0.1444
  68   0.0000       0.027101         0.7375
  69   0.0000       0.031238         0.8500

----------------------------------------------------------------------------------------------------
          SPIN FLIP ABSORPTION SPECTRUM VIA TRANSITION ELECTRIC DIPOLE MOMENTS
----------------------------------------------------------------------------------------------------
     Transition      Energy     Energy  Wavelength fosc(D2)      D2        DX        DY        DZ
                      (eV)      (cm-1)    (nm)                 (au**2)    (au)      (au)      (au)
----------------------------------------------------------------------------------------------------
  1-3A  ->  2-1A    0.012830     103.5  96636.0   0.000000074   0.00023  -0.01294  -0.00800   0.00155

Dispersion correction             ... done (  0.1 sec)

MULLIKEN ATOMIC CHARGES AND SPIN DENSITIES
------------------------------------------
   0 O :   -0.671090   -0.147985
   1 O :   -0.678241    0.127522
   2 O :   -0.650067   -0.009358
   3 O :   -0.638816    0.003553
   4 N :   -0.267367   -0.005419
   5 N :   -0.306516    0.013173
   6 N :    0.100188   -0.004068
   7 N :    0.048578    0.018206
   8 C :    1.219940    0.326058
   9 C :   -0.031888    0.384502
  10 C :   -0.331281   -0.338096
  11 C :    0.737364    0.038067
  12 C :   -1.302190    0.002743
  13 C :   -1.448081    0.002653
  14 C :   -0.220353   -0.550078
  15 C :    0.543993    0.083023
  16 C :    0.372053    0.033636
  17 C :    0.349446   -0.008649
  18 H :    0.527704   -0.020527
  19 H :    0.498651    0.014539
  20 H :    0.319013   -0.010577
  21 H :    0.296894    0.000139
  22 H :    0.338055    0.001175
  23 H :    0.322272    0.028176
  24 H :    0.305814    0.006103
  25 H :    0.337905    0.010432
  26 H :    0.079978   -0.002193
  27 H :    0.071739    0.000841
  28 H :    0.054181    0.002789
  29 H :    0.022124   -0.000377
Sum of atomic charges       :    0.0000000

LOEWDIN ATOMIC CHARGES AND SPIN DENSITIES
-----------------------------------------
   0 O :    0.081982   -0.136952
   1 O :    0.097201    0.113677
   2 O :    0.094716   -0.008863
   3 O :    0.100653    0.003562
   4 N :    0.245632   -0.010160
   5 N :    0.263650    0.011318
   6 N :    0.323697   -0.007376
   7 N :    0.322833    0.009998
   8 C :    0.034893   -0.402312
   9 C :   -0.030717    0.413727
  10 C :   -0.024416   -0.000871
  11 C :   -0.069483    0.026106
  12 C :    0.172410   -0.067494
  13 C :    0.183364    0.065932
  14 C :   -0.421529   -0.077951
  15 C :   -0.404430    0.064723
  16 C :   -0.499403   -0.000834
  17 C :   -0.491763    0.000367
  18 H :    0.026097    0.001781
  19 H :    0.038791   -0.000459
  20 H :   -0.002070    0.001055
  21 H :    0.010103   -0.018676
  22 H :    0.011508   -0.016610
  23 H :    0.015802    0.024643
  24 H :   -0.002107    0.009867
  25 H :   -0.002689    0.001377
  26 H :   -0.028720   -0.001166
  27 H :   -0.027821    0.001254
  28 H :   -0.011340   -0.000539
  29 H :   -0.006844    0.000875

  Mayer bond orders larger than 0.100000
B(  0-O , 14-C ) :   1.3924 B(  1-O , 15-C ) :   1.3877 B(  2-O , 16-C ) :   1.5120
B(  3-O , 17-C ) :   1.5412 B(  4-N ,  8-C ) :   0.1524 B(  4-N , 10-C ) :   0.3524
B(  4-N , 16-C ) :   1.0051 B(  4-N , 26-H ) :   1.0749 B(  5-N ,  9-C ) :   0.3553
B(  5-N , 10-C ) :   0.1179 B(  5-N , 11-C ) :   0.1076 B(  5-N , 17-C ) :   1.1333
B(  5-N , 27-H ) :   1.0534 B(  6-N , 14-C ) :   1.0148 B(  6-N , 16-C ) :   1.0128
B(  6-N , 28-H ) :   1.0541 B(  7-N , 11-C ) :   0.1175 B(  7-N , 15-C ) :   0.9737
B(  7-N , 17-C ) :   0.9756 B(  7-N , 29-H ) :   1.0859 B(  8-C , 10-C ) :   0.2299
B(  8-C , 12-C ) :   0.4297 B(  8-C , 14-C ) :   0.5254 B(  8-C , 20-H ) :  -0.1018
B(  9-C , 10-C ) :   0.4356 B(  9-C , 11-C ) :  -0.3579 B(  9-C , 13-C ) :   0.5658
B(  9-C , 15-C ) :   0.7969 B(  9-C , 17-C ) :   0.1055 B(  9-C , 19-H ) :  -0.1202
B(  9-C , 25-H ) :  -0.1201 B( 10-C , 11-C ) :   0.5567 B( 10-C , 14-C ) :   0.1201
B( 10-C , 16-C ) :  -0.1277 B( 10-C , 18-H ) :   0.7188 B( 11-C , 13-C ) :  -0.1127
B( 11-C , 17-C ) :  -0.2079 B( 11-C , 19-H ) :   0.8973 B( 12-C , 20-H ) :   0.9873
B( 12-C , 21-H ) :   0.8997 B( 12-C , 22-H ) :   0.9083 B( 13-C , 23-H ) :   0.8928
B( 13-C , 24-H ) :   0.9457 B( 13-C , 25-H ) :   0.9570 B( 14-C , 16-C ) :  -0.1030

Dispersion correction           -0.056649344
FINAL SINGLE POINT ENERGY      -908.780301517672

DIPOLE MOMENT
-------------

Method             : TDA/CIS
Type of density    : Electron Density
Level              : Relaxed density
State              :   2
Multiplicity       :   3
Irrep              :   0
Energy             :     0.0000000000000000 Eh
Relativity type    :
Basis              : AO
                                X                 Y                 Z
Electronic contribution:     -2.595690035      -9.488195616      -7.362937186
Nuclear contribution   :      2.374625544      11.211354775      10.228787167
                        -----------------------------------------
Total Dipole Moment    :     -0.221064492       1.723159159       2.865849981
                        -----------------------------------------
Magnitude (a.u.)       :      3.351304688
Magnitude (Debye)      :      8.518339554

Rotational constants in cm-1:             0.019212             0.013864             0.011722
Rotational constants in MHz :           575.963196           415.619475           351.425793

                             ****ORCA TERMINATED NORMALLY****
TOTAL RUN TIME: 0 days 0 hours 5 minutes 29 seconds 131 msec
