                         Program Version 6.0.0  -   RELEASE  -
|  1> ! Engrad wB97M-D3BJ def2-TZVPPD
|  2> %pal nprocs 8 end%pal nprocs 16 end
|  3> %tddft nroots 2 Iroot 2
|  4>  sf true
|  5> end
|  6> *xyz 0 3
|  7> O   0.20822915343563 0.87343012534129 -0.00013092857529
|  8> C   0.72532194171495 -0.38842773146862 3.468928856e-05
|  9> C   -0.68990280496043 -0.49947430639899 -0.00010739772369
| 10> H   1.2653693946673 -0.68140458168275 0.900807941408
| 11> H   1.26539663573448 -0.68153141905718 -0.9006997276109
| 12> H   -1.23004774148826 -0.59891472425525 -0.92653011665096
| 13> H   -1.22968352738095 -0.59814695763746 0.92662553986427
| 14> *
| 15>
| 16>                          ****END OF INPUT****

CARTESIAN COORDINATES (ANGSTROEM)
---------------------------------
  O      0.208229    0.873430   -0.000131
  C      0.725322   -0.388428    0.000035
  C     -0.689903   -0.499474   -0.000107
  H      1.265369   -0.681405    0.900808
  H      1.265397   -0.681531   -0.900700
  H     -1.230048   -0.598915   -0.926530
  H     -1.229684   -0.598147    0.926626

 Total Charge           Charge          ....    0
 Multiplicity           Mult            ....    3
 Number of Electrons    NEL             ....   24
 Basis Dimension        Dim             ....  182

ORBITAL ENERGIES
----------------
                 SPIN UP ORBITALS
  NO   OCC          E(Eh)            E(eV)
   0   1.0000     -19.445415      -529.1366
   1   1.0000     -10.414397      -283.3902
   2   1.0000     -10.343039      -281.4484
   3   1.0000      -1.265773       -34.4434
   4   1.0000      -0.859546       -23.3894
   5   1.0000      -0.762199       -20.7405
   6   1.0000      -0.671012       -18.2592
   7   1.0000      -0.634687       -17.2707
   8   1.0000      -0.557399       -15.1676
   9   1.0000      -0.499119       -13.5817
  10   1.0000      -0.483553       -13.1581
  11   1.0000      -0.463144       -12.6028
  12   1.0000      -0.182651        -4.9702
  13   0.0000       0.038641         1.0515
  14   0.0000       0.062700         1.7062
  15   0.0000       0.071376         1.9422
  16   0.0000       0.086562         2.3555
  17   0.0000       0.112051         3.0491

                 SPIN DOWN ORBITALS
  NO   OCC          E(Eh)            E(eV)
   0   1.0000     -19.412838      -528.2502
   1   1.0000     -10.414981      -283.4060
   2   1.0000     -10.332342      -281.1573
   3   1.0000      -1.199089       -32.6289
   4   1.0000      -0.825027       -22.4501
   5   1.0000      -0.742897       -20.2152
   6   1.0000      -0.619276       -16.8514
   7   1.0000      -0.600060       -16.3285
   8   1.0000      -0.522241       -14.2109
   9   1.0000      -0.473948       -12.8968
  10   1.0000      -0.421645       -11.4736
  11   0.0000      -0.100400        -2.7320
  12   0.0000       0.034435         0.9370
  13   0.0000       0.058347         1.5877
  14   0.0000       0.059434         1.6173
  15   0.0000       0.066349         1.8055

----------------------------------------------------------------------------------------------------
          SPIN FLIP ABSORPTION SPECTRUM VIA TRANSITION ELECTRIC DIPOLE MOMENTS
----------------------------------------------------------------------------------------------------
     Transition      Energy     Energy  Wavelength fosc(D2)      D2        DX        DY        DZ
                      (eV)      (cm-1)    (nm)                 (au**2)    (au)      (au)      (au)
----------------------------------------------------------------------------------------------------
  1-3A  ->  2-3A    5.369045   43304.3   230.9   0.005191473   0.03947  -0.00015  -0.00006   0.19866

Dispersion correction             ... done (  0.0 sec)

MULLIKEN ATOMIC CHARGES AND SPIN DENSITIES
------------------------------------------
   0 O :   -0.298867    0.450031
   1 C :    0.117683    0.288153
   2 C :    0.027151   -0.122339
   3 H :    0.198456    0.017073
   4 H :    0.198289    0.016955
   5 H :   -0.121305   -0.324828
   6 H :   -0.121407   -0.325045
Sum of atomic charges       :   -0.0000000

LOEWDIN ATOMIC CHARGES AND SPIN DENSITIES
-----------------------------------------
   0 O :    0.098768    0.556674
   1 C :   -0.100428    0.038317
   2 C :    0.092447   -0.407992
   3 H :    0.027117    0.009880
   4 H :    0.027128    0.009895
   5 H :   -0.072529   -0.103418
   6 H :   -0.072503   -0.103356

  Mayer bond orders larger than 0.100000
B(  0-O ,  1-C ) :   0.7800 B(  0-O ,  2-C ) :   0.6525 B(  1-C ,  2-C ) :   0.6312
B(  1-C ,  3-H ) :   0.9892 B(  1-C ,  4-H ) :   0.9891 B(  1-C ,  5-H ) :  -0.1019
B(  1-C ,  6-H ) :  -0.1021 B(  2-C ,  5-H ) :   1.0601 B(  2-C ,  6-H ) :   1.0604
B(  5-H ,  6-H ) :   0.3758

Dispersion correction           -0.005243643
FINAL SINGLE POINT ENERGY      -153.657307873244

DIPOLE MOMENT
-------------

Method             : TDA/CIS
Type of density    : Electron Density
Level              : Relaxed density
State              :   2
Multiplicity       :   3
Irrep              :   0
Energy             :     0.0000000000000000 Eh
Relativity type    :
Basis              : AO
                                X                 Y                 Z
Electronic contribution:      0.854771029       2.330478365      -0.000389370
Nuclear contribution   :     -0.257696114      -2.451152306       0.000425388
                        -----------------------------------------
Total Dipole Moment    :      0.597074915      -0.120673941       0.000036018
                        -----------------------------------------
Magnitude (a.u.)       :      0.609147483
Magnitude (Debye)      :      1.548329853

Rotational constants in cm-1:             0.902118             0.664192             0.451532
Rotational constants in MHz :         27044.804709         19911.987900         13536.577924

                             ****ORCA TERMINATED NORMALLY****
TOTAL RUN TIME: 0 days 0 hours 0 minutes 17 seconds 740 msec
