                         Program Version 6.0.0  -   RELEASE  -
|  1> ! Engrad def2-TZVPPD wB97M-D3BJ
|  2> %pal nprocs 8 end%pal nprocs 64 end
|  3> %tddft Nroots 2 Iroot 2
|  4> sf true
|  5> end
|  6> *xyz 0 3
|  7> O   3.91735665 0.30123012 0.41693754
|  8> O   -1.74727116 1.38517294 -2.67491729
|  9> O   1.01958842 -2.87517652 -0.902106
| 10> O   -3.57265951 -1.3712086 0.51618707
| 11> N   0.23273565 -1.31749792 0.47483967
| 12> N   -2.05459837 0.31327721 1.1698049
| 13> N   2.51738159 -1.43566324 -0.16911224
| 14> N   -2.63353918 -0.04734215 -1.02553334
| 15> C   1.73816468 0.37480879 1.34420771
| 16> C   -0.73908356 1.36390835 -0.53128617
| 17> C   0.37983594 -0.13329534 1.29633344
| 18> C   -0.78690532 0.96802425 0.88367634
| 19> C   2.0284764 1.46818084 2.25469599
| 20> C   0.3010414 2.37543836 -0.80331041
| 21> C   2.821547 -0.2387088 0.52058547
| 22> C   -1.67324348 0.93793498 -1.56597114
| 23> C   1.27993047 -1.97409554 -0.17985422
| 24> C   -2.84374413 -0.43172332 0.24012013
| 25> H   0.23430188 -0.29315613 2.38020196
| 26> H   -0.58660938 1.83907504 1.49795569
| 27> H   1.80163073 1.17467099 3.29872483
| 28> H   3.00637654 1.79826572 2.08523967
| 29> H   1.27726235 2.28325277 2.09670934
| 30> H   0.10432512 3.37047502 -0.35265478
| 31> H   1.33205041 2.14197674 -0.49252125
| 32> H   0.24041023 2.57670522 -1.89220354
| 33> H   -0.58721326 -1.9092526 0.64158222
| 34> H   -2.26920428 0.26393885 2.16232597
| 35> H   3.17111989 -1.70157812 -0.83349955
| 36> H   -3.05593286 -0.5872857 -1.73556061
| 37> *
| 38>
| 39>                          ****END OF INPUT****

CARTESIAN COORDINATES (ANGSTROEM)
---------------------------------
  O      3.917357    0.301230    0.416938
  O     -1.747271    1.385173   -2.674917
  O      1.019588   -2.875177   -0.902106
  O     -3.572660   -1.371209    0.516187
  N      0.232736   -1.317498    0.474840
  N     -2.054598    0.313277    1.169805
  N      2.517382   -1.435663   -0.169112
  N     -2.633539   -0.047342   -1.025533
  C      1.738165    0.374809    1.344208
  C     -0.739084    1.363908   -0.531286
  C      0.379836   -0.133295    1.296333
  C     -0.786905    0.968024    0.883676
  C      2.028476    1.468181    2.254696
  C      0.301041    2.375438   -0.803310
  C      2.821547   -0.238709    0.520585
  C     -1.673243    0.937935   -1.565971
  C      1.279930   -1.974096   -0.179854
  C     -2.843744   -0.431723    0.240120
  H      0.234302   -0.293156    2.380202
  H     -0.586609    1.839075    1.497956
  H      1.801631    1.174671    3.298725
  H      3.006377    1.798266    2.085240
  H      1.277262    2.283253    2.096709
  H      0.104325    3.370475   -0.352655
  H      1.332050    2.141977   -0.492521
  H      0.240410    2.576705   -1.892204
  H     -0.587213   -1.909253    0.641582
  H     -2.269204    0.263939    2.162326
  H      3.171120   -1.701578   -0.833500
  H     -3.055933   -0.587286   -1.735561

 Total Charge           Charge          ....    0
 Multiplicity           Mult            ....    3
 Number of Electrons    NEL             ....  132
 Basis Dimension        Dim             ....  882

ORBITAL ENERGIES
----------------
                 SPIN UP ORBITALS
  NO   OCC          E(Eh)            E(eV)
   0   1.0000     -19.355665      -526.6944
   1   1.0000     -19.342274      -526.3300
   2   1.0000     -19.322380      -525.7887
   3   1.0000     -19.312856      -525.5295
   4   1.0000     -14.567398      -396.3991
   5   1.0000     -14.558839      -396.1661
   6   1.0000     -14.556679      -396.1074
   7   1.0000     -14.556202      -396.0944
   8   1.0000     -10.510627      -286.0087
   9   1.0000     -10.500336      -285.7287
  10   1.0000     -10.497401      -285.6488
  11   1.0000     -10.492620      -285.5187
  12   1.0000     -10.447174      -284.2821
  13   1.0000     -10.441567      -284.1295
  14   1.0000     -10.421775      -283.5909
  15   1.0000     -10.418420      -283.4996
  16   1.0000     -10.378504      -282.4134
  17   1.0000     -10.374821      -282.3132
  18   1.0000      -1.229444       -33.4549
  19   1.0000      -1.226179       -33.3660
  20   1.0000      -1.203287       -32.7431
  21   1.0000      -1.200966       -32.6799
  22   1.0000      -1.110522       -30.2188
  23   1.0000      -1.096447       -29.8358
  24   1.0000      -1.071133       -29.1470
  25   1.0000      -1.050156       -28.5762
  26   1.0000      -0.984178       -26.7808
  27   1.0000      -0.964928       -26.2570
  28   1.0000      -0.877665       -23.8825
  29   1.0000      -0.842417       -22.9233
  30   1.0000      -0.829434       -22.5701
  31   1.0000      -0.801884       -21.8204
  32   1.0000      -0.786409       -21.3993
  33   1.0000      -0.784071       -21.3357
  34   1.0000      -0.704342       -19.1661
  35   1.0000      -0.696487       -18.9524
  36   1.0000      -0.690901       -18.8004
  37   1.0000      -0.675470       -18.3805
  38   1.0000      -0.650880       -17.7114
  39   1.0000      -0.636774       -17.3275
  40   1.0000      -0.635434       -17.2910
  41   1.0000      -0.603961       -16.4346
  42   1.0000      -0.598915       -16.2973
  43   1.0000      -0.588892       -16.0246
  44   1.0000      -0.578044       -15.7294
  45   1.0000      -0.575583       -15.6624
  46   1.0000      -0.573129       -15.5956
  47   1.0000      -0.564828       -15.3697
  48   1.0000      -0.561838       -15.2884
  49   1.0000      -0.558571       -15.1995
  50   1.0000      -0.553551       -15.0629
  51   1.0000      -0.541967       -14.7477
  52   1.0000      -0.535275       -14.5656
  53   1.0000      -0.523948       -14.2574
  54   1.0000      -0.521129       -14.1806
  55   1.0000      -0.513200       -13.9649
  56   1.0000      -0.486743       -13.2450
  57   1.0000      -0.431727       -11.7479
  58   1.0000      -0.423466       -11.5231
  59   1.0000      -0.411847       -11.2069
  60   1.0000      -0.408507       -11.1160
  61   1.0000      -0.398230       -10.8364
  62   1.0000      -0.394886       -10.7454
  63   1.0000      -0.392319       -10.6756
  64   1.0000      -0.378260       -10.2930
  65   1.0000      -0.358316        -9.7503
  66   1.0000      -0.313810        -8.5392
  67   0.0000       0.009139         0.2487
  68   0.0000       0.029999         0.8163
  69   0.0000       0.030528         0.8307
  70   0.0000       0.034268         0.9325
  71   0.0000       0.051233         1.3941

                 SPIN DOWN ORBITALS
  NO   OCC          E(Eh)            E(eV)
   0   1.0000     -19.350944      -526.5659
   1   1.0000     -19.337947      -526.2123
   2   1.0000     -19.322215      -525.7842
   3   1.0000     -19.312863      -525.5297
   4   1.0000     -14.566934      -396.3864
   5   1.0000     -14.558367      -396.1533
   6   1.0000     -14.556724      -396.1086
   7   1.0000     -14.556044      -396.0901
   8   1.0000     -10.510679      -286.0101
   9   1.0000     -10.500354      -285.7292
  10   1.0000     -10.498415      -285.6764
  11   1.0000     -10.493576      -285.5447
  12   1.0000     -10.446799      -284.2719
  13   1.0000     -10.441063      -284.1158
  14   1.0000     -10.410753      -283.2910
  15   1.0000     -10.407464      -283.2015
  16   1.0000     -10.379174      -282.4317
  17   1.0000     -10.375334      -282.3272
  18   1.0000      -1.228589       -33.4316
  19   1.0000      -1.220368       -33.2079
  20   1.0000      -1.201431       -32.6926
  21   1.0000      -1.195337       -32.5268
  22   1.0000      -1.107811       -30.1451
  23   1.0000      -1.094361       -29.7791
  24   1.0000      -1.069424       -29.1005
  25   1.0000      -1.048941       -28.5431
  26   1.0000      -0.971688       -26.4410
  27   1.0000      -0.948268       -25.8037
  28   1.0000      -0.873155       -23.7598
  29   1.0000      -0.836874       -22.7725
  30   1.0000      -0.819599       -22.3024
  31   1.0000      -0.796473       -21.6731
  32   1.0000      -0.785104       -21.3638
  33   1.0000      -0.782301       -21.2875
  34   1.0000      -0.699548       -19.0357
  35   1.0000      -0.691510       -18.8169
  36   1.0000      -0.684230       -18.6189
  37   1.0000      -0.669160       -18.2088
  38   1.0000      -0.647389       -17.6163
  39   1.0000      -0.631437       -17.1823
  40   1.0000      -0.621925       -16.9234
  41   1.0000      -0.598286       -16.2802
  42   1.0000      -0.592576       -16.1248
  43   1.0000      -0.581504       -15.8235
  44   1.0000      -0.572724       -15.5846
  45   1.0000      -0.570652       -15.5282
  46   1.0000      -0.563232       -15.3263
  47   1.0000      -0.561399       -15.2764
  48   1.0000      -0.556815       -15.1517
  49   1.0000      -0.549050       -14.9404
  50   1.0000      -0.540919       -14.7192
  51   1.0000      -0.533352       -14.5133
  52   1.0000      -0.528232       -14.3739
  53   1.0000      -0.513758       -13.9801
  54   1.0000      -0.511897       -13.9294
  55   1.0000      -0.507493       -13.8096
  56   1.0000      -0.481789       -13.1101
  57   1.0000      -0.427009       -11.6195
  58   1.0000      -0.417626       -11.3642
  59   1.0000      -0.400423       -10.8961
  60   1.0000      -0.397946       -10.8287
  61   1.0000      -0.394126       -10.7247
  62   1.0000      -0.393482       -10.7072
  63   1.0000      -0.388372       -10.5681
  64   1.0000      -0.368804       -10.0357
  65   0.0000      -0.076893        -2.0924
  66   0.0000      -0.044364        -1.2072
  67   0.0000       0.008636         0.2350
  68   0.0000       0.029335         0.7982
  69   0.0000       0.030388         0.8269

----------------------------------------------------------------------------------------------------
          SPIN FLIP ABSORPTION SPECTRUM VIA TRANSITION ELECTRIC DIPOLE MOMENTS
----------------------------------------------------------------------------------------------------
     Transition      Energy     Energy  Wavelength fosc(D2)      D2        DX        DY        DZ
                      (eV)      (cm-1)    (nm)                 (au**2)    (au)      (au)      (au)
----------------------------------------------------------------------------------------------------
  1-3A  ->  2-3A    0.323274    2607.4  3835.3   0.000201937   0.02550   0.14418  -0.02783   0.06273

Dispersion correction             ... done (  0.1 sec)

MULLIKEN ATOMIC CHARGES AND SPIN DENSITIES
------------------------------------------
   0 O :   -0.658617    0.008166
   1 O :   -0.592234   -0.013774
   2 O :   -0.632238   -0.000148
   3 O :   -0.648095   -0.000092
   4 N :   -0.225212   -0.003228
   5 N :   -0.259118    0.000642
   6 N :   -0.008611    0.001830
   7 N :    0.024415   -0.003131
   8 C :    0.437808    0.383454
   9 C :    0.731158    0.356606
  10 C :    0.256393   -0.193711
  11 C :   -0.133234   -0.225526
  12 C :   -1.618936    0.002197
  13 C :   -1.477576    0.011431
  14 C :    0.378704   -0.168561
  15 C :    0.283999   -0.202339
  16 C :    0.438994    0.009165
  17 C :    0.473577    0.012459
  18 H :    0.486173   -0.010827
  19 H :    0.681051   -0.004729
  20 H :    0.379463    0.009619
  21 H :    0.336687   -0.001991
  22 H :    0.315966    0.013328
  23 H :    0.313392    0.010195
  24 H :    0.239970    0.015288
  25 H :    0.325321   -0.008089
  26 H :    0.061865   -0.001138
  27 H :    0.092003    0.000568
  28 H :   -0.004345    0.001470
  29 H :    0.001278    0.000867
Sum of atomic charges       :    0.0000000

LOEWDIN ATOMIC CHARGES AND SPIN DENSITIES
-----------------------------------------
   0 O :    0.072365    0.007220
   1 O :    0.119200   -0.011536
   2 O :    0.115098   -0.000398
   3 O :    0.073455   -0.000152
   4 N :    0.287512   -0.001476
   5 N :    0.258966    0.000191
   6 N :    0.352152   -0.000246
   7 N :    0.331058   -0.003147
   8 C :   -0.060736    0.039691
   9 C :   -0.014383   -0.020999
  10 C :   -0.117503    0.000546
  11 C :   -0.101768   -0.001255
  12 C :    0.186488    0.005694
  13 C :    0.186422   -0.005680
  14 C :   -0.341829    0.000621
  15 C :   -0.342598   -0.010183
  16 C :   -0.505200   -0.000334
  17 C :   -0.494494   -0.000262
  18 H :    0.054814    0.000784
  19 H :    0.031513   -0.000457
  20 H :    0.029255    0.002180
  21 H :   -0.031715   -0.000101
  22 H :    0.013736    0.001782
  23 H :    0.025732   -0.001460
  24 H :    0.004011   -0.000918
  25 H :    0.008843    0.000125
  26 H :   -0.013943   -0.000046
  27 H :   -0.031811    0.000038
  28 H :   -0.051991    0.000005
  29 H :   -0.042650   -0.000227

  Mayer bond orders larger than 0.100000
B(  0-O , 14-C ) :   1.3135 B(  1-O ,  9-C ) :   0.1666 B(  1-O , 13-C ) :   0.1033
B(  1-O , 15-C ) :   1.2257 B(  2-O , 16-C ) :   1.5858 B(  3-O , 17-C ) :   1.5954
B(  4-N , 10-C ) :   0.7163 B(  4-N , 11-C ) :   0.1687 B(  4-N , 16-C ) :   1.0833
B(  4-N , 26-H ) :   1.0855 B(  5-N ,  9-C ) :   0.1876 B(  5-N , 10-C ) :   0.1060
B(  5-N , 11-C ) :   0.3149 B(  5-N , 17-C ) :   1.1339 B(  5-N , 27-H ) :   1.0788
B(  6-N ,  8-C ) :  -0.1104 B(  6-N , 14-C ) :   1.0460 B(  6-N , 16-C ) :   0.9598
B(  6-N , 28-H ) :   1.1593 B(  7-N ,  9-C ) :  -0.1260 B(  7-N , 11-C ) :   0.1273
B(  7-N , 15-C ) :   0.9660 B(  7-N , 17-C ) :   0.9458 B(  7-N , 29-H ) :   1.1319
B(  8-C ,  9-C ) :   0.1325 B(  8-C , 10-C ) :   0.7421 B(  8-C , 11-C ) :   0.1192
B(  8-C , 12-C ) :   0.2453 B(  8-C , 14-C ) :   0.7628 B(  9-C , 10-C ) :   0.1505
B(  9-C , 11-C ) :   0.5727 B(  9-C , 13-C ) :   0.1138 B(  9-C , 15-C ) :   0.7791
B(  9-C , 19-H ) :  -0.1825 B(  9-C , 24-H ) :  -0.1302 B(  9-C , 25-H ) :  -0.1169
B( 10-C , 11-C ) :   0.6086 B( 10-C , 12-C ) :  -0.1809 B( 10-C , 16-C ) :  -0.1149
B( 10-C , 18-H ) :   0.8192 B( 11-C , 12-C ) :   0.1647 B( 11-C , 13-C ) :  -0.2313
B( 11-C , 17-C ) :  -0.1253 B( 11-C , 19-H ) :   0.5573 B( 12-C , 14-C ) :  -0.1100
B( 12-C , 20-H ) :   0.8950 B( 12-C , 21-H ) :   1.0335 B( 12-C , 22-H ) :   0.9381
B( 13-C , 15-C ) :  -0.2339 B( 13-C , 23-H ) :   0.9440 B( 13-C , 24-H ) :   1.0172
B( 13-C , 25-H ) :   1.0513

Dispersion correction           -0.056713847
FINAL SINGLE POINT ENERGY      -908.766404033693

DIPOLE MOMENT
-------------

Method             : TDA/CIS
Type of density    : Electron Density
Level              : Relaxed density
State              :   2
Multiplicity       :   3
Irrep              :   0
Energy             :     0.0000000000000000 Eh
Relativity type    :
Basis              : AO
                                X                 Y                 Z
Electronic contribution:     -3.950174310      -9.023779403      -5.695617864
Nuclear contribution   :      4.294664697      10.595574117       7.621229036
                        -----------------------------------------
Total Dipole Moment    :      0.344490387       1.571794714       1.925611172
                        -----------------------------------------
Magnitude (a.u.)       :      2.509420378
Magnitude (Debye)      :      6.378439699

Rotational constants in cm-1:             0.020975             0.011062             0.010063
Rotational constants in MHz :           628.807259           331.616764           301.689882

                             ****ORCA TERMINATED NORMALLY****
TOTAL RUN TIME: 0 days 0 hours 4 minutes 25 seconds 914 msec
