                         Program Version 6.0.0  -   RELEASE  -
|  1> ! Engrad def2-TZVPPD wB97M-D3BJ
|  2> %pal nprocs 8 end%pal nprocs 64 end
|  3> %tddft
|  4>  Iroot 1 Nroots 3
|  5> sf true
|  6> end
|  7> *xyz 0 3
|  8> O   -0.61274034 0.00081252 0.59322898
|  9> C   0.54483775 0.57610644 0.12208745
| 10> C   1.38413132 -0.40856265 -0.5568119
| 11> H   1.08943595 0.94995522 0.95383057
| 12> H   0.25335276 1.42529105 -0.44686034
| 13> H   1.82868017 -1.13980975 0.04039208
| 14> H   1.54761978 -0.49265155 -1.59896494
| 15> *
| 16>
| 17>                          ****END OF INPUT****

CARTESIAN COORDINATES (ANGSTROEM)
---------------------------------
  O     -0.612740    0.000813    0.593229
  C      0.544838    0.576106    0.122087
  C      1.384131   -0.408563   -0.556812
  H      1.089436    0.949955    0.953831
  H      0.253353    1.425291   -0.446860
  H      1.828680   -1.139810    0.040392
  H      1.547620   -0.492652   -1.598965

 Total Charge           Charge          ....    0
 Multiplicity           Mult            ....    3
 Number of Electrons    NEL             ....   24
 Basis Dimension        Dim             ....  182

ORBITAL ENERGIES
----------------
                 SPIN UP ORBITALS
  NO   OCC          E(Eh)            E(eV)
   0   1.0000     -19.387519      -527.5612
   1   1.0000     -10.401936      -283.0511
   2   1.0000     -10.357174      -281.8330
   3   1.0000      -1.168766       -31.8037
   4   1.0000      -0.883476       -24.0406
   5   1.0000      -0.745273       -20.2799
   6   1.0000      -0.629251       -17.1228
   7   1.0000      -0.586020       -15.9464
   8   1.0000      -0.555664       -15.1204
   9   1.0000      -0.523685       -14.2502
  10   1.0000      -0.439529       -11.9602
  11   1.0000      -0.416305       -11.3282
  12   1.0000      -0.326334        -8.8800
  13   0.0000       0.041605         1.1321
  14   0.0000       0.062350         1.6966
  15   0.0000       0.076960         2.0942
  16   0.0000       0.089041         2.4229
  17   0.0000       0.115571         3.1449

                 SPIN DOWN ORBITALS
  NO   OCC          E(Eh)            E(eV)
   0   1.0000     -19.362471      -526.8796
   1   1.0000     -10.403174      -283.0848
   2   1.0000     -10.344229      -281.4808
   3   1.0000      -1.112742       -30.2792
   4   1.0000      -0.849667       -23.1206
   5   1.0000      -0.719773       -19.5860
   6   1.0000      -0.599093       -16.3021
   7   1.0000      -0.556131       -15.1331
   8   1.0000      -0.528111       -14.3706
   9   1.0000      -0.491782       -13.3821
  10   1.0000      -0.383333       -10.4310
  11   0.0000      -0.052210        -1.4207
  12   0.0000      -0.001723        -0.0469
  13   0.0000       0.040291         1.0964
  14   0.0000       0.062325         1.6959
  15   0.0000       0.076874         2.0918

----------------------------------------------------------------------------------------------------
          SPIN FLIP ABSORPTION SPECTRUM VIA TRANSITION ELECTRIC DIPOLE MOMENTS
----------------------------------------------------------------------------------------------------
     Transition      Energy     Energy  Wavelength fosc(D2)      D2        DX        DY        DZ
                      (eV)      (cm-1)    (nm)                 (au**2)    (au)      (au)      (au)
----------------------------------------------------------------------------------------------------
  1-3A  ->  2-3A    0.231380    1866.2  5358.5   0.000017006   0.00300   0.03851  -0.02821   0.02686
  1-3A  ->  3-3A    1.107413    8931.9  1119.6   0.011826441   0.43590   0.56533  -0.04746  -0.33771

Dispersion correction             ... done (  0.2 sec)

MULLIKEN ATOMIC CHARGES AND SPIN DENSITIES
------------------------------------------
   0 O :   -0.440135   -0.626361
   1 C :   -0.052336   -0.005527
   2 C :   -0.463118    0.492678
   3 H :    0.214263    0.077642
   4 H :    0.223146   -0.024352
   5 H :    0.282195    0.047551
   6 H :    0.235984    0.038368
Sum of atomic charges       :   -0.0000000

LOEWDIN ATOMIC CHARGES AND SPIN DENSITIES
-----------------------------------------
   0 O :   -0.021338   -0.621398
   1 C :   -0.288055    0.037977
   2 C :    0.392131    0.457478
   3 H :    0.000809    0.027655
   4 H :    0.004596   -0.021822
   5 H :   -0.051247    0.060966
   6 H :   -0.036895    0.059144

  Mayer bond orders larger than 0.100000
B(  0-O ,  1-C ) :   0.8120 B(  0-O ,  2-C ) :   0.4602 B(  1-C ,  2-C ) :   0.7801
B(  1-C ,  3-H ) :   1.0144 B(  1-C ,  4-H ) :   0.9695 B(  2-C ,  5-H ) :   0.9243
B(  2-C ,  6-H ) :   0.9318

Dispersion correction           -0.005566220
FINAL SINGLE POINT ENERGY      -153.756283205983

DIPOLE MOMENT
-------------

Method             : TDA/CIS
Type of density    : Electron Density
Level              : Relaxed density
State              :   1
Multiplicity       :   3
Irrep              :   0
Energy             :     0.0000000000000000 Eh
Relativity type    :
Basis              : AO
                                X                 Y                 Z
Electronic contribution:     -1.598842674      -0.305592050       0.629577404
Nuclear contribution   :      2.868409337       0.459629546      -1.252304600
                        -----------------------------------------
Total Dipole Moment    :      1.269566664       0.154037495      -0.622727197
                        -----------------------------------------
Magnitude (a.u.)       :      1.422433206
Magnitude (Debye)      :      3.615537877

Rotational constants in cm-1:             1.426286             0.362290             0.320196
Rotational constants in MHz :         42758.968734         10861.168785          9599.241564

                             ****ORCA TERMINATED NORMALLY****
TOTAL RUN TIME: 0 days 0 hours 0 minutes 27 seconds 186 msec
