                         Program Version 6.0.0  -   RELEASE  -
|  1> ! Engrad def2-TZVPPD wB97M-D3BJ
|  2> %pal nprocs 8 end%pal nprocs 64 end
|  3> %tddft
|  4>  Iroot 1 Nroots 3
|  5> sf true
|  6> end
|  7> *xyz 0 3
|  8> O   0.14815196 0.98975836 0.77363018
|  9> C   0.48484332 -0.29568504 0.42404743
| 10> C   0.57308319 -0.55948854 -1.0441604
| 11> H   -0.17985843 -0.98079525 0.97689772
| 12> H   1.45240992 -0.65339377 0.698754
| 13> H   1.55463428 -0.96070749 -1.6098195
| 14> H   -0.02962529 -0.11310844 -1.76950794
| 15> *
| 16>
| 17>                          ****END OF INPUT****

CARTESIAN COORDINATES (ANGSTROEM)
---------------------------------
  O      0.148152    0.989758    0.773630
  C      0.484843   -0.295685    0.424047
  C      0.573083   -0.559489   -1.044160
  H     -0.179858   -0.980795    0.976898
  H      1.452410   -0.653394    0.698754
  H      1.554634   -0.960707   -1.609819
  H     -0.029625   -0.113108   -1.769508

 Total Charge           Charge          ....    0
 Multiplicity           Mult            ....    3
 Number of Electrons    NEL             ....   24
 Basis Dimension        Dim             ....  182

ORBITAL ENERGIES
----------------
                 SPIN UP ORBITALS
  NO   OCC          E(Eh)            E(eV)
   0   1.0000     -19.397736      -527.8392
   1   1.0000     -10.415330      -283.4155
   2   1.0000     -10.372917      -282.2614
   3   1.0000      -1.171867       -31.8881
   4   1.0000      -0.879424       -23.9304
   5   1.0000      -0.739992       -20.1362
   6   1.0000      -0.618061       -16.8183
   7   1.0000      -0.586121       -15.9492
   8   1.0000      -0.557793       -15.1783
   9   1.0000      -0.499899       -13.6029
  10   1.0000      -0.444420       -12.0933
  11   1.0000      -0.419812       -11.4237
  12   1.0000      -0.326895        -8.8953
  13   0.0000       0.039818         1.0835
  14   0.0000       0.059613         1.6222
  15   0.0000       0.079336         2.1588
  16   0.0000       0.086556         2.3553
  17   0.0000       0.109871         2.9897

                 SPIN DOWN ORBITALS
  NO   OCC          E(Eh)            E(eV)
   0   1.0000     -19.373652      -527.1839
   1   1.0000     -10.416662      -283.4518
   2   1.0000     -10.359782      -281.9040
   3   1.0000      -1.116779       -30.3891
   4   1.0000      -0.848364       -23.0852
   5   1.0000      -0.713150       -19.4058
   6   1.0000      -0.578867       -15.7518
   7   1.0000      -0.553574       -15.0635
   8   1.0000      -0.535973       -14.5846
   9   1.0000      -0.469758       -12.7828
  10   1.0000      -0.388906       -10.5827
  11   0.0000      -0.060627        -1.6497
  12   0.0000      -0.004242        -0.1154
  13   0.0000       0.039113         1.0643
  14   0.0000       0.060304         1.6409
  15   0.0000       0.079537         2.1643

----------------------------------------------------------------------------------------------------
          SPIN FLIP ABSORPTION SPECTRUM VIA TRANSITION ELECTRIC DIPOLE MOMENTS
----------------------------------------------------------------------------------------------------
     Transition      Energy     Energy  Wavelength fosc(D2)      D2        DX        DY        DZ
                      (eV)      (cm-1)    (nm)                 (au**2)    (au)      (au)      (au)
----------------------------------------------------------------------------------------------------
  1-3A  ->  2-3A    0.204608    1650.3  6059.6   0.000199816   0.03986  -0.01519   0.08738   0.17887
  1-3A  ->  3-3A    0.968481    7811.3  1280.2   0.021735017   0.91603   0.18883  -0.71375  -0.60905

Dispersion correction             ... done (  0.2 sec)

MULLIKEN ATOMIC CHARGES AND SPIN DENSITIES
------------------------------------------
   0 O :   -0.465705   -0.515986
   1 C :    0.014513   -0.046726
   2 C :   -0.462100    0.434092
   3 H :    0.239370    0.077713
   4 H :    0.196647   -0.021136
   5 H :    0.196921    0.021790
   6 H :    0.280353    0.050252
Sum of atomic charges       :    0.0000000

LOEWDIN ATOMIC CHARGES AND SPIN DENSITIES
-----------------------------------------
   0 O :   -0.042694   -0.516942
   1 C :   -0.284452    0.018555
   2 C :    0.330056    0.405645
   3 H :    0.036750    0.033784
   4 H :    0.002917   -0.030235
   5 H :    0.042657    0.034558
   6 H :   -0.085234    0.054634

  Mayer bond orders larger than 0.100000
B(  0-O ,  1-C ) :   0.9895 B(  0-O ,  2-C ) :   0.3323 B(  1-C ,  2-C ) :   0.7920
B(  1-C ,  3-H ) :   0.9686 B(  1-C ,  4-H ) :   0.9244 B(  2-C ,  5-H ) :   1.0063
B(  2-C ,  6-H ) :   0.9257

Dispersion correction           -0.005452116
FINAL SINGLE POINT ENERGY      -153.741838236772

DIPOLE MOMENT
-------------

Method             : TDA/CIS
Type of density    : Electron Density
Level              : Relaxed density
State              :   1
Multiplicity       :   3
Irrep              :   0
Energy             :     0.0000000000000000 Eh
Relativity type    :
Basis              : AO
                                X                 Y                 Z
Electronic contribution:     -0.665096760       1.634185127       1.146743786
Nuclear contribution   :      1.096213167      -2.768316259      -1.861588408
                        -----------------------------------------
Total Dipole Moment    :      0.431116406      -1.134131132      -0.714844622
                        -----------------------------------------
Magnitude (a.u.)       :      1.408232088
Magnitude (Debye)      :      3.579441504

Rotational constants in cm-1:             1.471655             0.339048             0.297632
Rotational constants in MHz :         44119.113010         10164.415754          8922.793608

                             ****ORCA TERMINATED NORMALLY****
TOTAL RUN TIME: 0 days 0 hours 0 minutes 27 seconds 895 msec
