                         Program Version 6.0.0  -   RELEASE  -
|  1> ! Engrad def2-TZVPPD wB97M-D3BJ
|  2> %pal nprocs 8 end%pal nprocs 64 end
|  3> %tddft
|  4>  Iroot 2 Nroots 3
|  5> sf true
|  6> end
|  7> *xyz 0 3
|  8> O   3.14448923 -0.79386595 -1.92970308
|  9> O   -1.97238766 1.64430058 -1.5604776
| 10> O   -0.94753626 -2.78143723 -1.45665278
| 11> O   -3.11206062 0.91382194 2.68022854
| 12> N   -0.18006306 -1.51411137 0.22799102
| 13> N   -0.84904351 0.73884542 2.09030428
| 14> N   1.11494204 -1.79680188 -1.68604447
| 15> N   -2.52979779 0.91007975 0.50061817
| 16> C   2.09407744 -0.6319954 0.14822755
| 17> C   -0.1512267 1.44188249 -0.1022654
| 18> C   0.80453931 -0.68008317 0.94986429
| 19> C   0.21319865 0.74826627 1.10971272
| 20> C   3.26663412 0.0227466 0.68437972
| 21> C   0.86554552 1.90789933 -1.10461802
| 22> C   2.22492697 -1.1191707 -1.23633012
| 23> C   -1.57428979 1.36498811 -0.43775375
| 24> C   -0.07092738 -2.07687907 -0.99328923
| 25> C   -2.21614092 0.8718679 1.8411582
| 26> H   1.06244719 -0.9418682 1.94933988
| 27> H   1.06116371 1.29982999 1.59203599
| 28> H   3.19715172 0.31741221 1.70496389
| 29> H   4.05218069 -0.72872383 0.60121058
| 30> H   3.74530022 0.73950113 0.03067247
| 31> H   0.56519107 2.67560314 -1.79909053
| 32> H   1.69662383 2.30572157 -0.53657865
| 33> H   1.30171662 1.09943943 -1.7163639
| 34> H   -1.07278225 -1.5403925 0.74998086
| 35> H   -0.59518014 0.95974844 3.0897517
| 36> H   1.33669401 -2.23956616 -2.54733263
| 37> H   -3.45633064 1.17925032 0.2594171
| 38> *
| 39>
| 40>                          ****END OF INPUT****

CARTESIAN COORDINATES (ANGSTROEM)
---------------------------------
  O      3.144489   -0.793866   -1.929703
  O     -1.972388    1.644301   -1.560478
  O     -0.947536   -2.781437   -1.456653
  O     -3.112061    0.913822    2.680229
  N     -0.180063   -1.514111    0.227991
  N     -0.849044    0.738845    2.090304
  N      1.114942   -1.796802   -1.686044
  N     -2.529798    0.910080    0.500618
  C      2.094077   -0.631995    0.148228
  C     -0.151227    1.441882   -0.102265
  C      0.804539   -0.680083    0.949864
  C      0.213199    0.748266    1.109713
  C      3.266634    0.022747    0.684380
  C      0.865546    1.907899   -1.104618
  C      2.224927   -1.119171   -1.236330
  C     -1.574290    1.364988   -0.437754
  C     -0.070927   -2.076879   -0.993289
  C     -2.216141    0.871868    1.841158
  H      1.062447   -0.941868    1.949340
  H      1.061164    1.299830    1.592036
  H      3.197152    0.317412    1.704964
  H      4.052181   -0.728724    0.601211
  H      3.745300    0.739501    0.030672
  H      0.565191    2.675603   -1.799091
  H      1.696624    2.305722   -0.536579
  H      1.301717    1.099439   -1.716364
  H     -1.072782   -1.540393    0.749981
  H     -0.595180    0.959748    3.089752
  H      1.336694   -2.239566   -2.547333
  H     -3.456331    1.179250    0.259417

 Total Charge           Charge          ....    0
 Multiplicity           Mult            ....    3
 Number of Electrons    NEL             ....  132
 Basis Dimension        Dim             ....  882

ORBITAL ENERGIES
----------------
                 SPIN UP ORBITALS
  NO   OCC          E(Eh)            E(eV)
   0   1.0000     -19.339808      -526.2629
   1   1.0000     -19.336390      -526.1699
   2   1.0000     -19.324171      -525.8374
   3   1.0000     -19.314854      -525.5839
   4   1.0000     -14.573227      -396.5577
   5   1.0000     -14.565107      -396.3367
   6   1.0000     -14.564221      -396.3126
   7   1.0000     -14.563840      -396.3022
   8   1.0000     -10.512107      -286.0490
   9   1.0000     -10.510226      -285.9978
  10   1.0000     -10.483709      -285.2762
  11   1.0000     -10.482731      -285.2496
  12   1.0000     -10.447957      -284.3034
  13   1.0000     -10.445743      -284.2431
  14   1.0000     -10.423586      -283.6402
  15   1.0000     -10.415400      -283.4174
  16   1.0000     -10.374789      -282.3123
  17   1.0000     -10.371326      -282.2181
  18   1.0000      -1.226297       -33.3692
  19   1.0000      -1.217839       -33.1391
  20   1.0000      -1.201840       -32.7037
  21   1.0000      -1.192904       -32.4606
  22   1.0000      -1.118816       -30.4445
  23   1.0000      -1.098211       -29.8838
  24   1.0000      -1.070290       -29.1241
  25   1.0000      -1.057068       -28.7643
  26   1.0000      -0.986961       -26.8566
  27   1.0000      -0.960380       -26.1333
  28   1.0000      -0.898255       -24.4428
  29   1.0000      -0.847898       -23.0725
  30   1.0000      -0.827193       -22.5091
  31   1.0000      -0.804651       -21.8957
  32   1.0000      -0.792021       -21.5520
  33   1.0000      -0.775829       -21.1114
  34   1.0000      -0.708988       -19.2925
  35   1.0000      -0.696693       -18.9580
  36   1.0000      -0.694824       -18.9071
  37   1.0000      -0.682808       -18.5802
  38   1.0000      -0.649165       -17.6647
  39   1.0000      -0.638737       -17.3809
  40   1.0000      -0.629290       -17.1239
  41   1.0000      -0.611522       -16.6404
  42   1.0000      -0.601305       -16.3623
  43   1.0000      -0.591145       -16.0859
  44   1.0000      -0.581489       -15.8231
  45   1.0000      -0.574628       -15.6364
  46   1.0000      -0.568489       -15.4694
  47   1.0000      -0.565036       -15.3754
  48   1.0000      -0.558456       -15.1964
  49   1.0000      -0.554406       -15.0861
  50   1.0000      -0.549996       -14.9662
  51   1.0000      -0.538009       -14.6400
  52   1.0000      -0.532158       -14.4807
  53   1.0000      -0.527341       -14.3497
  54   1.0000      -0.513134       -13.9631
  55   1.0000      -0.510881       -13.9018
  56   1.0000      -0.500627       -13.6228
  57   1.0000      -0.423767       -11.5313
  58   1.0000      -0.421415       -11.4673
  59   1.0000      -0.415942       -11.3184
  60   1.0000      -0.407424       -11.0866
  61   1.0000      -0.400820       -10.9069
  62   1.0000      -0.392184       -10.6719
  63   1.0000      -0.390389       -10.6230
  64   1.0000      -0.382952       -10.4207
  65   1.0000      -0.353103        -9.6084
  66   1.0000      -0.322781        -8.7833
  67   0.0000       0.004848         0.1319
  68   0.0000       0.028708         0.7812
  69   0.0000       0.032369         0.8808
  70   0.0000       0.034739         0.9453
  71   0.0000       0.051930         1.4131

                 SPIN DOWN ORBITALS
  NO   OCC          E(Eh)            E(eV)
   0   1.0000     -19.336909      -526.1841
   1   1.0000     -19.331288      -526.0311
   2   1.0000     -19.324122      -525.8361
   3   1.0000     -19.314763      -525.5814
   4   1.0000     -14.573012      -396.5518
   5   1.0000     -14.564303      -396.3148
   6   1.0000     -14.564045      -396.3078
   7   1.0000     -14.563872      -396.3031
   8   1.0000     -10.512116      -286.0492
   9   1.0000     -10.510261      -285.9987
  10   1.0000     -10.484394      -285.2949
  11   1.0000     -10.483905      -285.2815
  12   1.0000     -10.447464      -284.2900
  13   1.0000     -10.445462      -284.2355
  14   1.0000     -10.412288      -283.3328
  15   1.0000     -10.403946      -283.1058
  16   1.0000     -10.375296      -282.3262
  17   1.0000     -10.371831      -282.2319
  18   1.0000      -1.222822       -33.2747
  19   1.0000      -1.215381       -33.0722
  20   1.0000      -1.200463       -32.6663
  21   1.0000      -1.187823       -32.3223
  22   1.0000      -1.116124       -30.3713
  23   1.0000      -1.096338       -29.8329
  24   1.0000      -1.068546       -29.0766
  25   1.0000      -1.055909       -28.7328
  26   1.0000      -0.975004       -26.5312
  27   1.0000      -0.943261       -25.6674
  28   1.0000      -0.892223       -24.2786
  29   1.0000      -0.842380       -22.9223
  30   1.0000      -0.817778       -22.2529
  31   1.0000      -0.800232       -21.7754
  32   1.0000      -0.789997       -21.4969
  33   1.0000      -0.773676       -21.0528
  34   1.0000      -0.705573       -19.1996
  35   1.0000      -0.690318       -18.7845
  36   1.0000      -0.689364       -18.7586
  37   1.0000      -0.675767       -18.3886
  38   1.0000      -0.640413       -17.4265
  39   1.0000      -0.630832       -17.1658
  40   1.0000      -0.623612       -16.9693
  41   1.0000      -0.606496       -16.5036
  42   1.0000      -0.594372       -16.1737
  43   1.0000      -0.585723       -15.9383
  44   1.0000      -0.576915       -15.6987
  45   1.0000      -0.565744       -15.3947
  46   1.0000      -0.560687       -15.2571
  47   1.0000      -0.559645       -15.2287
  48   1.0000      -0.552678       -15.0391
  49   1.0000      -0.546356       -14.8671
  50   1.0000      -0.538789       -14.6612
  51   1.0000      -0.532869       -14.5001
  52   1.0000      -0.527596       -14.3566
  53   1.0000      -0.516184       -14.0461
  54   1.0000      -0.506013       -13.7693
  55   1.0000      -0.502888       -13.6843
  56   1.0000      -0.493671       -13.4335
  57   1.0000      -0.418968       -11.4007
  58   1.0000      -0.417243       -11.3538
  59   1.0000      -0.409009       -11.1297
  60   1.0000      -0.397618       -10.8197
  61   1.0000      -0.392519       -10.6810
  62   1.0000      -0.389338       -10.5944
  63   1.0000      -0.385494       -10.4898
  64   1.0000      -0.377311       -10.2671
  65   0.0000      -0.066768        -1.8169
  66   0.0000      -0.045649        -1.2422
  67   0.0000       0.004182         0.1138
  68   0.0000       0.028373         0.7721
  69   0.0000       0.031767         0.8644

----------------------------------------------------------------------------------------------------
          SPIN FLIP ABSORPTION SPECTRUM VIA TRANSITION ELECTRIC DIPOLE MOMENTS
----------------------------------------------------------------------------------------------------
     Transition      Energy     Energy  Wavelength fosc(D2)      D2        DX        DY        DZ
                      (eV)      (cm-1)    (nm)                 (au**2)    (au)      (au)      (au)
----------------------------------------------------------------------------------------------------
  1-3A  ->  2-3A    0.122010     984.1  10161.8   0.000040807   0.01365  -0.08376   0.07238   0.03738
  1-3A  ->  3-3A    2.107544   16998.5   588.3   0.002034859   0.03941   0.14441  -0.10166   0.09066

Dispersion correction             ... done (  0.1 sec)

MULLIKEN ATOMIC CHARGES AND SPIN DENSITIES
------------------------------------------
   0 O :   -0.630683    0.037098
   1 O :   -0.665116   -0.060389
   2 O :   -0.665952    0.001225
   3 O :   -0.655308    0.000394
   4 N :   -0.218964   -0.012215
   5 N :   -0.200062    0.000755
   6 N :    0.028451    0.011491
   7 N :    0.008446    0.001801
   8 C :    0.550514    0.366546
   9 C :    0.689694    0.307392
  10 C :   -0.013831   -0.087744
  11 C :    0.155083   -0.276601
  12 C :   -1.506569   -0.003190
  13 C :   -1.344912   -0.024437
  14 C :    0.289281   -0.063671
  15 C :   -0.012753   -0.210920
  16 C :    0.460834    0.001452
  17 C :    0.364274    0.009446
  18 H :    0.458036    0.008716
  19 H :    0.658648   -0.025332
  20 H :    0.391847    0.001175
  21 H :    0.372831    0.018493
  22 H :    0.264558    0.012190
  23 H :    0.305846   -0.009506
  24 H :    0.352970    0.007524
  25 H :    0.246419   -0.007546
  26 H :    0.094193   -0.001640
  27 H :    0.118305   -0.002119
  28 H :    0.010702   -0.000239
  29 H :    0.093217   -0.000149
Sum of atomic charges       :   -0.0000000

LOEWDIN ATOMIC CHARGES AND SPIN DENSITIES
-----------------------------------------
   0 O :    0.107082    0.030197
   1 O :    0.087587   -0.055833
   2 O :    0.084937    0.000672
   3 O :    0.066956   -0.000087
   4 N :    0.285331   -0.002406
   5 N :    0.254208   -0.000783
   6 N :    0.342965    0.009628
   7 N :    0.322735   -0.004418
   8 C :   -0.027218    0.176058
   9 C :    0.008691   -0.151629
  10 C :   -0.068253    0.007682
  11 C :   -0.183641   -0.016450
  12 C :    0.174840    0.029560
  13 C :    0.223806   -0.021293
  14 C :   -0.454419    0.024187
  15 C :   -0.371226   -0.030989
  16 C :   -0.472307   -0.000057
  17 C :   -0.473045   -0.000292
  18 H :    0.034678    0.002977
  19 H :    0.070081   -0.004949
  20 H :   -0.010777   -0.000372
  21 H :    0.017023    0.010513
  22 H :    0.008017    0.008043
  23 H :    0.003148   -0.001208
  24 H :   -0.004823   -0.001582
  25 H :    0.008716   -0.007332
  26 H :   -0.000138   -0.000175
  27 H :    0.022761    0.000026
  28 H :   -0.029381    0.000789
  29 H :   -0.028335   -0.000478

  Mayer bond orders larger than 0.100000
B(  0-O , 14-C ) :   1.4626 B(  1-O , 15-C ) :   1.3839 B(  2-O , 16-C ) :   1.5908
B(  3-O , 17-C ) :   1.6101 B(  4-N , 10-C ) :   0.7029 B(  4-N , 16-C ) :   1.0479
B(  4-N , 26-H ) :   1.1049 B(  5-N , 10-C ) :   0.2624 B(  5-N , 11-C ) :   0.2489
B(  5-N , 17-C ) :   1.1560 B(  5-N , 27-H ) :   1.0540 B(  6-N ,  8-C ) :  -0.1525
B(  6-N , 10-C ) :   0.1033 B(  6-N , 14-C ) :   1.0385 B(  6-N , 16-C ) :   0.9335
B(  6-N , 28-H ) :   1.1365 B(  7-N , 15-C ) :   1.0270 B(  7-N , 17-C ) :   1.0041
B(  7-N , 29-H ) :   1.0071 B(  8-C ,  9-C ) :   0.1100 B(  8-C , 10-C ) :   0.7088
B(  8-C , 11-C ) :   0.1174 B(  8-C , 12-C ) :   0.2368 B(  8-C , 14-C ) :   0.6284
B(  8-C , 16-C ) :   0.1145 B(  8-C , 18-H ) :  -0.1532 B(  8-C , 20-H ) :  -0.1256
B(  9-C , 10-C ) :   0.1526 B(  9-C , 11-C ) :   0.8161 B(  9-C , 13-C ) :   0.2728
B(  9-C , 15-C ) :   0.7101 B(  9-C , 19-H ) :  -0.1721 B(  9-C , 24-H ) :  -0.1207
B( 10-C , 11-C ) :   0.6088 B( 10-C , 18-H ) :   0.8399 B( 10-C , 19-H ) :  -0.1450
B( 11-C , 17-C ) :  -0.1855 B( 11-C , 19-H ) :   0.7310 B( 12-C , 20-H ) :   0.9914
B( 12-C , 21-H ) :   0.8781 B( 12-C , 22-H ) :   0.9806 B( 13-C , 23-H ) :   1.0494
B( 13-C , 24-H ) :   1.0233 B( 13-C , 25-H ) :   0.8034

Dispersion correction           -0.058395789
FINAL SINGLE POINT ENERGY      -908.775356894950

DIPOLE MOMENT
-------------

Method             : TDA/CIS
Type of density    : Electron Density
Level              : Relaxed density
State              :   2
Multiplicity       :   3
Irrep              :   0
Energy             :     0.0000000000000000 Eh
Relativity type    :
Basis              : AO
                                X                 Y                 Z
Electronic contribution:     -9.945718302      -4.580437962      -1.803978555
Nuclear contribution   :     12.126096697       5.332051409       3.441822002
                        -----------------------------------------
Total Dipole Moment    :      2.180378394       0.751613448       1.637843446
                        -----------------------------------------
Magnitude (a.u.)       :      2.828692962
Magnitude (Debye)      :      7.189966113

Rotational constants in cm-1:             0.022708             0.011257             0.010527
Rotational constants in MHz :           680.755110           337.480553           315.605965

                             ****ORCA TERMINATED NORMALLY****
TOTAL RUN TIME: 0 days 0 hours 4 minutes 54 seconds 781 msec
