                         Program Version 6.0.0  -   RELEASE  -
|  1> ! Engrad def2-TZVPPD wB97M-D3BJ
|  2> %pal nprocs 8 end%pal nprocs 64 end
|  3> %tddft
|  4>  Iroot 1 Nroots 3
|  5> sf true
|  6> end
|  7> *xyz 0 3
|  8> O   -0.70035949 0.35581574 -0.08461086
|  9> C   0.60530217 0.49319001 0.2114583
| 10> C   1.41171863 -0.73255241 0.10530588
| 11> H   0.70577515 0.95659773 1.25326413
| 12> H   1.08624374 1.26817226 -0.45395732
| 13> H   1.125096 -1.70247144 0.50040957
| 14> H   2.29163279 -0.54244149 -0.52052846
| 15> *
| 16>
| 17>                          ****END OF INPUT****

CARTESIAN COORDINATES (ANGSTROEM)
---------------------------------
  O     -0.700359    0.355816   -0.084611
  C      0.605302    0.493190    0.211458
  C      1.411719   -0.732552    0.105306
  H      0.705775    0.956598    1.253264
  H      1.086244    1.268172   -0.453957
  H      1.125096   -1.702471    0.500410
  H      2.291633   -0.542441   -0.520528

 Total Charge           Charge          ....    0
 Multiplicity           Mult            ....    3
 Number of Electrons    NEL             ....   24
 Basis Dimension        Dim             ....  182

ORBITAL ENERGIES
----------------
                 SPIN UP ORBITALS
  NO   OCC          E(Eh)            E(eV)
   0   1.0000     -19.387369      -527.5571
   1   1.0000     -10.416358      -283.4435
   2   1.0000     -10.368377      -282.1379
   3   1.0000      -1.176017       -32.0010
   4   1.0000      -0.880167       -23.9506
   5   1.0000      -0.726318       -19.7641
   6   1.0000      -0.617500       -16.8030
   7   1.0000      -0.589073       -16.0295
   8   1.0000      -0.555725       -15.1221
   9   1.0000      -0.520611       -14.1665
  10   1.0000      -0.434198       -11.8151
  11   1.0000      -0.409928       -11.1547
  12   1.0000      -0.325034        -8.8446
  13   0.0000       0.040494         1.1019
  14   0.0000       0.060884         1.6568
  15   0.0000       0.076380         2.0784
  16   0.0000       0.086847         2.3632
  17   0.0000       0.113480         3.0880

                 SPIN DOWN ORBITALS
  NO   OCC          E(Eh)            E(eV)
   0   1.0000     -19.363997      -526.9211
   1   1.0000     -10.417907      -283.4857
   2   1.0000     -10.355097      -281.7765
   3   1.0000      -1.123996       -30.5855
   4   1.0000      -0.847253       -23.0549
   5   1.0000      -0.698557       -19.0087
   6   1.0000      -0.587768       -15.9940
   7   1.0000      -0.546105       -14.8603
   8   1.0000      -0.536239       -14.5918
   9   1.0000      -0.488985       -13.3060
  10   1.0000      -0.380328       -10.3493
  11   0.0000      -0.057040        -1.5522
  12   0.0000      -0.002582        -0.0703
  13   0.0000       0.039914         1.0861
  14   0.0000       0.061041         1.6610
  15   0.0000       0.076132         2.0717

----------------------------------------------------------------------------------------------------
          SPIN FLIP ABSORPTION SPECTRUM VIA TRANSITION ELECTRIC DIPOLE MOMENTS
----------------------------------------------------------------------------------------------------
     Transition      Energy     Energy  Wavelength fosc(D2)      D2        DX        DY        DZ
                      (eV)      (cm-1)    (nm)                 (au**2)    (au)      (au)      (au)
----------------------------------------------------------------------------------------------------
  1-3A  ->  2-3A    0.219868    1773.4  5639.0   0.000115707   0.02148   0.09696  -0.10711  -0.02465
  1-3A  ->  3-3A    0.874013    7049.4  1418.6   0.017545419   0.81938  -0.85148   0.27485  -0.13719

Dispersion correction             ... done (  0.1 sec)

MULLIKEN ATOMIC CHARGES AND SPIN DENSITIES
------------------------------------------
   0 O :   -0.459163   -0.545704
   1 C :   -0.007018   -0.034356
   2 C :   -0.440700    0.484629
   3 H :    0.230035    0.095062
   4 H :    0.202733   -0.064510
   5 H :    0.269809    0.032313
   6 H :    0.204303    0.032566
Sum of atomic charges       :    0.0000000

LOEWDIN ATOMIC CHARGES AND SPIN DENSITIES
-----------------------------------------
   0 O :   -0.041701   -0.540348
   1 C :   -0.348220    0.017185
   2 C :    0.334195    0.435559
   3 H :    0.060212    0.042268
   4 H :    0.052458   -0.054320
   5 H :   -0.028381    0.050031
   6 H :   -0.028562    0.049625

  Mayer bond orders larger than 0.100000
B(  0-O ,  1-C ) :   1.0096 B(  0-O ,  2-C ) :   0.3318 B(  1-C ,  2-C ) :   0.8243
B(  1-C ,  3-H ) :   0.9412 B(  1-C ,  4-H ) :   0.9566 B(  2-C ,  5-H ) :   0.9299
B(  2-C ,  6-H ) :   0.9873

Dispersion correction           -0.005531407
FINAL SINGLE POINT ENERGY      -153.755844954417

DIPOLE MOMENT
-------------

Method             : TDA/CIS
Type of density    : Electron Density
Level              : Relaxed density
State              :   1
Multiplicity       :   3
Irrep              :   0
Energy             :     0.0000000000000000 Eh
Relativity type    :
Basis              : AO
                                X                 Y                 Z
Electronic contribution:     -1.950342759       0.063542749      -0.285289973
Nuclear contribution   :      3.313727635      -0.252875115       0.452982539
                        -----------------------------------------
Total Dipole Moment    :      1.363384877      -0.189332366       0.167692566
                        -----------------------------------------
Magnitude (a.u.)       :      1.386645544
Magnitude (Debye)      :      3.524572869

Rotational constants in cm-1:             1.458595             0.353372             0.311291
Rotational constants in MHz :         43727.588638         10593.822943          9332.282697

                             ****ORCA TERMINATED NORMALLY****
TOTAL RUN TIME: 0 days 0 hours 0 minutes 26 seconds 992 msec
