                         Program Version 6.0.0  -   RELEASE  -
|  1> ! Engrad def2-TZVPPD wB97M-D3BJ
|  2> %pal nprocs 8 end%pal nprocs 64 end
|  3> %tddft
|  4>  Iroot 2 Nroots 3
|  5> sf true
|  6> end
|  7> *xyz 0 3
|  8> O   1.24638245 -0.72967256 0.19677227
|  9> C   0.67182188 0.50340543 -0.03218501
| 10> C   -0.82123207 0.4336115 0.03528588
| 11> H   1.05082701 1.0144985 -0.91418289
| 12> H   1.04583058 1.30885994 0.70721003
| 13> H   -1.36287882 0.70331981 0.96756233
| 14> H   -1.3461037 0.1710202 -0.83721347
| 15> *
| 16>
| 17>                          ****END OF INPUT****

CARTESIAN COORDINATES (ANGSTROEM)
---------------------------------
  O      1.246382   -0.729673    0.196772
  C      0.671822    0.503405   -0.032185
  C     -0.821232    0.433611    0.035286
  H      1.050827    1.014498   -0.914183
  H      1.045831    1.308860    0.707210
  H     -1.362879    0.703320    0.967562
  H     -1.346104    0.171020   -0.837213

 Total Charge           Charge          ....    0
 Multiplicity           Mult            ....    3
 Number of Electrons    NEL             ....   24
 Basis Dimension        Dim             ....  182

ORBITAL ENERGIES
----------------
                 SPIN UP ORBITALS
  NO   OCC          E(Eh)            E(eV)
   0   1.0000     -19.390219      -527.6347
   1   1.0000     -10.416678      -283.4522
   2   1.0000     -10.366855      -282.0965
   3   1.0000      -1.163587       -31.6628
   4   1.0000      -0.874177       -23.7876
   5   1.0000      -0.738054       -20.0835
   6   1.0000      -0.609544       -16.5865
   7   1.0000      -0.584286       -15.8992
   8   1.0000      -0.548221       -14.9178
   9   1.0000      -0.524263       -14.2659
  10   1.0000      -0.425689       -11.5836
  11   1.0000      -0.416005       -11.3201
  12   1.0000      -0.329642        -8.9700
  13   0.0000       0.039743         1.0815
  14   0.0000       0.060947         1.6585
  15   0.0000       0.076652         2.0858
  16   0.0000       0.087897         2.3918
  17   0.0000       0.115984         3.1561

                 SPIN DOWN ORBITALS
  NO   OCC          E(Eh)            E(eV)
   0   1.0000     -19.365910      -526.9732
   1   1.0000     -10.418243      -283.4948
   2   1.0000     -10.353764      -281.7402
   3   1.0000      -1.108605       -30.1667
   4   1.0000      -0.841693       -22.9036
   5   1.0000      -0.712225       -19.3806
   6   1.0000      -0.577226       -15.7071
   7   1.0000      -0.557250       -15.1635
   8   1.0000      -0.524927       -14.2840
   9   1.0000      -0.478284       -13.0148
  10   1.0000      -0.383582       -10.4378
  11   0.0000      -0.058044        -1.5795
  12   0.0000      -0.002953        -0.0804
  13   0.0000       0.038680         1.0525
  14   0.0000       0.060992         1.6597
  15   0.0000       0.076241         2.0746

----------------------------------------------------------------------------------------------------
          SPIN FLIP ABSORPTION SPECTRUM VIA TRANSITION ELECTRIC DIPOLE MOMENTS
----------------------------------------------------------------------------------------------------
     Transition      Energy     Energy  Wavelength fosc(D2)      D2        DX        DY        DZ
                      (eV)      (cm-1)    (nm)                 (au**2)    (au)      (au)      (au)
----------------------------------------------------------------------------------------------------
  1-3A  ->  2-3A    0.212704    1715.6  5829.0   0.000036635   0.00703  -0.06796  -0.01917  -0.04521
  1-3A  ->  3-3A    0.948533    7650.4  1307.1   0.001657705   0.07133   0.22102  -0.14095  -0.05116

Dispersion correction             ... done (  0.1 sec)

MULLIKEN ATOMIC CHARGES AND SPIN DENSITIES
------------------------------------------
   0 O :   -0.334157    0.775996
   1 C :   -0.118839    0.085637
   2 C :   -0.164729   -0.774128
   3 H :    0.194602    0.013323
   4 H :    0.189226    0.043915
   5 H :    0.114675   -0.069871
   6 H :    0.119223   -0.074872
Sum of atomic charges       :   -0.0000000

LOEWDIN ATOMIC CHARGES AND SPIN DENSITIES
-----------------------------------------
   0 O :    0.043744    0.727785
   1 C :   -0.268888    0.010714
   2 C :    0.298989   -0.630058
   3 H :    0.013337    0.024435
   4 H :    0.063143    0.038824
   5 H :   -0.047605   -0.079494
   6 H :   -0.102720   -0.092206

  Mayer bond orders larger than 0.100000
B(  0-O ,  1-C ) :   1.0038 B(  1-C ,  2-C ) :   0.8577 B(  1-C ,  3-H ) :   0.9411
B(  1-C ,  4-H ) :   0.9464 B(  2-C ,  5-H ) :   1.0353 B(  2-C ,  6-H ) :   1.0329

Dispersion correction           -0.005474770
FINAL SINGLE POINT ENERGY      -153.744861274434

DIPOLE MOMENT
-------------

Method             : TDA/CIS
Type of density    : Electron Density
Level              : Relaxed density
State              :   2
Multiplicity       :   3
Irrep              :   0
Energy             :     0.0000000000000000 Eh
Relativity type    :
Basis              : AO
                                X                 Y                 Z
Electronic contribution:      1.818279921      -2.003014230       0.183568347
Nuclear contribution   :     -2.055155697       2.749431205      -0.334792971
                        -----------------------------------------
Total Dipole Moment    :     -0.236875775       0.746416975      -0.151224624
                        -----------------------------------------
Magnitude (a.u.)       :      0.797569634
Magnitude (Debye)      :      2.027260899

Rotational constants in cm-1:             1.339241             0.349593             0.309095
Rotational constants in MHz :         40149.433383         10480.525608          9266.439188

                             ****ORCA TERMINATED NORMALLY****
TOTAL RUN TIME: 0 days 0 hours 0 minutes 26 seconds 735 msec
