                         Program Version 6.0.0  -   RELEASE  -
|  1> ! Engrad def2-TZVPPD wB97M-D3BJ
|  2> %pal nprocs 8 end%pal nprocs 64 end
|  3> %tddft
|  4>  Iroot 2 Nroots 3
|  5> sf true
|  6> end
|  7> *xyz 0 3
|  8> O   0.5717889 0.81824109 -0.75346266
|  9> C   0.45495881 -0.43389995 -0.1584513
| 10> C   0.22006447 -0.27491144 1.25268816
| 11> H   1.25900854 -0.99494607 -0.66597828
| 12> H   -0.40111716 -0.92064343 -0.62262662
| 13> H   1.08955282 -0.54158487 1.9038247
| 14> H   -0.39281862 0.63959732 1.59386413
| 15> *
| 16>
| 17>                          ****END OF INPUT****

CARTESIAN COORDINATES (ANGSTROEM)
---------------------------------
  O      0.571789    0.818241   -0.753463
  C      0.454959   -0.433900   -0.158451
  C      0.220064   -0.274911    1.252688
  H      1.259009   -0.994946   -0.665978
  H     -0.401117   -0.920643   -0.622627
  H      1.089553   -0.541585    1.903825
  H     -0.392819    0.639597    1.593864

 Total Charge           Charge          ....    0
 Multiplicity           Mult            ....    3
 Number of Electrons    NEL             ....   24
 Basis Dimension        Dim             ....  182

ORBITAL ENERGIES
----------------
                 SPIN UP ORBITALS
  NO   OCC          E(Eh)            E(eV)
   0   1.0000     -19.384482      -527.4786
   1   1.0000     -10.409343      -283.2526
   2   1.0000     -10.376074      -282.3473
   3   1.0000      -1.162659       -31.6375
   4   1.0000      -0.880244       -23.9527
   5   1.0000      -0.738685       -20.1006
   6   1.0000      -0.614578       -16.7235
   7   1.0000      -0.580784       -15.8039
   8   1.0000      -0.550676       -14.9846
   9   1.0000      -0.504847       -13.7376
  10   1.0000      -0.430923       -11.7260
  11   1.0000      -0.419866       -11.4251
  12   1.0000      -0.331390        -9.0176
  13   0.0000       0.041624         1.1326
  14   0.0000       0.060571         1.6482
  15   0.0000       0.077887         2.1194
  16   0.0000       0.086907         2.3648
  17   0.0000       0.113022         3.0755

                 SPIN DOWN ORBITALS
  NO   OCC          E(Eh)            E(eV)
   0   1.0000     -19.359874      -526.8090
   1   1.0000     -10.410319      -283.2792
   2   1.0000     -10.362706      -281.9836
   3   1.0000      -1.108498       -30.1638
   4   1.0000      -0.846616       -23.0376
   5   1.0000      -0.714100       -19.4317
   6   1.0000      -0.583913       -15.8891
   7   1.0000      -0.540859       -14.7175
   8   1.0000      -0.528829       -14.3902
   9   1.0000      -0.470214       -12.7952
  10   1.0000      -0.385298       -10.4845
  11   0.0000      -0.049975        -1.3599
  12   0.0000      -0.006150        -0.1673
  13   0.0000       0.040912         1.1133
  14   0.0000       0.061806         1.6818
  15   0.0000       0.078178         2.1273

----------------------------------------------------------------------------------------------------
          SPIN FLIP ABSORPTION SPECTRUM VIA TRANSITION ELECTRIC DIPOLE MOMENTS
----------------------------------------------------------------------------------------------------
     Transition      Energy     Energy  Wavelength fosc(D2)      D2        DX        DY        DZ
                      (eV)      (cm-1)    (nm)                 (au**2)    (au)      (au)      (au)
----------------------------------------------------------------------------------------------------
  1-3A  ->  2-3A    0.258078    2081.5  4804.1   0.000163723   0.02589   0.04710   0.01041  -0.15352
  1-3A  ->  3-3A    1.009235    8140.0  1228.5   0.003148579   0.12734  -0.02087  -0.30050   0.19132

Dispersion correction             ... done (  0.2 sec)

MULLIKEN ATOMIC CHARGES AND SPIN DENSITIES
------------------------------------------
   0 O :   -0.330386    0.766050
   1 C :    0.118239    0.197163
   2 C :   -0.528411   -0.837461
   3 H :    0.243234    0.015180
   4 H :    0.139219   -0.016623
   5 H :    0.142476   -0.072180
   6 H :    0.215629   -0.052129
Sum of atomic charges       :   -0.0000000

LOEWDIN ATOMIC CHARGES AND SPIN DENSITIES
-----------------------------------------
   0 O :    0.044202    0.718027
   1 C :   -0.281743   -0.016331
   2 C :    0.238294   -0.593797
   3 H :    0.033057    0.005980
   4 H :    0.022930    0.016852
   5 H :   -0.050605   -0.072681
   6 H :   -0.006135   -0.058048

  Mayer bond orders larger than 0.100000
B(  0-O ,  1-C ) :   0.8454 B(  0-O ,  2-C ) :   0.1013 B(  1-C ,  2-C ) :   0.6503
B(  1-C ,  3-H ) :   0.9494 B(  1-C ,  4-H ) :   0.9217 B(  2-C ,  5-H ) :   1.0930
B(  2-C ,  6-H ) :   1.0433

Dispersion correction           -0.005544837
FINAL SINGLE POINT ENERGY      -153.734787984482

DIPOLE MOMENT
-------------

Method             : TDA/CIS
Type of density    : Electron Density
Level              : Relaxed density
State              :   2
Multiplicity       :   3
Irrep              :   0
Energy             :     0.0000000000000000 Eh
Relativity type    :
Basis              : AO
                                X                 Y                 Z
Electronic contribution:      0.168613671       1.420771817      -1.659282045
Nuclear contribution   :     -0.142793176      -1.927897423       1.777863421
                        -----------------------------------------
Total Dipole Moment    :      0.025820495      -0.507125606       0.118581376
                        -----------------------------------------
Magnitude (a.u.)       :      0.521444744
Magnitude (Debye)      :      1.325407207

Rotational constants in cm-1:             1.298430             0.380780             0.323617
Rotational constants in MHz :         38925.962137         11415.504972          9701.796957

                             ****ORCA TERMINATED NORMALLY****
TOTAL RUN TIME: 0 days 0 hours 0 minutes 26 seconds 851 msec
