                         Program Version 6.0.0  -   RELEASE  -
|  1> ! Opt wB97M-D3BJ def2-TZVPPD
|  2> %pal nprocs 8 end %pal nprocs 64 end
|  3> %geom
|  4> Constraints
|  5>     {A 2 1 0 114.54545454545455 C }
|  6> end
|  7> MaxIter 500
|  8> end
|  9> *xyz 0 1
| 10> O   -0.0007 0.8141 0.0
| 11> C   0.7509 -0.4065 0.0
| 12> C   -0.7502 -0.4076 0.0
| 13> H   1.2625 -0.6786 0.9136
| 14> H   1.2625 -0.6787 -0.9136
| 15> H   -1.2614 -0.6806 -0.9136
| 16> H   -1.2614 -0.6805 0.9136
| 17> *
| 18>
| 19>                          ****END OF INPUT****
 Total Charge           Charge          ....    0
 Multiplicity           Mult            ....    1
 Number of Electrons    NEL             ....   24
Dispersion correction           -0.005790740
FINAL SINGLE POINT ENERGY      -153.654684215410
Dispersion correction             ... done (  0.1 sec)
Dispersion correction           -0.005675904
FINAL SINGLE POINT ENERGY      -153.724152662961
Dispersion correction             ... done (  0.1 sec)
Dispersion correction           -0.005606321
FINAL SINGLE POINT ENERGY      -153.743958459103
Dispersion correction             ... done (  0.1 sec)
FINAL SINGLE POINT ENERGY      -153.754366663897
FINAL SINGLE POINT ENERGY      -153.758676263100
FINAL SINGLE POINT ENERGY      -153.760035260152
FINAL SINGLE POINT ENERGY      -153.760668678577
FINAL SINGLE POINT ENERGY      -153.761739375810
FINAL SINGLE POINT ENERGY      -153.762924880795
FINAL SINGLE POINT ENERGY      -153.764218958404
FINAL SINGLE POINT ENERGY      -153.922356777603
FINAL SINGLE POINT ENERGY      -153.924874044532
FINAL SINGLE POINT ENERGY      -153.926159630731
FINAL SINGLE POINT ENERGY      -153.926364975339
FINAL SINGLE POINT ENERGY      -153.926755387122
FINAL SINGLE POINT ENERGY      -153.926867332196
FINAL SINGLE POINT ENERGY      -153.926958066437
Dispersion correction             ... done (  0.1 sec)
Dispersion correction           -0.005559248
FINAL SINGLE POINT ENERGY      -153.926991499560
Dispersion correction             ... done (  0.1 sec)
Dispersion correction           -0.005557852
FINAL SINGLE POINT ENERGY      -153.926993966985
Dispersion correction             ... done (  0.1 sec)
                    ***********************HURRAY********************

CARTESIAN COORDINATES (ANGSTROEM)
---------------------------------
  O      0.624667    1.203202    0.319707
  C      0.613217    0.157257   -0.283250
  C     -0.455577   -0.814209    0.164437
  H     -0.003674   -1.544360    0.838903
  H      1.332035   -0.090641   -1.078858
  H     -0.894730   -1.373064   -0.662215
  H     -1.213737   -0.256585    0.701276

 Multiplicity           Mult            ....    1
 Number of Electrons    NEL             ....   24
 Basis Dimension        Dim             ....  182

ORBITAL ENERGIES
----------------

  NO   OCC          E(Eh)            E(eV)
   0   2.0000     -19.336841      -526.1822
   1   2.0000     -10.443702      -284.1876
   2   2.0000     -10.352052      -281.6937
   3   2.0000      -1.186390       -32.2833
   4   2.0000      -0.872316       -23.7369
   5   2.0000      -0.709107       -19.2958
   6   2.0000      -0.598425       -16.2840
   7   2.0000      -0.556646       -15.1471
   8   2.0000      -0.546402       -14.8684
   9   2.0000      -0.506956       -13.7950
  10   2.0000      -0.470831       -12.8120
  11   2.0000      -0.367100        -9.9893
  12   0.0000       0.039145         1.0652
  13   0.0000       0.048692         1.3250
  14   0.0000       0.058833         1.6009
  15   0.0000       0.084036         2.2867
  16   0.0000       0.087494         2.3808

MULLIKEN ATOMIC CHARGES
-----------------------
   0 O :   -0.471112
   1 C :    0.234104
   2 C :   -0.672724
   3 H :    0.195728
   4 H :    0.242440
   5 H :    0.237671
   6 H :    0.233893
Sum of atomic charges:    0.0000000

LOEWDIN ATOMIC CHARGES
----------------------
   0 O :    0.051594
   1 C :   -0.196215
   2 C :    0.163657
   3 H :   -0.011102
   4 H :    0.022682
   5 H :   -0.018893
   6 H :   -0.011724

  Mayer bond orders larger than 0.100000
B(  0-O ,  1-C ) :   1.7759 B(  1-C ,  2-C ) :   0.7964 B(  1-C ,  4-H ) :   0.9777
B(  2-C ,  3-H ) :   0.9793 B(  2-C ,  5-H ) :   1.0023 B(  2-C ,  6-H ) :   0.9590

Dispersion correction           -0.005557110
FINAL SINGLE POINT ENERGY      -153.926995167337

DIPOLE MOMENT
-------------

Method             : SCF
Type of density    : Electron Density
Multiplicity       :   1
Irrep              :   0
Energy             :  -153.9214380568985234 Eh
Relativity type    :
Basis              : AO
                                X                 Y                 Z
Electronic contribution:      1.540141730       2.759750548       0.068421903
Nuclear contribution   :     -1.672027267      -3.735065277      -0.481825384
                        -----------------------------------------
Total Dipole Moment    :     -0.131885537      -0.975314729      -0.413403480
                        -----------------------------------------
Magnitude (a.u.)       :      1.067490072
Magnitude (Debye)      :      2.713344129

Rotational constants in cm-1:             1.661442             0.368662             0.319397
Rotational constants in MHz :         49808.785876         11052.211921          9575.266803

                             ****ORCA TERMINATED NORMALLY****
TOTAL RUN TIME: 0 days 0 hours 7 minutes 57 seconds 373 msec
