                         Program Version 6.0.0  -   RELEASE  -
|  1> ! Engrad def2-TZVPPD wB97M-D3BJ
|  2> %pal nprocs 8 end%pal nprocs 64 end
|  3> %tddft
|  4>  Iroot 2 Nroots 3
|  5> sf true
|  6> end
|  7> *xyz 0 3
|  8> O   3.43658862 -0.07683578 -1.04750455
|  9> O   -1.50026901 0.67276151 -2.47329092
| 10> O   0.29803914 -3.17766871 -0.44255436
| 11> O   -3.63810406 -0.36464679 1.43363426
| 12> N   0.24545298 -1.36091723 0.86111903
| 13> N   -1.72048331 0.74072721 1.52020438
| 14> N   1.6244285 -1.3900417 -0.91201659
| 15> N   -2.56608241 0.02070495 -0.54549653
| 16> C   1.87977364 0.30540085 0.73024601
| 17> C   -0.42622598 1.35126433 -0.53324028
| 18> C   0.57634674 -0.02793987 1.31261548
| 19> C   -0.44131201 1.13138157 0.91276973
| 20> C   2.69088237 1.40080907 1.36891365
| 21> C   0.61295033 2.04495837 -1.35379661
| 22> C   2.43041887 -0.36921572 -0.50027325
| 23> C   -1.55627685 0.65934697 -1.23523975
| 24> C   0.66144882 -2.08188552 -0.19254437
| 25> C   -2.6600203 0.08413659 0.8300349
| 26> H   0.54828058 -0.02986323 2.43546955
| 27> H   -0.0025444 1.9709483 1.56282903
| 28> H   3.57416901 1.58932682 0.8656806
| 29> H   2.38087392 2.36992359 1.49394271
| 30> H   3.07155887 1.08910151 2.35335312
| 31> H   0.19426176 2.66946094 -2.13930242
| 32> H   1.29365249 2.55483321 -0.76331873
| 33> H   1.27098698 1.28392526 -1.85390794
| 34> H   -0.33742359 -1.83754152 1.55317942
| 35> H   -1.65742065 0.55079972 2.49705875
| 36> H   2.10614946 -1.98478632 -1.53065331
| 37> H   -3.35355439 -0.35275082 -1.04889197
| 38> *
| 39>
| 40>                          ****END OF INPUT****

CARTESIAN COORDINATES (ANGSTROEM)
---------------------------------
  O      3.436589   -0.076836   -1.047505
  O     -1.500269    0.672762   -2.473291
  O      0.298039   -3.177669   -0.442554
  O     -3.638104   -0.364647    1.433634
  N      0.245453   -1.360917    0.861119
  N     -1.720483    0.740727    1.520204
  N      1.624428   -1.390042   -0.912017
  N     -2.566082    0.020705   -0.545497
  C      1.879774    0.305401    0.730246
  C     -0.426226    1.351264   -0.533240
  C      0.576347   -0.027940    1.312615
  C     -0.441312    1.131382    0.912770
  C      2.690882    1.400809    1.368914
  C      0.612950    2.044958   -1.353797
  C      2.430419   -0.369216   -0.500273
  C     -1.556277    0.659347   -1.235240
  C      0.661449   -2.081886   -0.192544
  C     -2.660020    0.084137    0.830035
  H      0.548281   -0.029863    2.435470
  H     -0.002544    1.970948    1.562829
  H      3.574169    1.589327    0.865681
  H      2.380874    2.369924    1.493943
  H      3.071559    1.089102    2.353353
  H      0.194262    2.669461   -2.139302
  H      1.293652    2.554833   -0.763319
  H      1.270987    1.283925   -1.853908
  H     -0.337424   -1.837542    1.553179
  H     -1.657421    0.550800    2.497059
  H      2.106149   -1.984786   -1.530653
  H     -3.353554   -0.352751   -1.048892

 Total Charge           Charge          ....    0
 Multiplicity           Mult            ....    3
 Number of Electrons    NEL             ....  132
 Basis Dimension        Dim             ....  882

ORBITAL ENERGIES
----------------
                 SPIN UP ORBITALS
  NO   OCC          E(Eh)            E(eV)
   0   1.0000     -19.341753      -526.3159
   1   1.0000     -19.328582      -525.9574
   2   1.0000     -19.324715      -525.8522
   3   1.0000     -19.310966      -525.4781
   4   1.0000     -14.573784      -396.5728
   5   1.0000     -14.567457      -396.4007
   6   1.0000     -14.560783      -396.2190
   7   1.0000     -14.558674      -396.1616
   8   1.0000     -10.505656      -285.8734
   9   1.0000     -10.504885      -285.8524
  10   1.0000     -10.487980      -285.3924
  11   1.0000     -10.483929      -285.2822
  12   1.0000     -10.450713      -284.3784
  13   1.0000     -10.449982      -284.3585
  14   1.0000     -10.423235      -283.6306
  15   1.0000     -10.420234      -283.5490
  16   1.0000     -10.370200      -282.1875
  17   1.0000     -10.363626      -282.0086
  18   1.0000      -1.240451       -33.7544
  19   1.0000      -1.221387       -33.2356
  20   1.0000      -1.214971       -33.0611
  21   1.0000      -1.183290       -32.1990
  22   1.0000      -1.126932       -30.6654
  23   1.0000      -1.102741       -30.0071
  24   1.0000      -1.077369       -29.3167
  25   1.0000      -1.066323       -29.0161
  26   1.0000      -0.987223       -26.8637
  27   1.0000      -0.948688       -25.8151
  28   1.0000      -0.893600       -24.3161
  29   1.0000      -0.851930       -23.1822
  30   1.0000      -0.828430       -22.5427
  31   1.0000      -0.806439       -21.9443
  32   1.0000      -0.796501       -21.6739
  33   1.0000      -0.787138       -21.4191
  34   1.0000      -0.708657       -19.2835
  35   1.0000      -0.699549       -19.0357
  36   1.0000      -0.696677       -18.9575
  37   1.0000      -0.688515       -18.7355
  38   1.0000      -0.656302       -17.8589
  39   1.0000      -0.640918       -17.4403
  40   1.0000      -0.625765       -17.0279
  41   1.0000      -0.610518       -16.6130
  42   1.0000      -0.602785       -16.4026
  43   1.0000      -0.589212       -16.0333
  44   1.0000      -0.582003       -15.8371
  45   1.0000      -0.573369       -15.6022
  46   1.0000      -0.567179       -15.4337
  47   1.0000      -0.563390       -15.3306
  48   1.0000      -0.559966       -15.2375
  49   1.0000      -0.554957       -15.1012
  50   1.0000      -0.552057       -15.0222
  51   1.0000      -0.540661       -14.7121
  52   1.0000      -0.531666       -14.4674
  53   1.0000      -0.527905       -14.3650
  54   1.0000      -0.512461       -13.9448
  55   1.0000      -0.502098       -13.6628
  56   1.0000      -0.497694       -13.5429
  57   1.0000      -0.432981       -11.7820
  58   1.0000      -0.419181       -11.4065
  59   1.0000      -0.411975       -11.2104
  60   1.0000      -0.406049       -11.0492
  61   1.0000      -0.401181       -10.9167
  62   1.0000      -0.397392       -10.8136
  63   1.0000      -0.389050       -10.5866
  64   1.0000      -0.382877       -10.4186
  65   1.0000      -0.346185        -9.4202
  66   1.0000      -0.322672        -8.7803
  67   0.0000       0.005115         0.1392
  68   0.0000       0.026661         0.7255
  69   0.0000       0.032453         0.8831
  70   0.0000       0.035673         0.9707
  71   0.0000       0.054255         1.4763

                 SPIN DOWN ORBITALS
  NO   OCC          E(Eh)            E(eV)
   0   1.0000     -19.338717      -526.2332
   1   1.0000     -19.324565      -525.8482
   2   1.0000     -19.324427      -525.8444
   3   1.0000     -19.310912      -525.4766
   4   1.0000     -14.573388      -396.5620
   5   1.0000     -14.567124      -396.3916
   6   1.0000     -14.560744      -396.2180
   7   1.0000     -14.558123      -396.1467
   8   1.0000     -10.505677      -285.8740
   9   1.0000     -10.504931      -285.8537
  10   1.0000     -10.488867      -285.4166
  11   1.0000     -10.485063      -285.3131
  12   1.0000     -10.449811      -284.3538
  13   1.0000     -10.449616      -284.3485
  14   1.0000     -10.411888      -283.3219
  15   1.0000     -10.408411      -283.2273
  16   1.0000     -10.370733      -282.2020
  17   1.0000     -10.364267      -282.0260
  18   1.0000      -1.238504       -33.7014
  19   1.0000      -1.218543       -33.1583
  20   1.0000      -1.213717       -33.0269
  21   1.0000      -1.178326       -32.0639
  22   1.0000      -1.124461       -30.5981
  23   1.0000      -1.100979       -29.9591
  24   1.0000      -1.075553       -29.2673
  25   1.0000      -1.065108       -28.9831
  26   1.0000      -0.974059       -26.5055
  27   1.0000      -0.931400       -25.3447
  28   1.0000      -0.888038       -24.1647
  29   1.0000      -0.846840       -23.0437
  30   1.0000      -0.819843       -22.3091
  31   1.0000      -0.802289       -21.8314
  32   1.0000      -0.795054       -21.6345
  33   1.0000      -0.785103       -21.3637
  34   1.0000      -0.702539       -19.1170
  35   1.0000      -0.693389       -18.8681
  36   1.0000      -0.689383       -18.7591
  37   1.0000      -0.683360       -18.5952
  38   1.0000      -0.644812       -17.5462
  39   1.0000      -0.636106       -17.3093
  40   1.0000      -0.622386       -16.9360
  41   1.0000      -0.603714       -16.4279
  42   1.0000      -0.598385       -16.2829
  43   1.0000      -0.583464       -15.8769
  44   1.0000      -0.574864       -15.6429
  45   1.0000      -0.566906       -15.4263
  46   1.0000      -0.561317       -15.2742
  47   1.0000      -0.556966       -15.1558
  48   1.0000      -0.553261       -15.0550
  49   1.0000      -0.549271       -14.9464
  50   1.0000      -0.540282       -14.7018
  51   1.0000      -0.529339       -14.4041
  52   1.0000      -0.525670       -14.3042
  53   1.0000      -0.522009       -14.2046
  54   1.0000      -0.506717       -13.7885
  55   1.0000      -0.496345       -13.5062
  56   1.0000      -0.491838       -13.3836
  57   1.0000      -0.428453       -11.6588
  58   1.0000      -0.411471       -11.1967
  59   1.0000      -0.403894       -10.9905
  60   1.0000      -0.401165       -10.9163
  61   1.0000      -0.397093       -10.8055
  62   1.0000      -0.388442       -10.5700
  63   1.0000      -0.380913       -10.3652
  64   1.0000      -0.375210       -10.2100
  65   0.0000      -0.059739        -1.6256
  66   0.0000      -0.049983        -1.3601
  67   0.0000       0.004888         0.1330
  68   0.0000       0.026240         0.7140
  69   0.0000       0.032165         0.8753

----------------------------------------------------------------------------------------------------
          SPIN FLIP ABSORPTION SPECTRUM VIA TRANSITION ELECTRIC DIPOLE MOMENTS
----------------------------------------------------------------------------------------------------
     Transition      Energy     Energy  Wavelength fosc(D2)      D2        DX        DY        DZ
                      (eV)      (cm-1)    (nm)                 (au**2)    (au)      (au)      (au)
----------------------------------------------------------------------------------------------------
  1-3A  ->  2-3A    0.062609     505.0  19803.0   0.000012484   0.00814   0.08587  -0.02400  -0.01373
  1-3A  ->  3-3A    2.115914   17066.0   586.0   0.000756314   0.01459   0.01860  -0.00261   0.11932

Dispersion correction             ... done (  0.1 sec)

MULLIKEN ATOMIC CHARGES AND SPIN DENSITIES
------------------------------------------
   0 O :   -0.617970   -0.082517
   1 O :   -0.680449    0.121093
   2 O :   -0.627358   -0.002278
   3 O :   -0.694627   -0.003356
   4 N :   -0.194553    0.003638
   5 N :   -0.205796    0.007362
   6 N :    0.062999   -0.012807
   7 N :    0.046303    0.013090
   8 C :    0.935287    0.306473
   9 C :   -0.135464    0.379940
  10 C :   -0.188982   -0.357551
  11 C :    0.824401    0.030363
  12 C :   -1.686100   -0.049398
  13 C :   -1.514616   -0.005796
  14 C :   -0.103753   -0.461161
  15 C :    0.402467    0.020533
  16 C :    0.488460    0.023010
  17 C :    0.431936    0.003465
  18 H :    0.667746   -0.034040
  19 H :    0.488324    0.031717
  20 H :    0.314366   -0.005138
  21 H :    0.354082    0.000945
  22 H :    0.436505    0.010903
  23 H :    0.376169    0.015373
  24 H :    0.351596    0.002503
  25 H :    0.270791    0.043374
  26 H :    0.030811   -0.001902
  27 H :    0.076053   -0.000758
  28 H :    0.030920    0.003510
  29 H :    0.060456   -0.000590
Sum of atomic charges       :   -0.0000000

LOEWDIN ATOMIC CHARGES AND SPIN DENSITIES
-----------------------------------------
   0 O :    0.122618   -0.071393
   1 O :    0.067553    0.107146
   2 O :    0.135679   -0.002622
   3 O :    0.055336   -0.003172
   4 N :    0.278174   -0.001044
   5 N :    0.282643   -0.005088
   6 N :    0.344450   -0.016945
   7 N :    0.339599    0.010772
   8 C :    0.010526   -0.394006
   9 C :   -0.004927    0.390938
  10 C :   -0.138668   -0.017555
  11 C :   -0.110833    0.028714
  12 C :    0.213407   -0.057105
  13 C :    0.214673    0.045589
  14 C :   -0.462498   -0.064765
  15 C :   -0.353555    0.049736
  16 C :   -0.513601   -0.000397
  17 C :   -0.494153   -0.000810
  18 H :    0.081628   -0.006225
  19 H :    0.088879    0.010584
  20 H :   -0.043867    0.000755
  21 H :   -0.051388   -0.009741
  22 H :    0.026783   -0.016342
  23 H :    0.014984    0.008174
  24 H :   -0.049560   -0.001605
  25 H :    0.028373    0.018356
  26 H :   -0.003721   -0.000256
  27 H :   -0.036818   -0.001144
  28 H :   -0.038125   -0.001441
  29 H :   -0.003591    0.000893

  Mayer bond orders larger than 0.100000
B(  0-O , 14-C ) :   1.4850 B(  1-O , 15-C ) :   1.4156 B(  2-O , 16-C ) :   1.5615
B(  3-O , 17-C ) :   1.5334 B(  4-N ,  8-C ) :   0.1211 B(  4-N ,  9-C ) :   0.1061
B(  4-N , 10-C ) :   0.5031 B(  4-N , 16-C ) :   1.0066 B(  4-N , 26-H ) :   1.1571
B(  5-N , 11-C ) :   0.3056 B(  5-N , 17-C ) :   1.1296 B(  5-N , 27-H ) :   1.0710
B(  6-N ,  8-C ) :  -0.1123 B(  6-N , 14-C ) :   1.0112 B(  6-N , 16-C ) :   0.9664
B(  6-N , 28-H ) :   1.0548 B(  7-N , 15-C ) :   1.0695 B(  7-N , 17-C ) :   0.9908
B(  7-N , 29-H ) :   1.0940 B(  8-C ,  9-C ) :   0.2262 B(  8-C , 10-C ) :   0.9266
B(  8-C , 11-C ) :   0.1089 B(  8-C , 12-C ) :   0.3041 B(  8-C , 13-C ) :  -0.1108
B(  8-C , 20-H ) :  -0.1215 B(  9-C , 10-C ) :   0.2734 B(  9-C , 13-C ) :   0.2847
B(  9-C , 15-C ) :   0.8566 B(  9-C , 19-H ) :  -0.2754 B(  9-C , 24-H ) :  -0.1412
B( 10-C , 11-C ) :   0.3457 B( 10-C , 14-C ) :   0.2088 B( 10-C , 18-H ) :   0.5764
B( 11-C , 13-C ) :  -0.1841 B( 11-C , 17-C ) :  -0.1647 B( 11-C , 18-H ) :  -0.1176
B( 11-C , 19-H ) :   0.9314 B( 12-C , 14-C ) :  -0.1034 B( 12-C , 20-H ) :   1.0815
B( 12-C , 21-H ) :   0.8221 B( 12-C , 22-H ) :   0.8037 B( 13-C , 14-C ) :   0.1976
B( 13-C , 23-H ) :   0.8944 B( 13-C , 24-H ) :   1.0608 B( 13-C , 25-H ) :   0.9202

Dispersion correction           -0.059080047
FINAL SINGLE POINT ENERGY      -908.758496793975

DIPOLE MOMENT
-------------

Method             : TDA/CIS
Type of density    : Electron Density
Level              : Relaxed density
State              :   2
Multiplicity       :   3
Irrep              :   0
Energy             :     0.0000000000000000 Eh
Relativity type    :
Basis              : AO
                                X                 Y                 Z
Electronic contribution:     -7.549028226      -8.146242138      -3.419017470
Nuclear contribution   :      8.577976859       9.704111210       5.326338119
                        -----------------------------------------
Total Dipole Moment    :      1.028948633       1.557869072       1.907320649
                        -----------------------------------------
Magnitude (a.u.)       :      2.669000449
Magnitude (Debye)      :      6.784060002

Rotational constants in cm-1:             0.021324             0.012410             0.011704
Rotational constants in MHz :           639.282587           372.029036           350.877310

                             ****ORCA TERMINATED NORMALLY****
TOTAL RUN TIME: 0 days 0 hours 10 minutes 1 seconds 834 msec
