                         Program Version 6.0.0  -   RELEASE  -
|  1> ! Engrad wB97M-D3BJ def2-TZVPPD
|  2> %pal nprocs 8 end%pal nprocs 16 end
|  3> %tddft nroots 2 Iroot 1
|  4>  sf true
|  5> end
|  6> *xyz 0 3
|  7> O   0.48429078077469 0.96214922920508 -0.00031382625198
|  8> C   0.7451317945828 -0.35453674556207 -3.204591442e-05
|  9> C   -0.66015545147635 -0.5686492311492 0.00010881546297
| 10> H   1.27062938734209 -0.72265228869112 0.88917423025784
| 11> H   1.27032152177068 -0.7231071212168 -0.88924001104351
| 12> H   -1.21060412816829 -0.55025334769093 -0.92698676250771
| 13> H   -1.21044837869534 -0.54996260919635 0.92728959999681
| 14> *
| 15>
| 16>                          ****END OF INPUT****

CARTESIAN COORDINATES (ANGSTROEM)
---------------------------------
  O      0.484291    0.962149   -0.000314
  C      0.745132   -0.354537   -0.000032
  C     -0.660155   -0.568649    0.000109
  H      1.270629   -0.722652    0.889174
  H      1.270322   -0.723107   -0.889240
  H     -1.210604   -0.550253   -0.926987
  H     -1.210448   -0.549963    0.927290

 Total Charge           Charge          ....    0
 Multiplicity           Mult            ....    3
 Number of Electrons    NEL             ....   24
 Basis Dimension        Dim             ....  182

ORBITAL ENERGIES
----------------
                 SPIN UP ORBITALS
  NO   OCC          E(Eh)            E(eV)
   0   1.0000     -19.411382      -528.2106
   1   1.0000     -10.407247      -283.1956
   2   1.0000     -10.337477      -281.2971
   3   1.0000      -1.218424       -33.1550
   4   1.0000      -0.865276       -23.5454
   5   1.0000      -0.742090       -20.1933
   6   1.0000      -0.647149       -17.6098
   7   1.0000      -0.610172       -16.6036
   8   1.0000      -0.550438       -14.9782
   9   1.0000      -0.505066       -13.7435
  10   1.0000      -0.455243       -12.3878
  11   1.0000      -0.440860       -11.9964
  12   1.0000      -0.263599        -7.1729
  13   0.0000       0.040777         1.1096
  14   0.0000       0.063722         1.7340
  15   0.0000       0.072677         1.9776
  16   0.0000       0.085795         2.3346
  17   0.0000       0.116410         3.1677

                 SPIN DOWN ORBITALS
  NO   OCC          E(Eh)            E(eV)
   0   1.0000     -19.382494      -527.4245
   1   1.0000     -10.408381      -283.2264
   2   1.0000     -10.324937      -280.9558
   3   1.0000      -1.157371       -31.4937
   4   1.0000      -0.830958       -22.6115
   5   1.0000      -0.721046       -19.6206
   6   1.0000      -0.603426       -16.4200
   7   1.0000      -0.573535       -15.6067
   8   1.0000      -0.526042       -14.3143
   9   1.0000      -0.472722       -12.8634
  10   1.0000      -0.392341       -10.6761
  11   0.0000      -0.077380        -2.1056
  12   0.0000       0.036043         0.9808
  13   0.0000       0.039316         1.0698
  14   0.0000       0.063994         1.7414
  15   0.0000       0.071169         1.9366

----------------------------------------------------------------------------------------------------
          SPIN FLIP ABSORPTION SPECTRUM VIA TRANSITION ELECTRIC DIPOLE MOMENTS
----------------------------------------------------------------------------------------------------
     Transition      Energy     Energy  Wavelength fosc(D2)      D2        DX        DY        DZ
                      (eV)      (cm-1)    (nm)                 (au**2)    (au)      (au)      (au)
----------------------------------------------------------------------------------------------------
  1-3A  ->  2-3A    2.743324   22126.4   451.9   0.000968371   0.01441  -0.00008  -0.00006   0.12003

Dispersion correction             ... done (  0.0 sec)

MULLIKEN ATOMIC CHARGES AND SPIN DENSITIES
------------------------------------------
   0 O :   -0.508322   -0.102288
   1 C :   -0.143112   -0.060622
   2 C :   -0.305523    0.052881
   3 H :    0.233022    0.033792
   4 H :    0.233018    0.033811
   5 H :    0.245477    0.021210
   6 H :    0.245440    0.021217
Sum of atomic charges       :   -0.0000000

LOEWDIN ATOMIC CHARGES AND SPIN DENSITIES
-----------------------------------------
   0 O :   -0.058618   -0.128967
   1 C :   -0.336861   -0.003824
   2 C :    0.337983    0.103689
   3 H :    0.029941    0.005774
   4 H :    0.029939    0.005780
   5 H :   -0.001190    0.008775
   6 H :   -0.001195    0.008773

  Mayer bond orders larger than 0.100000
B(  0-O ,  1-C ) :   0.7305 B(  0-O ,  2-C ) :   0.9020 B(  1-C ,  2-C ) :   0.7888
B(  1-C ,  3-H ) :   1.0280 B(  1-C ,  4-H ) :   1.0281 B(  2-C ,  5-H ) :   0.9369
B(  2-C ,  6-H ) :   0.9369

Dispersion correction           -0.005608197
FINAL SINGLE POINT ENERGY      -153.814272771709

DIPOLE MOMENT
-------------

Method             : TDA/CIS
Type of density    : Electron Density
Level              : Relaxed density
State              :   1
Multiplicity       :   3
Irrep              :   0
Energy             :     0.0000000000000000 Eh
Relativity type    :
Basis              : AO
                                X                 Y                 Z
Electronic contribution:      0.096444594       1.227988519      -0.000228893
Nuclear contribution   :     -0.640613602      -2.523041033       0.000547863
                        -----------------------------------------
Total Dipole Moment    :     -0.544169008      -1.295052514       0.000318971
                        -----------------------------------------
Magnitude (a.u.)       :      1.404735215
Magnitude (Debye)      :      3.570553161

Rotational constants in cm-1:             1.035247             0.522888             0.402626
Rotational constants in MHz :         31035.934692         15675.790888         12070.415544

                             ****ORCA TERMINATED NORMALLY****
TOTAL RUN TIME: 0 days 0 hours 0 minutes 16 seconds 536 msec
