                         Program Version 6.0.0  -   RELEASE  -
|  1> ! Engrad def2-TZVPPD wB97M-D3BJ
|  2> %pal nprocs 8 end%pal nprocs 64 end
|  3> %tddft
|  4>  Iroot 1 Nroots 3
|  5> sf true
|  6> end
|  7> *xyz 0 3
|  8> O   3.71439864 0.23262146 0.47057625
|  9> O   -0.9706106 0.75505286 -2.86987639
| 10> O   0.6579915 -2.40929465 -1.25681879
| 11> O   -3.74084207 -1.0369808 0.20739678
| 12> N   0.20474682 -1.45097192 0.7376939
| 13> N   -2.16088908 0.39930804 0.95947527
| 14> N   1.98397786 -0.78772124 -0.47696407
| 15> N   -2.17649239 -0.36076961 -1.31303626
| 16> C   1.57777166 0.20203054 1.61642784
| 17> C   -0.46285336 1.22709682 -0.57985464
| 18> C   0.20394504 -0.23068852 1.50310028
| 19> C   -0.78790605 0.8345457 0.83450444
| 20> C   1.90979651 1.28791094 2.64403553
| 21> C   0.49461849 2.22877394 -0.93440101
| 22> C   2.53523352 -0.08348933 0.57066293
| 23> C   -1.13182228 0.53146869 -1.65302274
| 24> C   0.88235189 -1.56730854 -0.4543403
| 25> C   -2.78015876 -0.39589037 -0.01792416
| 26> H   -0.25559076 -0.42755669 2.49275775
| 27> H   -0.78167776 1.76432033 1.34776367
| 28> H   1.4897124 1.20527728 3.56830198
| 29> H   2.97040412 1.57171061 2.71199298
| 30> H   1.41856071 2.24098574 2.17343316
| 31> H   1.54610842 1.84309207 -0.77519018
| 32> H   0.40191657 2.43622269 -2.00283499
| 33> H   0.2628172 3.23542321 -0.37005928
| 34> H   -0.65571401 -1.95347074 0.6746715
| 35> H   -2.5602927 0.41585812 1.88013503
| 36> H   2.59904757 -0.96212269 -1.20500732
| 37> H   -2.5289674 -0.92858402 -2.07462364
| 38> *
| 39>
| 40>                          ****END OF INPUT****

CARTESIAN COORDINATES (ANGSTROEM)
---------------------------------
  O      3.714399    0.232621    0.470576
  O     -0.970611    0.755053   -2.869876
  O      0.657991   -2.409295   -1.256819
  O     -3.740842   -1.036981    0.207397
  N      0.204747   -1.450972    0.737694
  N     -2.160889    0.399308    0.959475
  N      1.983978   -0.787721   -0.476964
  N     -2.176492   -0.360770   -1.313036
  C      1.577772    0.202031    1.616428
  C     -0.462853    1.227097   -0.579855
  C      0.203945   -0.230689    1.503100
  C     -0.787906    0.834546    0.834504
  C      1.909797    1.287911    2.644036
  C      0.494618    2.228774   -0.934401
  C      2.535234   -0.083489    0.570663
  C     -1.131822    0.531469   -1.653023
  C      0.882352   -1.567309   -0.454340
  C     -2.780159   -0.395890   -0.017924
  H     -0.255591   -0.427557    2.492758
  H     -0.781678    1.764320    1.347764
  H      1.489712    1.205277    3.568302
  H      2.970404    1.571711    2.711993
  H      1.418561    2.240986    2.173433
  H      1.546108    1.843092   -0.775190
  H      0.401917    2.436223   -2.002835
  H      0.262817    3.235423   -0.370059
  H     -0.655714   -1.953471    0.674671
  H     -2.560293    0.415858    1.880135
  H      2.599048   -0.962123   -1.205007
  H     -2.528967   -0.928584   -2.074624

 Total Charge           Charge          ....    0
 Multiplicity           Mult            ....    3
 Number of Electrons    NEL             ....  132
 Basis Dimension        Dim             ....  882

ORBITAL ENERGIES
----------------
                 SPIN UP ORBITALS
  NO   OCC          E(Eh)            E(eV)
   0   1.0000     -19.341096      -526.2980
   1   1.0000     -19.333478      -526.0907
   2   1.0000     -19.327337      -525.9236
   3   1.0000     -19.321184      -525.7562
   4   1.0000     -14.563345      -396.2888
   5   1.0000     -14.560271      -396.2051
   6   1.0000     -14.556516      -396.1029
   7   1.0000     -14.552640      -395.9975
   8   1.0000     -10.510276      -285.9992
   9   1.0000     -10.497399      -285.6488
  10   1.0000     -10.487064      -285.3675
  11   1.0000     -10.479768      -285.1690
  12   1.0000     -10.447287      -284.2851
  13   1.0000     -10.443330      -284.1774
  14   1.0000     -10.426673      -283.7242
  15   1.0000     -10.421026      -283.5705
  16   1.0000     -10.385462      -282.6028
  17   1.0000     -10.380135      -282.4578
  18   1.0000      -1.236002       -33.6333
  19   1.0000      -1.229356       -33.4525
  20   1.0000      -1.203982       -32.7620
  21   1.0000      -1.186763       -32.2935
  22   1.0000      -1.127035       -30.6682
  23   1.0000      -1.102833       -30.0096
  24   1.0000      -1.068958       -29.0878
  25   1.0000      -1.049518       -28.5588
  26   1.0000      -0.984680       -26.7945
  27   1.0000      -0.966288       -26.2940
  28   1.0000      -0.885993       -24.1091
  29   1.0000      -0.850408       -23.1408
  30   1.0000      -0.828312       -22.5395
  31   1.0000      -0.807619       -21.9764
  32   1.0000      -0.794354       -21.6155
  33   1.0000      -0.776512       -21.1300
  34   1.0000      -0.702202       -19.1079
  35   1.0000      -0.693013       -18.8578
  36   1.0000      -0.689638       -18.7660
  37   1.0000      -0.677996       -18.4492
  38   1.0000      -0.665666       -18.1137
  39   1.0000      -0.638534       -17.3754
  40   1.0000      -0.630629       -17.1603
  41   1.0000      -0.604616       -16.4524
  42   1.0000      -0.597166       -16.2497
  43   1.0000      -0.589643       -16.0450
  44   1.0000      -0.578044       -15.7294
  45   1.0000      -0.569615       -15.5000
  46   1.0000      -0.569351       -15.4928
  47   1.0000      -0.566279       -15.4092
  48   1.0000      -0.564469       -15.3600
  49   1.0000      -0.560572       -15.2539
  50   1.0000      -0.556513       -15.1435
  51   1.0000      -0.542296       -14.7566
  52   1.0000      -0.532174       -14.4812
  53   1.0000      -0.521220       -14.1831
  54   1.0000      -0.516385       -14.0515
  55   1.0000      -0.512984       -13.9590
  56   1.0000      -0.485491       -13.2109
  57   1.0000      -0.429331       -11.6827
  58   1.0000      -0.424163       -11.5421
  59   1.0000      -0.416609       -11.3365
  60   1.0000      -0.408609       -11.1188
  61   1.0000      -0.401751       -10.9322
  62   1.0000      -0.398483       -10.8433
  63   1.0000      -0.391234       -10.6460
  64   1.0000      -0.383536       -10.4365
  65   1.0000      -0.358066        -9.7435
  66   1.0000      -0.326378        -8.8812
  67   0.0000       0.007438         0.2024
  68   0.0000       0.029640         0.8066
  69   0.0000       0.033574         0.9136
  70   0.0000       0.036140         0.9834
  71   0.0000       0.053247         1.4489

                 SPIN DOWN ORBITALS
  NO   OCC          E(Eh)            E(eV)
   0   1.0000     -19.336680      -526.1778
   1   1.0000     -19.328132      -525.9452
   2   1.0000     -19.327204      -525.9200
   3   1.0000     -19.320966      -525.7502
   4   1.0000     -14.562972      -396.2786
   5   1.0000     -14.559863      -396.1940
   6   1.0000     -14.555813      -396.0838
   7   1.0000     -14.552560      -395.9953
   8   1.0000     -10.510324      -286.0005
   9   1.0000     -10.497470      -285.6507
  10   1.0000     -10.488052      -285.3944
  11   1.0000     -10.480949      -285.2011
  12   1.0000     -10.447149      -284.2814
  13   1.0000     -10.442692      -284.1601
  14   1.0000     -10.415458      -283.4190
  15   1.0000     -10.410115      -283.2736
  16   1.0000     -10.386019      -282.6179
  17   1.0000     -10.380802      -282.4760
  18   1.0000      -1.234699       -33.5979
  19   1.0000      -1.228885       -33.4397
  20   1.0000      -1.198717       -32.6188
  21   1.0000      -1.179359       -32.0920
  22   1.0000      -1.124008       -30.5858
  23   1.0000      -1.100224       -29.9386
  24   1.0000      -1.067000       -29.0345
  25   1.0000      -1.047555       -28.5054
  26   1.0000      -0.971285       -26.4300
  27   1.0000      -0.949011       -25.8239
  28   1.0000      -0.880851       -23.9692
  29   1.0000      -0.845326       -23.0025
  30   1.0000      -0.821091       -22.3430
  31   1.0000      -0.801468       -21.8090
  32   1.0000      -0.792677       -21.5698
  33   1.0000      -0.774960       -21.0877
  34   1.0000      -0.695807       -18.9339
  35   1.0000      -0.688535       -18.7360
  36   1.0000      -0.683870       -18.6091
  37   1.0000      -0.671864       -18.2824
  38   1.0000      -0.652575       -17.7575
  39   1.0000      -0.635137       -17.2830
  40   1.0000      -0.626544       -17.0491
  41   1.0000      -0.599838       -16.3224
  42   1.0000      -0.590757       -16.0753
  43   1.0000      -0.585695       -15.9376
  44   1.0000      -0.571513       -15.5517
  45   1.0000      -0.565937       -15.3999
  46   1.0000      -0.561849       -15.2887
  47   1.0000      -0.559628       -15.2282
  48   1.0000      -0.555769       -15.1232
  49   1.0000      -0.551437       -15.0054
  50   1.0000      -0.548804       -14.9337
  51   1.0000      -0.530250       -14.4288
  52   1.0000      -0.524873       -14.2825
  53   1.0000      -0.512069       -13.9341
  54   1.0000      -0.511305       -13.9133
  55   1.0000      -0.499290       -13.5864
  56   1.0000      -0.481005       -13.0888
  57   1.0000      -0.425471       -11.5777
  58   1.0000      -0.420762       -11.4495
  59   1.0000      -0.410184       -11.1617
  60   1.0000      -0.396485       -10.7889
  61   1.0000      -0.394274       -10.7287
  62   1.0000      -0.388030       -10.5588
  63   1.0000      -0.384685       -10.4678
  64   1.0000      -0.373763       -10.1706
  65   0.0000      -0.079285        -2.1575
  66   0.0000      -0.051341        -1.3971
  67   0.0000       0.006872         0.1870
  68   0.0000       0.029365         0.7991
  69   0.0000       0.033278         0.9056

----------------------------------------------------------------------------------------------------
          SPIN FLIP ABSORPTION SPECTRUM VIA TRANSITION ELECTRIC DIPOLE MOMENTS
----------------------------------------------------------------------------------------------------
     Transition      Energy     Energy  Wavelength fosc(D2)      D2        DX        DY        DZ
                      (eV)      (cm-1)    (nm)                 (au**2)    (au)      (au)      (au)
----------------------------------------------------------------------------------------------------
  1-3A  ->  2-3A    0.200281    1615.4  6190.5   0.000096364   0.01964   0.12788  -0.01625   0.05497
  1-3A  ->  3-3A    2.066447   16667.0   600.0   0.000838181   0.01656   0.05248   0.05317  -0.10476

Dispersion correction             ... done (  0.1 sec)

MULLIKEN ATOMIC CHARGES AND SPIN DENSITIES
------------------------------------------
   0 O :   -0.681939    0.000652
   1 O :   -0.703941    0.006200
   2 O :   -0.629808   -0.001364
   3 O :   -0.588381    0.000058
   4 N :   -0.270723   -0.012940
   5 N :   -0.259299   -0.005785
   6 N :    0.158821   -0.008732
   7 N :    0.085472   -0.000629
   8 C :    0.287091    0.309543
   9 C :    0.298119    0.355712
  10 C :    0.397790   -0.175843
  11 C :    0.047088   -0.167951
  12 C :   -1.336986    0.001014
  13 C :   -1.217625   -0.004959
  14 C :    0.148056   -0.155021
  15 C :    0.216709   -0.222751
  16 C :    0.390917    0.023586
  17 C :    0.354538    0.009960
  18 H :    0.557346   -0.004041
  19 H :    0.848870    0.010973
  20 H :    0.352213    0.002292
  21 H :    0.296261   -0.001820
  22 H :    0.297355    0.012379
  23 H :    0.236207    0.016353
  24 H :    0.299571   -0.001406
  25 H :    0.337088    0.010136
  26 H :    0.048873   -0.000676
  27 H :    0.061349    0.001158
  28 H :   -0.068937    0.001884
  29 H :    0.037907    0.002018
Sum of atomic charges       :   -0.0000000

LOEWDIN ATOMIC CHARGES AND SPIN DENSITIES
-----------------------------------------
   0 O :    0.078966    0.000448
   1 O :    0.056740    0.004554
   2 O :    0.134184   -0.000841
   3 O :    0.117035   -0.000020
   4 N :    0.289556   -0.001023
   5 N :    0.277640   -0.001249
   6 N :    0.348958   -0.002632
   7 N :    0.328486   -0.003305
   8 C :   -0.017518    0.008710
   9 C :   -0.054823    0.009731
  10 C :   -0.112526   -0.004545
  11 C :   -0.094571   -0.004234
  12 C :    0.223766    0.000277
  13 C :    0.167715    0.001437
  14 C :   -0.414263   -0.003099
  15 C :   -0.375301   -0.003839
  16 C :   -0.527116   -0.000613
  17 C :   -0.479944   -0.000532
  18 H :    0.079113   -0.000739
  19 H :    0.019712   -0.000674
  20 H :   -0.069234    0.000191
  21 H :    0.009291    0.000038
  22 H :    0.051479    0.000845
  23 H :    0.029110    0.000955
  24 H :   -0.005613    0.000015
  25 H :    0.070694    0.000690
  26 H :   -0.045371   -0.000016
  27 H :   -0.034456   -0.000106
  28 H :   -0.042313   -0.000174
  29 H :   -0.009394   -0.000252

  Mayer bond orders larger than 0.100000
B(  0-O , 14-C ) :   1.4199 B(  1-O ,  9-C ) :   0.1260 B(  1-O , 15-C ) :   1.1184
B(  2-O , 16-C ) :   1.4863 B(  3-O , 17-C ) :   1.6540 B(  4-N ,  8-C ) :   0.2983
B(  4-N , 10-C ) :   0.1801 B(  4-N , 11-C ) :   0.1079 B(  4-N , 16-C ) :   0.9838
B(  4-N , 18-H ) :  -0.1224 B(  4-N , 26-H ) :   1.0094 B(  5-N ,  9-C ) :   0.2752
B(  5-N , 10-C ) :   0.1720 B(  5-N , 17-C ) :   1.1539 B(  5-N , 19-H ) :  -0.1051
B(  5-N , 27-H ) :   1.0955 B(  6-N ,  8-C ) :  -0.1185 B(  6-N , 10-C ) :   0.1141
B(  6-N , 14-C ) :   1.0409 B(  6-N , 16-C ) :   0.9119 B(  6-N , 28-H ) :   1.1592
B(  7-N ,  9-C ) :  -0.1184 B(  7-N , 11-C ) :   0.1175 B(  7-N , 15-C ) :   1.1173
B(  7-N , 17-C ) :   0.9078 B(  7-N , 29-H ) :   1.1070 B(  8-C , 10-C ) :   0.4338
B(  8-C , 11-C ) :   0.3677 B(  8-C , 12-C ) :   0.5327 B(  8-C , 14-C ) :   0.7153
B(  8-C , 16-C ) :   0.1018 B(  8-C , 18-H ) :  -0.1632 B(  9-C , 11-C ) :   0.3213
B(  9-C , 13-C ) :   0.4919 B(  9-C , 15-C ) :   0.8111 B(  9-C , 16-C ) :   0.1021
B(  9-C , 19-H ) :  -0.2536 B( 10-C , 11-C ) :   0.5982 B( 10-C , 12-C ) :  -0.1290
B( 10-C , 16-C ) :  -0.1148 B( 10-C , 18-H ) :   0.7686 B( 11-C , 12-C ) :   0.1018
B( 11-C , 13-C ) :  -0.1779 B( 11-C , 17-C ) :  -0.1934 B( 11-C , 18-H ) :  -0.1192
B( 11-C , 19-H ) :   0.4427 B( 12-C , 20-H ) :   0.9890 B( 12-C , 21-H ) :   1.0117
B( 12-C , 22-H ) :   0.8718 B( 13-C , 23-H ) :   0.9011 B( 13-C , 24-H ) :   0.9873
B( 13-C , 25-H ) :   0.9410

Dispersion correction           -0.059775052
FINAL SINGLE POINT ENERGY      -908.777045218564

DIPOLE MOMENT
-------------

Method             : TDA/CIS
Type of density    : Electron Density
Level              : Relaxed density
State              :   1
Multiplicity       :   3
Irrep              :   0
Energy             :     0.0000000000000000 Eh
Relativity type    :
Basis              : AO
                                X                 Y                 Z
Electronic contribution:     -3.938129276      -8.749439429      -5.779151971
Nuclear contribution   :      3.749789590      10.249342325       8.100879636
                        -----------------------------------------
Total Dipole Moment    :     -0.188339686       1.499902897       2.321727665
                        -----------------------------------------
Magnitude (a.u.)       :      2.770487302
Magnitude (Debye)      :      7.042019082

Rotational constants in cm-1:             0.022650             0.012367             0.011668
Rotational constants in MHz :           679.037983           370.749487           349.802262

                             ****ORCA TERMINATED NORMALLY****
TOTAL RUN TIME: 0 days 0 hours 6 minutes 36 seconds 687 msec
