                         Program Version 6.0.0  -   RELEASE  -
|  1> ! Engrad wB97M-D3BJ def2-TZVPPD
|  2> %pal nprocs 8 end%pal nprocs 16 end
|  3> %tddft nroots 2 Iroot 1
|  4>  sf true
|  5> end
|  6> *xyz 0 3
|  7> O   0.3952884048632 0.93858810190458 -0.00035002635657
|  8> C   0.73740113818427 -0.36344694583807 -0.00016962662893
|  9> C   -0.66801227411835 -0.55104848819001 -0.00019090196044
| 10> H   1.26976139917956 -0.70852442312272 0.89217361346027
| 11> H   1.27021745934313 -0.70896949650443 -0.89207427741608
| 12> H   -1.21555898620871 -0.56246400074213 -0.92792600339021
| 13> H   -1.21397829746363 -0.56086896207479 0.92853722229196
| 14> *
| 15>
| 16>                          ****END OF INPUT****

CARTESIAN COORDINATES (ANGSTROEM)
---------------------------------
  O      0.395288    0.938588   -0.000350
  C      0.737401   -0.363447   -0.000170
  C     -0.668012   -0.551048   -0.000191
  H      1.269761   -0.708524    0.892174
  H      1.270217   -0.708969   -0.892074
  H     -1.215559   -0.562464   -0.927926
  H     -1.213978   -0.560869    0.928537

 Total Charge           Charge          ....    0
 Multiplicity           Mult            ....    3
 Number of Electrons    NEL             ....   24
 Basis Dimension        Dim             ....  182

ORBITAL ENERGIES
----------------
                 SPIN UP ORBITALS
  NO   OCC          E(Eh)            E(eV)
   0   1.0000     -19.419141      -528.4217
   1   1.0000     -10.408133      -283.2197
   2   1.0000     -10.334743      -281.2227
   3   1.0000      -1.229671       -33.4610
   4   1.0000      -0.862281       -23.4639
   5   1.0000      -0.745834       -20.2952
   6   1.0000      -0.652539       -17.7565
   7   1.0000      -0.616255       -16.7692
   8   1.0000      -0.549776       -14.9602
   9   1.0000      -0.501970       -13.6593
  10   1.0000      -0.462163       -12.5761
  11   1.0000      -0.447281       -12.1711
  12   1.0000      -0.242770        -6.6061
  13   0.0000       0.040348         1.0979
  14   0.0000       0.063654         1.7321
  15   0.0000       0.072282         1.9669
  16   0.0000       0.085573         2.3286
  17   0.0000       0.115378         3.1396

                 SPIN DOWN ORBITALS
  NO   OCC          E(Eh)            E(eV)
   0   1.0000     -19.389024      -527.6022
   1   1.0000     -10.409161      -283.2477
   2   1.0000     -10.322432      -280.8877
   3   1.0000      -1.166692       -31.7473
   4   1.0000      -0.827756       -22.5244
   5   1.0000      -0.725514       -19.7422
   6   1.0000      -0.606744       -16.5104
   7   1.0000      -0.579459       -15.7679
   8   1.0000      -0.523135       -14.2352
   9   1.0000      -0.471454       -12.8289
  10   1.0000      -0.397957       -10.8290
  11   0.0000      -0.082581        -2.2471
  12   0.0000       0.037905         1.0314
  13   0.0000       0.045320         1.2332
  14   0.0000       0.063255         1.7213
  15   0.0000       0.070117         1.9080

----------------------------------------------------------------------------------------------------
          SPIN FLIP ABSORPTION SPECTRUM VIA TRANSITION ELECTRIC DIPOLE MOMENTS
----------------------------------------------------------------------------------------------------
     Transition      Energy     Energy  Wavelength fosc(D2)      D2        DX        DY        DZ
                      (eV)      (cm-1)    (nm)                 (au**2)    (au)      (au)      (au)
----------------------------------------------------------------------------------------------------
  1-3A  ->  2-3A    3.455141   27867.6   358.8   0.001552090   0.01834  -0.00017  -0.00039  -0.13541

Dispersion correction             ... done (  0.0 sec)

MULLIKEN ATOMIC CHARGES AND SPIN DENSITIES
------------------------------------------
   0 O :   -0.481359   -0.034552
   1 C :   -0.144123   -0.066627
   2 C :   -0.328962    0.007552
   3 H :    0.227172    0.031414
   4 H :    0.227367    0.031373
   5 H :    0.249878    0.015371
   6 H :    0.250027    0.015468
Sum of atomic charges       :    0.0000000

LOEWDIN ATOMIC CHARGES AND SPIN DENSITIES
-----------------------------------------
   0 O :   -0.058076   -0.068276
   1 C :   -0.301349   -0.007131
   2 C :    0.300148    0.058288
   3 H :    0.029865    0.005433
   4 H :    0.029869    0.005413
   5 H :   -0.000220    0.003136
   6 H :   -0.000236    0.003136

  Mayer bond orders larger than 0.100000
B(  0-O ,  1-C ) :   0.7354 B(  0-O ,  2-C ) :   0.9143 B(  1-C ,  2-C ) :   0.7909
B(  1-C ,  3-H ) :   1.0317 B(  1-C ,  4-H ) :   1.0313 B(  2-C ,  5-H ) :   0.9346
B(  2-C ,  6-H ) :   0.9347

Dispersion correction           -0.005447669
FINAL SINGLE POINT ENERGY      -153.826383433899

DIPOLE MOMENT
-------------

Method             : TDA/CIS
Type of density    : Electron Density
Level              : Relaxed density
State              :   1
Multiplicity       :   3
Irrep              :   0
Energy             :     0.0000000000000000 Eh
Relativity type    :
Basis              : AO
                                X                 Y                 Z
Electronic contribution:      0.072516137       1.262995059      -0.001214867
Nuclear contribution   :     -0.512196530      -2.495692230       0.001449460
                        -----------------------------------------
Total Dipole Moment    :     -0.439680392      -1.232697172       0.000234593
                        -----------------------------------------
Magnitude (a.u.)       :      1.308763240
Magnitude (Debye)      :      3.326611787

Rotational constants in cm-1:             0.990811             0.561650             0.417833
Rotational constants in MHz :         29703.772834         16837.845402         12526.308861

                             ****ORCA TERMINATED NORMALLY****
TOTAL RUN TIME: 0 days 0 hours 0 minutes 17 seconds 653 msec
