                         Program Version 6.0.0  -   RELEASE  -
|  1> ! Engrad def2-TZVPPD wB97M-D3BJ
|  2> %pal nprocs 8 end%pal nprocs 64 end
|  3> %tddft Nroots 2 Iroot 1
|  4> sf true
|  5> end
|  6> *xyz 0 3
|  7> O   3.79014886 0.43993894 -0.06275803
|  8> O   -1.27873604 1.15896471 -2.44493471
|  9> O   0.93016729 -2.89427476 -1.21084539
| 10> O   -3.6113633 -1.21568673 0.59647498
| 11> N   0.27180297 -1.43486497 0.39079613
| 12> N   -2.0073976 0.20798628 1.3451306
| 13> N   2.37469629 -1.20986859 -0.56067056
| 14> N   -2.18331919 -0.28039938 -0.94267847
| 15> C   1.76906798 0.3423214 1.1213717
| 16> C   -0.81649965 1.51196601 -0.18522544
| 17> C   0.43384788 -0.25991404 1.21987932
| 18> C   -0.71137168 0.7910387 1.13014276
| 19> C   2.14233321 1.49685186 1.93788764
| 20> C   -0.55372652 2.93934637 -0.26122722
| 21> C   2.72100657 -0.09423907 0.15743124
| 22> C   -1.42158058 0.83738603 -1.29776165
| 23> C   1.16711034 -1.93416864 -0.52833288
| 24> C   -2.67960346 -0.47557653 0.34179626
| 25> H   0.3450252 -0.58193549 2.26216874
| 26> H   -0.51334263 1.50934064 1.90617934
| 27> H   3.23462948 1.55391498 1.99131498
| 28> H   1.77974239 2.38456535 1.46843568
| 29> H   1.75439016 1.42326064 2.94633058
| 30> H   -1.35863976 3.43917192 0.31064186
| 31> H   0.38420814 3.18800086 0.21809562
| 32> H   -0.61409937 3.25699635 -1.32924547
| 33> H   -0.61647905 -1.9313585 0.45589913
| 34> H   -2.26810657 -0.13562847 2.26576162
| 35> H   3.06478236 -1.49986412 -1.2806072
| 36> H   -2.66852338 -0.832675 -1.68814803
| 37> *
| 38>
| 39>                          ****END OF INPUT****

CARTESIAN COORDINATES (ANGSTROEM)
---------------------------------
  O      3.790149    0.439939   -0.062758
  O     -1.278736    1.158965   -2.444935
  O      0.930167   -2.894275   -1.210845
  O     -3.611363   -1.215687    0.596475
  N      0.271803   -1.434865    0.390796
  N     -2.007398    0.207986    1.345131
  N      2.374696   -1.209869   -0.560671
  N     -2.183319   -0.280399   -0.942678
  C      1.769068    0.342321    1.121372
  C     -0.816500    1.511966   -0.185225
  C      0.433848   -0.259914    1.219879
  C     -0.711372    0.791039    1.130143
  C      2.142333    1.496852    1.937888
  C     -0.553727    2.939346   -0.261227
  C      2.721007   -0.094239    0.157431
  C     -1.421581    0.837386   -1.297762
  C      1.167110   -1.934169   -0.528333
  C     -2.679603   -0.475577    0.341796
  H      0.345025   -0.581935    2.262169
  H     -0.513343    1.509341    1.906179
  H      3.234629    1.553915    1.991315
  H      1.779742    2.384565    1.468436
  H      1.754390    1.423261    2.946331
  H     -1.358640    3.439172    0.310642
  H      0.384208    3.188001    0.218096
  H     -0.614099    3.256996   -1.329245
  H     -0.616479   -1.931358    0.455899
  H     -2.268107   -0.135628    2.265762
  H      3.064782   -1.499864   -1.280607
  H     -2.668523   -0.832675   -1.688148

 Total Charge           Charge          ....    0
 Multiplicity           Mult            ....    3
 Number of Electrons    NEL             ....  132
 Basis Dimension        Dim             ....  882

ORBITAL ENERGIES
----------------
                 SPIN UP ORBITALS
  NO   OCC          E(Eh)            E(eV)
   0   1.0000     -19.338970      -526.2401
   1   1.0000     -19.327993      -525.9414
   2   1.0000     -19.327971      -525.9408
   3   1.0000     -19.319975      -525.7233
   4   1.0000     -14.569029      -396.4434
   5   1.0000     -14.567852      -396.4114
   6   1.0000     -14.560993      -396.2248
   7   1.0000     -14.558031      -396.1442
   8   1.0000     -10.512592      -286.0622
   9   1.0000     -10.506500      -285.8964
  10   1.0000     -10.481677      -285.2209
  11   1.0000     -10.474216      -285.0179
  12   1.0000     -10.445263      -284.2300
  13   1.0000     -10.443595      -284.1847
  14   1.0000     -10.414506      -283.3931
  15   1.0000     -10.413966      -283.3784
  16   1.0000     -10.377895      -282.3969
  17   1.0000     -10.372721      -282.2561
  18   1.0000      -1.226676       -33.3795
  19   1.0000      -1.218167       -33.1480
  20   1.0000      -1.206926       -32.8421
  21   1.0000      -1.197800       -32.5938
  22   1.0000      -1.123283       -30.5661
  23   1.0000      -1.099338       -29.9145
  24   1.0000      -1.067342       -29.0439
  25   1.0000      -1.052735       -28.6464
  26   1.0000      -0.990160       -26.9436
  27   1.0000      -0.966369       -26.2962
  28   1.0000      -0.896804       -24.4033
  29   1.0000      -0.847045       -23.0493
  30   1.0000      -0.833628       -22.6842
  31   1.0000      -0.804044       -21.8792
  32   1.0000      -0.784466       -21.3464
  33   1.0000      -0.782005       -21.2795
  34   1.0000      -0.704984       -19.1836
  35   1.0000      -0.699316       -19.0293
  36   1.0000      -0.686629       -18.6841
  37   1.0000      -0.678104       -18.4521
  38   1.0000      -0.657273       -17.8853
  39   1.0000      -0.638897       -17.3853
  40   1.0000      -0.626885       -17.0584
  41   1.0000      -0.606061       -16.4918
  42   1.0000      -0.598448       -16.2846
  43   1.0000      -0.590574       -16.0703
  44   1.0000      -0.582091       -15.8395
  45   1.0000      -0.575595       -15.6627
  46   1.0000      -0.567365       -15.4388
  47   1.0000      -0.563627       -15.3371
  48   1.0000      -0.562938       -15.3183
  49   1.0000      -0.562518       -15.3069
  50   1.0000      -0.556342       -15.1388
  51   1.0000      -0.544593       -14.8191
  52   1.0000      -0.534084       -14.5332
  53   1.0000      -0.530247       -14.4287
  54   1.0000      -0.520912       -14.1747
  55   1.0000      -0.509377       -13.8609
  56   1.0000      -0.494088       -13.4448
  57   1.0000      -0.426932       -11.6174
  58   1.0000      -0.425765       -11.5857
  59   1.0000      -0.413299       -11.2464
  60   1.0000      -0.404925       -11.0186
  61   1.0000      -0.401773       -10.9328
  62   1.0000      -0.397377       -10.8132
  63   1.0000      -0.390618       -10.6293
  64   1.0000      -0.382698       -10.4137
  65   1.0000      -0.340952        -9.2778
  66   1.0000      -0.333356        -9.0711
  67   0.0000       0.007831         0.2131
  68   0.0000       0.028653         0.7797
  69   0.0000       0.033142         0.9018
  70   0.0000       0.034109         0.9281
  71   0.0000       0.054759         1.4901

                 SPIN DOWN ORBITALS
  NO   OCC          E(Eh)            E(eV)
   0   1.0000     -19.334524      -526.1192
   1   1.0000     -19.327766      -525.9352
   2   1.0000     -19.323824      -525.8280
   3   1.0000     -19.319957      -525.7228
   4   1.0000     -14.568728      -396.4352
   5   1.0000     -14.567179      -396.3931
   6   1.0000     -14.560106      -396.2006
   7   1.0000     -14.558049      -396.1446
   8   1.0000     -10.512605      -286.0625
   9   1.0000     -10.506553      -285.8978
  10   1.0000     -10.482699      -285.2488
  11   1.0000     -10.475145      -285.0432
  12   1.0000     -10.444750      -284.2161
  13   1.0000     -10.443660      -284.1864
  14   1.0000     -10.403462      -283.0926
  15   1.0000     -10.402382      -283.0632
  16   1.0000     -10.378421      -282.4112
  17   1.0000     -10.373263      -282.2708
  18   1.0000      -1.223749       -33.2999
  19   1.0000      -1.216283       -33.0967
  20   1.0000      -1.202701       -32.7272
  21   1.0000      -1.193343       -32.4725
  22   1.0000      -1.120383       -30.4872
  23   1.0000      -1.096972       -29.8501
  24   1.0000      -1.065557       -28.9953
  25   1.0000      -1.050925       -28.5971
  26   1.0000      -0.977497       -26.5991
  27   1.0000      -0.949337       -25.8328
  28   1.0000      -0.891407       -24.2564
  29   1.0000      -0.841557       -22.8999
  30   1.0000      -0.824400       -22.4331
  31   1.0000      -0.798433       -21.7265
  32   1.0000      -0.782802       -21.3011
  33   1.0000      -0.780325       -21.2337
  34   1.0000      -0.701505       -19.0889
  35   1.0000      -0.693074       -18.8595
  36   1.0000      -0.680184       -18.5088
  37   1.0000      -0.670296       -18.2397
  38   1.0000      -0.645461       -17.5639
  39   1.0000      -0.633585       -17.2407
  40   1.0000      -0.621913       -16.9231
  41   1.0000      -0.600099       -16.3295
  42   1.0000      -0.592499       -16.1227
  43   1.0000      -0.583047       -15.8655
  44   1.0000      -0.573088       -15.5945
  45   1.0000      -0.569077       -15.4854
  46   1.0000      -0.564929       -15.3725
  47   1.0000      -0.558330       -15.1929
  48   1.0000      -0.557885       -15.1808
  49   1.0000      -0.551593       -15.0096
  50   1.0000      -0.550280       -14.9739
  51   1.0000      -0.535508       -14.5719
  52   1.0000      -0.527018       -14.3409
  53   1.0000      -0.519080       -14.1249
  54   1.0000      -0.512715       -13.9517
  55   1.0000      -0.504857       -13.7378
  56   1.0000      -0.488565       -13.2945
  57   1.0000      -0.423082       -11.5126
  58   1.0000      -0.421402       -11.4669
  59   1.0000      -0.406985       -11.0746
  60   1.0000      -0.395378       -10.7588
  61   1.0000      -0.392792       -10.6884
  62   1.0000      -0.389417       -10.5966
  63   1.0000      -0.386202       -10.5091
  64   1.0000      -0.372820       -10.1449
  65   0.0000      -0.059115        -1.6086
  66   0.0000      -0.052726        -1.4348
  67   0.0000       0.007198         0.1959
  68   0.0000       0.028321         0.7707
  69   0.0000       0.032778         0.8919

----------------------------------------------------------------------------------------------------
          SPIN FLIP ABSORPTION SPECTRUM VIA TRANSITION ELECTRIC DIPOLE MOMENTS
----------------------------------------------------------------------------------------------------
     Transition      Energy     Energy  Wavelength fosc(D2)      D2        DX        DY        DZ
                      (eV)      (cm-1)    (nm)                 (au**2)    (au)      (au)      (au)
----------------------------------------------------------------------------------------------------
  1-3A  ->  2-3A    0.072114     581.6  17192.7   0.000000160   0.00009   0.00747  -0.00153   0.00568

Dispersion correction             ... done (  0.1 sec)

MULLIKEN ATOMIC CHARGES AND SPIN DENSITIES
------------------------------------------
   0 O :   -0.706704   -0.153419
   1 O :   -0.635906    0.155354
   2 O :   -0.640733   -0.000876
   3 O :   -0.641232    0.004967
   4 N :   -0.173012   -0.000904
   5 N :   -0.346575    0.018617
   6 N :   -0.092217   -0.036249
   7 N :    0.021976    0.014753
   8 C :    1.395185    0.521738
   9 C :   -0.031937    0.399724
  10 C :   -0.319461   -0.444402
  11 C :    0.904242    0.041362
  12 C :   -1.530163   -0.007846
  13 C :   -1.396268    0.019826
  14 C :   -0.028809   -0.677035
  15 C :    0.212239    0.119397
  16 C :    0.494666    0.040016
  17 C :    0.300042   -0.006285
  18 H :    0.354275   -0.087043
  19 H :    0.562854    0.022570
  20 H :    0.352851   -0.009546
  21 H :    0.338904    0.000163
  22 H :    0.358923    0.008145
  23 H :    0.329879    0.027538
  24 H :    0.183856    0.005146
  25 H :    0.364387    0.012169
  26 H :    0.070950    0.003420
  27 H :    0.119553    0.001276
  28 H :    0.085786    0.008089
  29 H :    0.092449   -0.000665
Sum of atomic charges       :   -0.0000000

LOEWDIN ATOMIC CHARGES AND SPIN DENSITIES
-----------------------------------------
   0 O :    0.078456   -0.133848
   1 O :    0.121781    0.140385
   2 O :    0.097475   -0.000399
   3 O :    0.079956    0.004877
   4 N :    0.286808    0.001567
   5 N :    0.274124    0.016867
   6 N :    0.312251   -0.036615
   7 N :    0.305375    0.012694
   8 C :   -0.007439   -0.451446
   9 C :   -0.035235    0.495402
  10 C :   -0.121620   -0.053425
  11 C :   -0.116181    0.021381
  12 C :    0.194685   -0.071748
  13 C :    0.193626    0.081385
  14 C :   -0.447192   -0.095300
  15 C :   -0.418321    0.081824
  16 C :   -0.465126   -0.000804
  17 C :   -0.487300    0.000635
  18 H :    0.060175   -0.023849
  19 H :    0.040703   -0.001293
  20 H :    0.016909   -0.003865
  21 H :   -0.023112   -0.023279
  22 H :    0.008618   -0.007916
  23 H :    0.027760    0.032376
  24 H :   -0.022939    0.014051
  25 H :    0.025805    0.000415
  26 H :   -0.021565    0.000214
  27 H :   -0.015923    0.001574
  28 H :    0.022156   -0.002815
  29 H :    0.035288    0.000956

  Mayer bond orders larger than 0.100000
B(  0-O ,  8-C ) :   0.1440 B(  0-O , 12-C ) :   0.1091 B(  0-O , 14-C ) :   1.1947
B(  1-O , 15-C ) :   1.4274 B(  2-O , 16-C ) :   1.6070 B(  3-O , 17-C ) :   1.5939
B(  4-N , 10-C ) :   0.6018 B(  4-N , 16-C ) :   1.0641 B(  4-N , 26-H ) :   1.0693
B(  5-N ,  9-C ) :   0.3046 B(  5-N , 10-C ) :   0.1861 B(  5-N , 11-C ) :  -0.1667
B(  5-N , 17-C ) :   1.1829 B(  5-N , 27-H ) :   1.0127 B(  6-N , 14-C ) :   0.9982
B(  6-N , 16-C ) :   0.9303 B(  6-N , 28-H ) :   1.0969 B(  7-N , 15-C ) :   1.0414
B(  7-N , 17-C ) :   1.0151 B(  7-N , 29-H ) :   1.0454 B(  8-C , 10-C ) :   0.4383
B(  8-C , 11-C ) :   0.1239 B(  8-C , 12-C ) :   0.1615 B(  8-C , 22-H ) :  -0.1528
B(  9-C , 10-C ) :   0.4355 B(  9-C , 11-C ) :  -0.5698 B(  9-C , 13-C ) :   0.4407
B(  9-C , 15-C ) :   0.8831 B(  9-C , 19-H ) :  -0.1667 B(  9-C , 25-H ) :  -0.1200
B( 10-C , 11-C ) :   0.4297 B( 10-C , 12-C ) :  -0.1488 B( 10-C , 14-C ) :   0.6099
B( 10-C , 16-C ) :  -0.1386 B( 10-C , 18-H ) :   0.9941 B( 10-C , 19-H ) :  -0.1242
B( 11-C , 12-C ) :   0.1114 B( 11-C , 13-C ) :  -0.2369 B( 11-C , 15-C ) :  -0.1932
B( 11-C , 17-C ) :  -0.2559 B( 11-C , 19-H ) :   0.9037 B( 12-C , 20-H ) :   0.9850
B( 12-C , 21-H ) :   0.7840 B( 12-C , 22-H ) :   1.0604 B( 13-C , 23-H ) :   0.8863
B( 13-C , 24-H ) :   1.1366 B( 13-C , 25-H ) :   0.9097 B( 14-C , 16-C ) :  -0.1164
B( 18-H , 19-H ) :   0.1025

Dispersion correction           -0.057648684
FINAL SINGLE POINT ENERGY      -908.796682250107

DIPOLE MOMENT
-------------

Method             : TDA/CIS
Type of density    : Electron Density
Level              : Relaxed density
State              :   1
Multiplicity       :   3
Irrep              :   0
Energy             :     0.0000000000000000 Eh
Relativity type    :
Basis              : AO
                                X                 Y                 Z
Electronic contribution:     -2.485060339      -9.742275496      -6.384321158
Nuclear contribution   :      2.229458556      11.193786884       8.597031986
                        -----------------------------------------
Total Dipole Moment    :     -0.255601783       1.451511388       2.212710828
                        -----------------------------------------
Magnitude (a.u.)       :      2.658628742
Magnitude (Debye)      :      6.757697219

Rotational constants in cm-1:             0.020367             0.012358             0.010663
Rotational constants in MHz :           610.593620           370.487286           319.682626

                             ****ORCA TERMINATED NORMALLY****
TOTAL RUN TIME: 0 days 0 hours 4 minutes 27 seconds 945 msec
