                         Program Version 6.0.0  -   RELEASE  -
|  1> ! Engrad def2-TZVPPD wB97M-D3BJ
|  2> %pal nprocs 8 end%pal nprocs 32 end
|  3> %tddft Nroots 2 Iroot 2
|  4> sf true
|  5> end
|  6> *xyz 0 3
|  7> O   0.50858649 1.36847923 0.08700918
|  8> C   0.58106364 0.13042043 -0.30247494
|  9> C   -0.43520003 -0.8299313 0.21155743
| 10> H   0.0753107 -1.65959997 0.72810957
| 11> H   1.36654773 -0.1398529 -0.9569832
| 12> H   -0.97729892 -1.24438533 -0.64179249
| 13> H   -1.13550382 -0.33948992 0.85654236
| 14> *
| 15>
| 16>                          ****END OF INPUT****

CARTESIAN COORDINATES (ANGSTROEM)
---------------------------------
  O      0.508586    1.368479    0.087009
  C      0.581064    0.130420   -0.302475
  C     -0.435200   -0.829931    0.211557
  H      0.075311   -1.659600    0.728110
  H      1.366548   -0.139853   -0.956983
  H     -0.977299   -1.244385   -0.641792
  H     -1.135504   -0.339490    0.856542

 Total Charge           Charge          ....    0
 Multiplicity           Mult            ....    3
 Number of Electrons    NEL             ....   24
 Basis Dimension        Dim             ....  182

ORBITAL ENERGIES
----------------
                 SPIN UP ORBITALS
  NO   OCC          E(Eh)            E(eV)
   0   1.0000     -19.419887      -528.4420
   1   1.0000     -10.384853      -282.5862
   2   1.0000     -10.361882      -281.9612
   3   1.0000      -1.208914       -32.8962
   4   1.0000      -0.882397       -24.0112
   5   1.0000      -0.726709       -19.7748
   6   1.0000      -0.624838       -17.0027
   7   1.0000      -0.573159       -15.5964
   8   1.0000      -0.567348       -15.4383
   9   1.0000      -0.511491       -13.9184
  10   1.0000      -0.506401       -13.7799
  11   1.0000      -0.455300       -12.3894
  12   1.0000      -0.244823        -6.6620
  13   0.0000       0.041861         1.1391
  14   0.0000       0.060798         1.6544
  15   0.0000       0.080624         2.1939
  16   0.0000       0.089767         2.4427
  17   0.0000       0.108581         2.9546

                 SPIN DOWN ORBITALS
  NO   OCC          E(Eh)            E(eV)
   0   1.0000     -19.391050      -527.6573
   1   1.0000     -10.373316      -282.2723
   2   1.0000     -10.360637      -281.9273
   3   1.0000      -1.143050       -31.1040
   4   1.0000      -0.863580       -23.4992
   5   1.0000      -0.687480       -18.7073
   6   1.0000      -0.578334       -15.7373
   7   1.0000      -0.534698       -14.5499
   8   1.0000      -0.524049       -14.2601
   9   1.0000      -0.500282       -13.6134
  10   1.0000      -0.456109       -12.4114
  11   0.0000      -0.076045        -2.0693
  12   0.0000       0.041970         1.1421
  13   0.0000       0.061151         1.6640
  14   0.0000       0.070005         1.9049
  15   0.0000       0.080979         2.2035

----------------------------------------------------------------------------------------------------
          SPIN FLIP ABSORPTION SPECTRUM VIA TRANSITION ELECTRIC DIPOLE MOMENTS
----------------------------------------------------------------------------------------------------
     Transition      Energy     Energy  Wavelength fosc(D2)      D2        DX        DY        DZ
                      (eV)      (cm-1)    (nm)                 (au**2)    (au)      (au)      (au)
----------------------------------------------------------------------------------------------------
  1-3A  ->  2-3A    3.764014   30358.8   329.4   0.000000600   0.00001   0.00096   0.00207  -0.00114

Dispersion correction             ... done (  0.1 sec)

MULLIKEN ATOMIC CHARGES AND SPIN DENSITIES
------------------------------------------
   0 O :   -0.247196    0.757105
   1 C :    0.236714   -0.633390
   2 C :   -0.743668    0.034638
   3 H :    0.203116   -0.039821
   4 H :    0.115799   -0.072775
   5 H :    0.202834   -0.043222
   6 H :    0.232402   -0.002536
Sum of atomic charges       :   -0.0000000

LOEWDIN ATOMIC CHARGES AND SPIN DENSITIES
-----------------------------------------
   0 O :    0.120886    0.570451
   1 C :   -0.154207   -0.445417
   2 C :    0.125161   -0.037987
   3 H :   -0.005768   -0.019229
   4 H :   -0.046692   -0.050753
   5 H :   -0.015540   -0.019843
   6 H :   -0.023840    0.002778

  Mayer bond orders larger than 0.100000
B(  0-O ,  1-C ) :   1.0841 B(  1-C ,  2-C ) :   0.7267 B(  1-C ,  4-H ) :   1.0305
B(  2-C ,  3-H ) :   0.9836 B(  2-C ,  5-H ) :   0.9909 B(  2-C ,  6-H ) :   0.9626

Dispersion correction           -0.005521350
FINAL SINGLE POINT ENERGY      -153.767131666975

DIPOLE MOMENT
-------------

Method             : TDA/CIS
Type of density    : Electron Density
Level              : Relaxed density
State              :   2
Multiplicity       :   3
Irrep              :   0
Energy             :     0.0000000000000000 Eh
Relativity type    :
Basis              : AO
                                X                 Y                 Z
Electronic contribution:      1.275748361       3.463565206      -0.010007245
Nuclear contribution   :     -1.409815393      -4.016158093      -0.036407028
                        -----------------------------------------
Total Dipole Moment    :     -0.134067032      -0.552592887      -0.046414274
                        -----------------------------------------
Magnitude (a.u.)       :      0.570514813
Magnitude (Debye)      :      1.450133412

Rotational constants in cm-1:             1.700899             0.341631             0.300626
Rotational constants in MHz :         50991.660341         10241.840640          9012.545389

                             ****ORCA TERMINATED NORMALLY****
TOTAL RUN TIME: 0 days 0 hours 0 minutes 15 seconds 604 msec
