                         Program Version 6.0.0  -   RELEASE  -
|  1> ! Engrad def2-TZVPPD wB97M-D3BJ
|  2> %pal nprocs 8 end%pal nprocs 64 end
|  3> %tddft Nroots 2 Iroot 2
|  4> sf true
|  5> end
|  6> *xyz 0 3
|  7> O   2.38185211 -0.32672599 -1.11138702
|  8> O   -0.13295727 2.77970597 -2.44299434
|  9> O   0.21586368 -3.82786185 0.82951573
| 10> O   -2.07826174 -1.05678604 -1.44207922
| 11> N   0.39467061 -1.94325706 2.05966036
| 12> N   -1.28610306 -0.19350436 0.5169265
| 13> N   1.08164952 -1.98864611 -0.20134886
| 14> N   -0.74348582 0.78625321 -1.52853039
| 15> C   1.21797238 0.2200162 0.89922656
| 16> C   -0.56380697 2.71728219 -0.07641061
| 17> C   0.63275691 -0.55890992 2.18787865
| 18> C   -0.18025752 0.37723563 1.22738732
| 19> C   2.21564962 1.27479829 1.21604315
| 20> C   -1.69904571 3.54015892 0.42596425
| 21> C   1.62573027 -0.67276726 -0.23602081
| 22> C   -0.31913136 2.14057873 -1.41064096
| 23> C   0.5112724 -2.65729018 0.91149656
| 24> C   -1.4324871 -0.22591309 -0.84902197
| 25> H   0.96061247 -0.18386423 3.11909948
| 26> H   -0.38819158 1.25138186 1.81274766
| 27> H   2.49299875 1.83903535 0.3195195
| 28> H   1.91742028 1.9888711 1.99278327
| 29> H   3.09575637 0.74811775 1.57317345
| 30> H   -2.65234742 2.97131489 0.41964256
| 31> H   -1.55637787 3.95455181 1.41102541
| 32> H   -1.78355827 4.35712886 -0.30403679
| 33> H   -0.08402827 -2.48941972 2.78419014
| 34> H   -1.73189273 -0.99085655 0.99474888
| 35> H   1.20013716 -2.61294865 -1.01368136
| 36> H   -0.83865727 0.62212671 -2.499702
| 37> *
| 38>
| 39>                          ****END OF INPUT****

CARTESIAN COORDINATES (ANGSTROEM)
---------------------------------
  O      2.381852   -0.326726   -1.111387
  O     -0.132957    2.779706   -2.442994
  O      0.215864   -3.827862    0.829516
  O     -2.078262   -1.056786   -1.442079
  N      0.394671   -1.943257    2.059660
  N     -1.286103   -0.193504    0.516926
  N      1.081650   -1.988646   -0.201349
  N     -0.743486    0.786253   -1.528530
  C      1.217972    0.220016    0.899227
  C     -0.563807    2.717282   -0.076411
  C      0.632757   -0.558910    2.187879
  C     -0.180258    0.377236    1.227387
  C      2.215650    1.274798    1.216043
  C     -1.699046    3.540159    0.425964
  C      1.625730   -0.672767   -0.236021
  C     -0.319131    2.140579   -1.410641
  C      0.511272   -2.657290    0.911497
  C     -1.432487   -0.225913   -0.849022
  H      0.960612   -0.183864    3.119099
  H     -0.388192    1.251382    1.812748
  H      2.492999    1.839035    0.319520
  H      1.917420    1.988871    1.992783
  H      3.095756    0.748118    1.573173
  H     -2.652347    2.971315    0.419643
  H     -1.556378    3.954552    1.411025
  H     -1.783558    4.357129   -0.304037
  H     -0.084028   -2.489420    2.784190
  H     -1.731893   -0.990857    0.994749
  H      1.200137   -2.612949   -1.013681
  H     -0.838657    0.622127   -2.499702

 Total Charge           Charge          ....    0
 Multiplicity           Mult            ....    3
 Number of Electrons    NEL             ....  132
 Basis Dimension        Dim             ....  882

ORBITAL ENERGIES
----------------
                 SPIN UP ORBITALS
  NO   OCC          E(Eh)            E(eV)
   0   1.0000     -19.347855      -526.4819
   1   1.0000     -19.339925      -526.2661
   2   1.0000     -19.324982      -525.8595
   3   1.0000     -19.316913      -525.6399
   4   1.0000     -14.570909      -396.4946
   5   1.0000     -14.565648      -396.3514
   6   1.0000     -14.563312      -396.2879
   7   1.0000     -14.557106      -396.1190
   8   1.0000     -10.510292      -285.9996
   9   1.0000     -10.505572      -285.8712
  10   1.0000     -10.503510      -285.8150
  11   1.0000     -10.495390      -285.5941
  12   1.0000     -10.439653      -284.0774
  13   1.0000     -10.432879      -283.8931
  14   1.0000     -10.419343      -283.5247
  15   1.0000     -10.414583      -283.3952
  16   1.0000     -10.387221      -282.6506
  17   1.0000     -10.367315      -282.1090
  18   1.0000      -1.221189       -33.2303
  19   1.0000      -1.216190       -33.0942
  20   1.0000      -1.201582       -32.6967
  21   1.0000      -1.200110       -32.6567
  22   1.0000      -1.124552       -30.6006
  23   1.0000      -1.087872       -29.6025
  24   1.0000      -1.059021       -28.8174
  25   1.0000      -1.054202       -28.6863
  26   1.0000      -1.008861       -27.4525
  27   1.0000      -0.934086       -25.4178
  28   1.0000      -0.880290       -23.9539
  29   1.0000      -0.832137       -22.6436
  30   1.0000      -0.815696       -22.1962
  31   1.0000      -0.809344       -22.0234
  32   1.0000      -0.781598       -21.2684
  33   1.0000      -0.766445       -20.8560
  34   1.0000      -0.719242       -19.5716
  35   1.0000      -0.697255       -18.9733
  36   1.0000      -0.683450       -18.5976
  37   1.0000      -0.662338       -18.0231
  38   1.0000      -0.628288       -17.0966
  39   1.0000      -0.620745       -16.8913
  40   1.0000      -0.612266       -16.6606
  41   1.0000      -0.604230       -16.4419
  42   1.0000      -0.602220       -16.3872
  43   1.0000      -0.589465       -16.0402
  44   1.0000      -0.574280       -15.6269
  45   1.0000      -0.572636       -15.5822
  46   1.0000      -0.566955       -15.4276
  47   1.0000      -0.561110       -15.2686
  48   1.0000      -0.558131       -15.1875
  49   1.0000      -0.551310       -15.0019
  50   1.0000      -0.546993       -14.8844
  51   1.0000      -0.545558       -14.8454
  52   1.0000      -0.530495       -14.4355
  53   1.0000      -0.526184       -14.3182
  54   1.0000      -0.511775       -13.9261
  55   1.0000      -0.476044       -12.9538
  56   1.0000      -0.451883       -12.2964
  57   1.0000      -0.440296       -11.9811
  58   1.0000      -0.421540       -11.4707
  59   1.0000      -0.409858       -11.1528
  60   1.0000      -0.404976       -11.0200
  61   1.0000      -0.395859       -10.7719
  62   1.0000      -0.392586       -10.6828
  63   1.0000      -0.386088       -10.5060
  64   1.0000      -0.372709       -10.1419
  65   1.0000      -0.353869        -9.6293
  66   1.0000      -0.325152        -8.8478
  67   0.0000       0.009804         0.2668
  68   0.0000       0.025594         0.6964
  69   0.0000       0.033719         0.9175
  70   0.0000       0.037833         1.0295
  71   0.0000       0.042814         1.1650

                 SPIN DOWN ORBITALS
  NO   OCC          E(Eh)            E(eV)
   0   1.0000     -19.343740      -526.3699
   1   1.0000     -19.339931      -526.2663
   2   1.0000     -19.324816      -525.8550
   3   1.0000     -19.316879      -525.6390
   4   1.0000     -14.570801      -396.4917
   5   1.0000     -14.565640      -396.3512
   6   1.0000     -14.563304      -396.2876
   7   1.0000     -14.556402      -396.0998
   8   1.0000     -10.510329      -286.0006
   9   1.0000     -10.505569      -285.8711
  10   1.0000     -10.504226      -285.8345
  11   1.0000     -10.495397      -285.5943
  12   1.0000     -10.439231      -284.0659
  13   1.0000     -10.432523      -283.8834
  14   1.0000     -10.419267      -283.5227
  15   1.0000     -10.387926      -282.6698
  16   1.0000     -10.387634      -282.6619
  17   1.0000     -10.367247      -282.1071
  18   1.0000      -1.220566       -33.2133
  19   1.0000      -1.215151       -33.0659
  20   1.0000      -1.201526       -32.6952
  21   1.0000      -1.194330       -32.4994
  22   1.0000      -1.124137       -30.5893
  23   1.0000      -1.086918       -29.5765
  24   1.0000      -1.057177       -28.7672
  25   1.0000      -1.053711       -28.6729
  26   1.0000      -1.008277       -27.4366
  27   1.0000      -0.904293       -24.6071
  28   1.0000      -0.879857       -23.9421
  29   1.0000      -0.822289       -22.3756
  30   1.0000      -0.815464       -22.1899
  31   1.0000      -0.805236       -21.9116
  32   1.0000      -0.775696       -21.1078
  33   1.0000      -0.764172       -20.7942
  34   1.0000      -0.714887       -19.4531
  35   1.0000      -0.696254       -18.9460
  36   1.0000      -0.674944       -18.3662
  37   1.0000      -0.661035       -17.9877
  38   1.0000      -0.620986       -16.8979
  39   1.0000      -0.617205       -16.7950
  40   1.0000      -0.606178       -16.4949
  41   1.0000      -0.601035       -16.3550
  42   1.0000      -0.590084       -16.0570
  43   1.0000      -0.583669       -15.8824
  44   1.0000      -0.573087       -15.5945
  45   1.0000      -0.565805       -15.3963
  46   1.0000      -0.562275       -15.3003
  47   1.0000      -0.553754       -15.0684
  48   1.0000      -0.547943       -14.9103
  49   1.0000      -0.545880       -14.8541
  50   1.0000      -0.540612       -14.7108
  51   1.0000      -0.537913       -14.6374
  52   1.0000      -0.528967       -14.3939
  53   1.0000      -0.516710       -14.0604
  54   1.0000      -0.511484       -13.9182
  55   1.0000      -0.473965       -12.8973
  56   1.0000      -0.451113       -12.2754
  57   1.0000      -0.429577       -11.6894
  58   1.0000      -0.421076       -11.4581
  59   1.0000      -0.406335       -11.0569
  60   1.0000      -0.394531       -10.7357
  61   1.0000      -0.391399       -10.6505
  62   1.0000      -0.390182       -10.6174
  63   1.0000      -0.385072       -10.4783
  64   1.0000      -0.352647        -9.5960
  65   0.0000      -0.049762        -1.3541
  66   0.0000       0.008325         0.2265
  67   0.0000       0.010605         0.2886
  68   0.0000       0.027340         0.7440
  69   0.0000       0.034819         0.9475

----------------------------------------------------------------------------------------------------
          SPIN FLIP ABSORPTION SPECTRUM VIA TRANSITION ELECTRIC DIPOLE MOMENTS
----------------------------------------------------------------------------------------------------
     Transition      Energy     Energy  Wavelength fosc(D2)      D2        DX        DY        DZ
                      (eV)      (cm-1)    (nm)                 (au**2)    (au)      (au)      (au)
----------------------------------------------------------------------------------------------------
  1-3A  ->  2-3A    0.972729    7845.6  1274.6   0.000030300   0.00127  -0.02483   0.01350   0.02174

Dispersion correction             ... done (  0.1 sec)

MULLIKEN ATOMIC CHARGES AND SPIN DENSITIES
------------------------------------------
   0 O :   -0.624786   -0.000072
   1 O :   -0.591677   -0.063275
   2 O :   -0.651832    0.000175
   3 O :   -0.653322   -0.003137
   4 N :   -0.157340   -0.000394
   5 N :   -0.159102    0.015107
   6 N :    0.000753   -0.000369
   7 N :    0.033161   -0.015157
   8 C :    2.403328    0.098358
   9 C :    0.105016    0.164163
  10 C :   -0.568489   -0.005941
  11 C :   -1.012784   -0.162056
  12 C :   -1.940200    0.000203
  13 C :   -0.896341    0.093059
  14 C :   -0.014767    0.013957
  15 C :    0.606237   -0.156769
  16 C :    0.458255    0.000564
  17 C :    0.571455    0.006333
  18 H :    0.259289   -0.002052
  19 H :    0.537812    0.016332
  20 H :    0.331104   -0.003248
  21 H :    0.356346   -0.017656
  22 H :    0.459390   -0.006419
  23 H :    0.251800    0.012961
  24 H :    0.286365   -0.002503
  25 H :    0.344601    0.009904
  26 H :    0.076836   -0.000225
  27 H :    0.136750   -0.001859
  28 H :    0.067294   -0.000031
  29 H :   -0.015151    0.010046
Sum of atomic charges       :   -0.0000000

LOEWDIN ATOMIC CHARGES AND SPIN DENSITIES
-----------------------------------------
   0 O :    0.114609   -0.000102
   1 O :    0.093285   -0.053513
   2 O :    0.080267    0.000195
   3 O :    0.102418   -0.003572
   4 N :    0.253708   -0.000191
   5 N :    0.277618    0.002609
   6 N :    0.332621   -0.000150
   7 N :    0.321208    0.002756
   8 C :   -0.229459   -0.001837
   9 C :    0.179003    0.078566
  10 C :    0.036993    0.000657
  11 C :   -0.134045   -0.001895
  12 C :    0.185039   -0.007825
  13 C :    0.118250    0.003178
  14 C :   -0.349723   -0.000025
  15 C :   -0.424331   -0.017486
  16 C :   -0.490161    0.000018
  17 C :   -0.483547    0.000293
  18 H :    0.026475    0.000127
  19 H :    0.013653   -0.001423
  20 H :    0.007025   -0.002675
  21 H :    0.012594   -0.001877
  22 H :    0.008169   -0.000796
  23 H :    0.013381    0.003665
  24 H :   -0.018861   -0.009609
  25 H :    0.000524    0.010408
  26 H :   -0.000404   -0.000033
  27 H :   -0.005269   -0.000048
  28 H :    0.010377   -0.000012
  29 H :   -0.051417    0.000596

  Mayer bond orders larger than 0.100000
B(  0-O , 14-C ) :   1.5503 B(  1-O , 15-C ) :   1.4162 B(  2-O , 16-C ) :   1.5597
B(  3-O , 17-C ) :   1.5087 B(  4-N , 10-C ) :   0.6481 B(  4-N , 16-C ) :   1.0950
B(  4-N , 26-H ) :   1.1028 B(  5-N , 11-C ) :   0.6302 B(  5-N , 17-C ) :   0.9557
B(  5-N , 19-H ) :  -0.1594 B(  5-N , 27-H ) :   1.0180 B(  6-N , 14-C ) :   1.0148
B(  6-N , 16-C ) :   0.9486 B(  6-N , 28-H ) :   1.0887 B(  7-N , 11-C ) :   0.1345
B(  7-N , 15-C ) :   0.8993 B(  7-N , 17-C ) :   0.9315 B(  7-N , 29-H ) :   1.1339
B(  8-C ,  9-C ) :  -0.1303 B(  8-C , 10-C ) :   0.6177 B(  8-C , 11-C ) :  -0.7688
B(  8-C , 12-C ) :  -0.2108 B(  8-C , 14-C ) :   0.2813 B(  8-C , 19-H ) :  -0.1018
B(  8-C , 20-H ) :  -0.1251 B(  8-C , 21-H ) :  -0.1124 B(  9-C , 11-C ) :   0.2224
B(  9-C , 13-C ) :   0.4668 B(  9-C , 15-C ) :   0.7948 B(  9-C , 19-H ) :  -0.1306
B( 10-C , 11-C ) :   0.4989 B( 10-C , 12-C ) :  -0.1168 B( 10-C , 16-C ) :  -0.1544
B( 10-C , 18-H ) :   1.1629 B( 11-C , 14-C ) :  -0.1413 B( 11-C , 17-C ) :  -0.1138
B( 11-C , 19-H ) :   0.9367 B( 12-C , 20-H ) :   1.0240 B( 12-C , 21-H ) :   1.0449
B( 12-C , 22-H ) :   0.7500 B( 13-C , 23-H ) :   0.9607 B( 13-C , 24-H ) :   0.9908
B( 13-C , 25-H ) :   0.9203

Dispersion correction           -0.056397465
FINAL SINGLE POINT ENERGY      -908.658971900394

DIPOLE MOMENT
-------------

Method             : TDA/CIS
Type of density    : Electron Density
Level              : Relaxed density
State              :   2
Multiplicity       :   3
Irrep              :   0
Energy             :     0.0000000000000000 Eh
Relativity type    :
Basis              : AO
                                X                 Y                 Z
Electronic contribution:      0.040903987      -9.342865489      -6.821778273
Nuclear contribution   :     -0.447362686      10.701806595       9.560115761
                        -----------------------------------------
Total Dipole Moment    :     -0.406458699       1.358941106       2.738337488
                        -----------------------------------------
Magnitude (a.u.)       :      3.083897178
Magnitude (Debye)      :      7.838643679

Rotational constants in cm-1:             0.022734             0.011845             0.011064
Rotational constants in MHz :           681.554356           355.105425           331.683712

                             ****ORCA TERMINATED NORMALLY****
TOTAL RUN TIME: 0 days 0 hours 4 minutes 40 seconds 495 msec
